 Entering Gaussian System, Link 0=/opt/soft/g16b/g16/g16
 Initial command:
 /opt/soft/g16b/g16/l1.exe "/scratch/gongke2021/1-H-Tz/Gau-30697.inp" -scrdir="/scratch/gongke2021/1-H-Tz/"
 Entering Link 1 = /opt/soft/g16b/g16/l1.exe PID=     30698.
  
 Copyright (c) 1988,1990,1992,1993,1995,1998,2003,2009,2016,
            Gaussian, Inc.  All Rights Reserved.
  
 This is part of the Gaussian(R) 16 program.  It is based on
 the Gaussian(R) 09 system (copyright 2009, Gaussian, Inc.),
 the Gaussian(R) 03 system (copyright 2003, Gaussian, Inc.),
 the Gaussian(R) 98 system (copyright 1998, Gaussian, Inc.),
 the Gaussian(R) 94 system (copyright 1995, Gaussian, Inc.),
 the Gaussian 92(TM) system (copyright 1992, Gaussian, Inc.),
 the Gaussian 90(TM) system (copyright 1990, Gaussian, Inc.),
 the Gaussian 88(TM) system (copyright 1988, Gaussian, Inc.),
 the Gaussian 86(TM) system (copyright 1986, Carnegie Mellon
 University), and the Gaussian 82(TM) system (copyright 1983,
 Carnegie Mellon University). Gaussian is a federally registered
 trademark of Gaussian, Inc.
  
 This software contains proprietary and confidential information,
 including trade secrets, belonging to Gaussian, Inc.
  
 This software is provided under written license and may be
 used, copied, transmitted, or stored only in accord with that
 written license.
  
 The following legend is applicable only to US Government
 contracts under FAR:
  
                    RESTRICTED RIGHTS LEGEND
  
 Use, reproduction and disclosure by the US Government is
 subject to restrictions as set forth in subparagraphs (a)
 and (c) of the Commercial Computer Software - Restricted
 Rights clause in FAR 52.227-19.
  
 Gaussian, Inc.
 340 Quinnipiac St., Bldg. 40, Wallingford CT 06492
  
  
 ---------------------------------------------------------------
 Warning -- This program may not be used in any manner that
 competes with the business of Gaussian, Inc. or will provide
 assistance to any competitor of Gaussian, Inc.  The licensee
 of this program is prohibited from giving any competitor of
 Gaussian, Inc. access to this program.  By using this program,
 the user acknowledges that Gaussian, Inc. is engaged in the
 business of creating and licensing software in the field of
 computational chemistry and represents and warrants to the
 licensee that it is not a competitor of Gaussian, Inc. and that
 it will not use this program in any manner prohibited above.
 ---------------------------------------------------------------
  

 Cite this work as:
 Gaussian 16, Revision A.03,
 M. J. Frisch, G. W. Trucks, H. B. Schlegel, G. E. Scuseria, 
 M. A. Robb, J. R. Cheeseman, G. Scalmani, V. Barone, 
 G. A. Petersson, H. Nakatsuji, X. Li, M. Caricato, A. V. Marenich, 
 J. Bloino, B. G. Janesko, R. Gomperts, B. Mennucci, H. P. Hratchian, 
 J. V. Ortiz, A. F. Izmaylov, J. L. Sonnenberg, D. Williams-Young, 
 F. Ding, F. Lipparini, F. Egidi, J. Goings, B. Peng, A. Petrone, 
 T. Henderson, D. Ranasinghe, V. G. Zakrzewski, J. Gao, N. Rega, 
 G. Zheng, W. Liang, M. Hada, M. Ehara, K. Toyota, R. Fukuda, 
 J. Hasegawa, M. Ishida, T. Nakajima, Y. Honda, O. Kitao, H. Nakai, 
 T. Vreven, K. Throssell, J. A. Montgomery, Jr., J. E. Peralta, 
 F. Ogliaro, M. J. Bearpark, J. J. Heyd, E. N. Brothers, K. N. Kudin, 
 V. N. Staroverov, T. A. Keith, R. Kobayashi, J. Normand, 
 K. Raghavachari, A. P. Rendell, J. C. Burant, S. S. Iyengar, 
 J. Tomasi, M. Cossi, J. M. Millam, M. Klene, C. Adamo, R. Cammi, 
 J. W. Ochterski, R. L. Martin, K. Morokuma, O. Farkas, 
 J. B. Foresman, and D. J. Fox, Gaussian, Inc., Wallingford CT, 2016.
 
 ******************************************
 Gaussian 16:  ES64L-G16RevA.03 25-Dec-2016
                 7-May-2023 
 ******************************************
 %mem=10GB
 %nprocshared=20
 Will use up to   20 processors via shared memory.
 ----------------------------
 # opt freq 6-31+g(d,p) m062x
 ----------------------------
 1/18=20,19=15,26=3,38=1/1,3;
 2/9=110,12=2,17=6,18=5,40=1/2;
 3/5=1,6=6,7=111,11=2,25=1,30=1,71=1,74=-55/1,2,3;
 4//1;
 5/5=2,38=5/2;
 6/7=2,8=2,9=2,10=2,28=1/1;
 7//1,2,3,16;
 1/18=20,19=15,26=3/3(2);
 2/9=110/2;
 99//99;
 2/9=110/2;
 3/5=1,6=6,7=111,11=2,25=1,30=1,71=1,74=-55/1,2,3;
 4/5=5,16=3,69=1/1;
 5/5=2,38=5/2;
 7//1,2,3,16;
 1/18=20,19=15,26=3/3(-5);
 2/9=110/2;
 6/7=2,8=2,9=2,10=2,19=2,28=1/1;
 99/9=1/99;
 ----
 test
 ----
 Symbolic Z-matrix:
 Charge =  0 Multiplicity = 1
 N                    -3.27597   0.57796  -0.00019 
 N                    -2.44747  -0.66051   0.00016 
 C                    -1.01452  -0.19638   0.00039 
 C                    -1.00746   1.33133   0.0004 
 N                    -2.436     1.80882   0.00043 
 H                    -0.09409  -0.86904   0.00068 
 H                    -0.08081   1.99529   0.00088 
 H                    -2.93444  -1.65799   0.00016 
 

 GradGradGradGradGradGradGradGradGradGradGradGradGradGradGradGradGradGrad
 Berny optimization.
 Initialization pass.
                           ----------------------------
                           !    Initial Parameters    !
                           ! (Angstroms and Degrees)  !
 --------------------------                            --------------------------
 ! Name  Definition              Value          Derivative Info.                !
 --------------------------------------------------------------------------------
 ! R1    R(1,2)                  1.49           estimate D2E/DX2                !
 ! R2    R(1,5)                  1.4902         estimate D2E/DX2                !
 ! R3    R(2,3)                  1.5062         estimate D2E/DX2                !
 ! R4    R(2,8)                  1.11           estimate D2E/DX2                !
 ! R5    R(3,4)                  1.5277         estimate D2E/DX2                !
 ! R6    R(3,6)                  1.14           estimate D2E/DX2                !
 ! R7    R(4,5)                  1.5062         estimate D2E/DX2                !
 ! R8    R(4,7)                  1.14           estimate D2E/DX2                !
 ! A1    A(2,1,5)              111.9081         estimate D2E/DX2                !
 ! A2    A(1,2,3)              105.8343         estimate D2E/DX2                !
 ! A3    A(1,2,8)              120.197          estimate D2E/DX2                !
 ! A4    A(3,2,8)              133.9687         estimate D2E/DX2                !
 ! A5    A(2,3,4)              108.2118         estimate D2E/DX2                !
 ! A6    A(2,3,6)              125.8934         estimate D2E/DX2                !
 ! A7    A(4,3,6)              125.8948         estimate D2E/DX2                !
 ! A8    A(3,4,5)              108.2174         estimate D2E/DX2                !
 ! A9    A(3,4,7)              125.8871         estimate D2E/DX2                !
 ! A10   A(5,4,7)              125.8955         estimate D2E/DX2                !
 ! A11   A(1,5,4)              105.8284         estimate D2E/DX2                !
 ! D1    D(5,1,2,3)             -0.0261         estimate D2E/DX2                !
 ! D2    D(5,1,2,8)            179.9764         estimate D2E/DX2                !
 ! D3    D(2,1,5,4)              0.0328         estimate D2E/DX2                !
 ! D4    D(1,2,3,4)              0.0088         estimate D2E/DX2                !
 ! D5    D(1,2,3,6)           -179.9996         estimate D2E/DX2                !
 ! D6    D(8,2,3,4)           -179.9942         estimate D2E/DX2                !
 ! D7    D(8,2,3,6)             -0.0026         estimate D2E/DX2                !
 ! D8    D(2,3,4,5)              0.0108         estimate D2E/DX2                !
 ! D9    D(2,3,4,7)            179.9791         estimate D2E/DX2                !
 ! D10   D(6,3,4,5)           -179.9808         estimate D2E/DX2                !
 ! D11   D(6,3,4,7)             -0.0125         estimate D2E/DX2                !
 ! D12   D(3,4,5,1)             -0.0259         estimate D2E/DX2                !
 ! D13   D(7,4,5,1)           -179.9942         estimate D2E/DX2                !
 --------------------------------------------------------------------------------
 Trust Radius=3.00D-01 FncErr=1.00D-07 GrdErr=1.00D-06 EigMax=2.50D+02 EigMin=1.00D-04
 Number of steps in this run=     42 maximum allowed number of steps=    100.
 GradGradGradGradGradGradGradGradGradGradGradGradGradGradGradGradGradGrad

                          Input orientation:                          
 ---------------------------------------------------------------------
 Center     Atomic      Atomic             Coordinates (Angstroms)
 Number     Number       Type             X           Y           Z
 ---------------------------------------------------------------------
      1          7           0       -3.275970    0.577959   -0.000194
      2          7           0       -2.447470   -0.660512    0.000159
      3          6           0       -1.014520   -0.196383    0.000393
      4          6           0       -1.007460    1.331330    0.000395
      5          7           0       -2.436000    1.808820    0.000435
      6          1           0       -0.094095   -0.869036    0.000677
      7          1           0       -0.080812    1.995290    0.000883
      8          1           0       -2.934440   -1.657990    0.000159
 ---------------------------------------------------------------------
                    Distance matrix (angstroms):
                    1          2          3          4          5
     1  N    0.000000
     2  N    1.490041   0.000000
     3  C    2.390348   1.506241   0.000000
     4  C    2.390336   2.457857   1.527729   0.000000
     5  N    1.490157   2.469359   2.457935   1.506228   0.000000
     6  H    3.495444   2.362596   1.140020   2.382404   3.557448
     7  H    3.495406   3.557296   2.382276   1.139964   2.362558
     8  H    2.261882   1.110001   2.412962   3.556583   3.502458
                    6          7          8
     6  H    0.000000
     7  H    2.864357   0.000000
     8  H    2.947883   4.635693   0.000000
 Stoichiometry    C2H3N3
 Framework group  C1[X(C2H3N3)]
 Deg. of freedom    18
 Full point group                 C1      NOp   1
 Largest Abelian subgroup         C1      NOp   1
 Largest concise Abelian subgroup C1      NOp   1
                         Standard orientation:                         
 ---------------------------------------------------------------------
 Center     Atomic      Atomic             Coordinates (Angstroms)
 Number     Number       Type             X           Y           Z
 ---------------------------------------------------------------------
      1          7           0        0.492818   -1.168166   -0.000181
      2          7           0        1.244018    0.118660    0.000073
      3          6           0        0.199761    1.204149   -0.000034
      4          6           0       -1.177083    0.542138   -0.000132
      5          7           0       -0.981480   -0.951336    0.000186
      6          1           0        0.401948    2.326096    0.000094
      7          1           0       -2.179530    1.084924    0.000112
      8          1           0        2.354018    0.117152    0.000244
 ---------------------------------------------------------------------
 Rotational constants (GHZ):           8.5364586           7.6139844           4.0244385
 Standard basis: 6-31+G(d,p) (6D, 7F)
 There are   110 symmetry adapted cartesian basis functions of A   symmetry.
 There are   110 symmetry adapted basis functions of A   symmetry.
   110 basis functions,   181 primitive gaussians,   110 cartesian basis functions
    18 alpha electrons       18 beta electrons
       nuclear repulsion energy       148.2582244787 Hartrees.
 NAtoms=    8 NActive=    8 NUniq=    8 SFac= 1.00D+00 NAtFMM=   60 NAOKFM=F Big=F
 Integral buffers will be    131072 words long.
 Raffenetti 2 integral format.
 Two-electron integral symmetry is turned on.
 One-electron integrals computed using PRISM.
 NBasis=   110 RedAO= T EigKep=  1.44D-04  NBF=   110
 NBsUse=   110 1.00D-06 EigRej= -1.00D+00 NBFU=   110
 ExpMin= 4.38D-02 ExpMax= 4.17D+03 ExpMxC= 6.27D+02 IAcc=3 IRadAn=         5 AccDes= 0.00D+00
 Harris functional with IExCor= 1009 and IRadAn=       5 diagonalized for initial guess.
 HarFok:  IExCor= 1009 AccDes= 0.00D+00 IRadAn=         5 IDoV= 1 UseB2=F ITyADJ=14
 ICtDFT=  3500011 ScaDFX=  1.000000  1.000000  1.000000  1.000000
 FoFCou: FMM=F IPFlag=           0 FMFlag=      100000 FMFlg1=           0
         NFxFlg=           0 DoJE=T BraDBF=F KetDBF=T FulRan=T
         wScrn=  0.000000 ICntrl=       500 IOpCl=  0 I1Cent=   200000004 NGrid=           0
         NMat0=    1 NMatS0=      1 NMatT0=    0 NMatD0=    1 NMtDS0=    0 NMtDT0=    0
 Petite list used in FoFCou.
 Keep R1 ints in memory in canonical form, NReq=37326157.
 Requested convergence on RMS density matrix=1.00D-08 within 128 cycles.
 Requested convergence on MAX density matrix=1.00D-06.
 Requested convergence on             energy=1.00D-06.
 No special actions if energy rises.
 SCF Done:  E(RM062X) =  -242.019170128     A.U. after   14 cycles
            NFock= 14  Conv=0.37D-08     -V/T= 2.0160

 **********************************************************************

            Population analysis using the SCF density.

 **********************************************************************

 Orbital symmetries:
       Occupied  (A) (A) (A) (A) (A) (A) (A) (A) (A) (A) (A) (A)
                 (A) (A) (A) (A) (A) (A)
       Virtual   (A) (A) (A) (A) (A) (A) (A) (A) (A) (A) (A) (A)
                 (A) (A) (A) (A) (A) (A) (A) (A) (A) (A) (A) (A)
                 (A) (A) (A) (A) (A) (A) (A) (A) (A) (A) (A) (A)
                 (A) (A) (A) (A) (A) (A) (A) (A) (A) (A) (A) (A)
                 (A) (A) (A) (A) (A) (A) (A) (A) (A) (A) (A) (A)
                 (A) (A) (A) (A) (A) (A) (A) (A) (A) (A) (A) (A)
                 (A) (A) (A) (A) (A) (A) (A) (A) (A) (A) (A) (A)
                 (A) (A) (A) (A) (A) (A) (A) (A)
 The electronic state is 1-A.
 Alpha  occ. eigenvalues --  -14.88657 -14.86353 -14.83789 -10.65310 -10.63015
 Alpha  occ. eigenvalues --   -1.10856  -0.96156  -0.85826  -0.72319  -0.67351
 Alpha  occ. eigenvalues --   -0.60946  -0.51268  -0.50580  -0.48656  -0.38966
 Alpha  occ. eigenvalues --   -0.37778  -0.35182  -0.30841
 Alpha virt. eigenvalues --   -0.02450   0.00263   0.02420   0.02610   0.03421
 Alpha virt. eigenvalues --    0.06306   0.07391   0.07778   0.09660   0.10560
 Alpha virt. eigenvalues --    0.11013   0.14229   0.15304   0.16112   0.16521
 Alpha virt. eigenvalues --    0.18616   0.19436   0.20162   0.20501   0.22297
 Alpha virt. eigenvalues --    0.22830   0.24243   0.25278   0.26086   0.29282
 Alpha virt. eigenvalues --    0.32195   0.32553   0.34942   0.35877   0.41449
 Alpha virt. eigenvalues --    0.65878   0.70569   0.74076   0.76392   0.79973
 Alpha virt. eigenvalues --    0.86401   0.89838   0.92536   0.95055   0.95463
 Alpha virt. eigenvalues --    0.97768   0.97996   1.01711   1.02791   1.03393
 Alpha virt. eigenvalues --    1.07240   1.11778   1.13121   1.27780   1.29156
 Alpha virt. eigenvalues --    1.32918   1.34546   1.37791   1.39033   1.49324
 Alpha virt. eigenvalues --    1.53410   1.54746   1.56648   1.69491   1.74626
 Alpha virt. eigenvalues --    1.76380   1.80586   1.89304   1.96221   1.97524
 Alpha virt. eigenvalues --    2.02396   2.06826   2.08112   2.15606   2.24186
 Alpha virt. eigenvalues --    2.31641   2.33572   2.38671   2.41631   2.45527
 Alpha virt. eigenvalues --    2.47278   2.47588   2.57001   2.59334   2.66989
 Alpha virt. eigenvalues --    2.70941   2.80061   2.80263   2.98013   3.08084
 Alpha virt. eigenvalues --    3.25814   3.46490   3.84924   4.11984   4.16695
 Alpha virt. eigenvalues --    4.28707   4.51742
          Condensed to atoms (all electrons):
               1          2          3          4          5          6
     1  N    6.525937   0.205319  -0.091861   0.074276   0.329263   0.006246
     2  N    0.205319   6.603795   0.339408  -0.172271   0.033386  -0.024484
     3  C   -0.091861   0.339408   5.345582   0.302164  -0.062969   0.329161
     4  C    0.074276  -0.172271   0.302164   5.356421   0.277239   0.015312
     5  N    0.329263   0.033386  -0.062969   0.277239   6.543993  -0.001971
     6  H    0.006246  -0.024484   0.329161   0.015312  -0.001971   0.474454
     7  H    0.007168  -0.000114  -0.014828   0.358450  -0.024754   0.001090
     8  H    0.006459   0.276793   0.004259  -0.002303  -0.001212   0.000524
               7          8
     1  N    0.007168   0.006459
     2  N   -0.000114   0.276793
     3  C   -0.014828   0.004259
     4  C    0.358450  -0.002303
     5  N   -0.024754  -0.001212
     6  H    0.001090   0.000524
     7  H    0.473583  -0.000013
     8  H   -0.000013   0.336761
 Mulliken charges:
               1
     1  N   -0.062808
     2  N   -0.261832
     3  C   -0.150915
     4  C   -0.209288
     5  N   -0.092977
     6  H    0.199668
     7  H    0.199418
     8  H    0.378732
 Sum of Mulliken charges =  -0.00000
 Mulliken charges with hydrogens summed into heavy atoms:
               1
     1  N   -0.062808
     2  N    0.116900
     3  C    0.048753
     4  C   -0.009869
     5  N   -0.092977
 Electronic spatial extent (au):  <R**2>=            318.1092
 Charge=             -0.0000 electrons
 Dipole moment (field-independent basis, Debye):
    X=              2.1505    Y=              4.2458    Z=              0.0006  Tot=              4.7594
 Quadrupole moment (field-independent basis, Debye-Ang):
   XX=            -21.3832   YY=            -30.9868   ZZ=            -32.8703
   XY=             -1.2512   XZ=              0.0010   YZ=              0.0005
 Traceless Quadrupole moment (field-independent basis, Debye-Ang):
   XX=              7.0302   YY=             -2.5734   ZZ=             -4.4569
   XY=             -1.2512   XZ=              0.0010   YZ=              0.0005
 Octapole moment (field-independent basis, Debye-Ang**2):
  XXX=             18.6480  YYY=             15.9299  ZZZ=              0.0011  XYY=              1.5079
  XXY=              8.0003  XXZ=              0.0043  XZZ=              1.4911  YZZ=             -1.6819
  YYZ=              0.0014  XYZ=             -0.0002
 Hexadecapole moment (field-independent basis, Debye-Ang**3):
 XXXX=           -136.6127 YYYY=           -186.0966 ZZZZ=            -37.8599 XXXY=            -10.8044
 XXXZ=              0.0050 YYYX=              2.8339 YYYZ=              0.0019 ZZZX=             -0.0000
 ZZZY=              0.0007 XXYY=            -69.2390 XXZZ=            -44.4383 YYZZ=            -42.9190
 XXYZ=              0.0019 YYXZ=              0.0010 ZZXY=              0.4488
 N-N= 1.482582244787D+02 E-N=-8.584976460246D+02  KE= 2.382137627746D+02
 Calling FoFJK, ICntrl=      2127 FMM=F ISym2X=0 I1Cent= 0 IOpClX= 0 NMat=1 NMatS=1 NMatT=0.
 ***** Axes restored to original set *****
 -------------------------------------------------------------------
 Center     Atomic                   Forces (Hartrees/Bohr)
 Number     Number              X              Y              Z
 -------------------------------------------------------------------
      1        7           0.086053621    0.024439604    0.000112206
      2        7           0.041034351    0.091581678   -0.000019264
      3        6          -0.045602023    0.046601928    0.000003419
      4        6          -0.072613061   -0.075097878    0.000050272
      5        7           0.029103456   -0.145185271   -0.000104476
      6        1          -0.034681426    0.015908290   -0.000013227
      7        1          -0.033716484   -0.018859396   -0.000020532
      8        1           0.030421566    0.060611045   -0.000008399
 -------------------------------------------------------------------
 Cartesian Forces:  Max     0.145185271 RMS     0.051116900

 GradGradGradGradGradGradGradGradGradGradGradGradGradGradGradGradGradGrad
 Berny optimization.
 FormGI is forming the generalized inverse of G from B-inverse, IUseBI=4.
 Internal  Forces:  Max     0.129125267 RMS     0.047712078
 Search for a local minimum.
 Step number   1 out of a maximum of   42
 All quantities printed in internal units (Hartrees-Bohrs-Radians)
 Mixed Optimization -- RFO/linear search
 Second derivative matrix not updated -- first step.
 ITU=  0
     Eigenvalues ---    0.00250   0.00273   0.00330   0.00338   0.00367
     Eigenvalues ---    0.16000   0.16000   0.16000   0.22156   0.23876
     Eigenvalues ---    0.29012   0.29618   0.29623   0.30478   0.31562
     Eigenvalues ---    0.32600   0.32651   0.33181
 RFO step:  Lambda=-1.55743697D-01 EMin= 2.49521428D-03
 Linear search not attempted -- first point.
 Maximum step size (   0.300) exceeded in Quadratic search.
    -- Step size scaled by   0.519
 Iteration  1 RMS(Cart)=  0.06682287 RMS(Int)=  0.00067423
 Iteration  2 RMS(Cart)=  0.00071616 RMS(Int)=  0.00001801
 Iteration  3 RMS(Cart)=  0.00000041 RMS(Int)=  0.00001801
 Variable       Old X    -DE/DX   Delta X   Delta X   Delta X     New X
                                 (Linear)    (Quad)   (Total)
    R1        2.81577  -0.09103   0.00000  -0.09732  -0.09732   2.71845
    R2        2.81599  -0.12913   0.00000  -0.13751  -0.13749   2.67850
    R3        2.84638  -0.11227   0.00000  -0.12295  -0.12297   2.72341
    R4        2.09760  -0.06781   0.00000  -0.07304  -0.07304   2.02456
    R5        2.88699  -0.12326   0.00000  -0.14032  -0.14034   2.74665
    R6        2.15433  -0.03739   0.00000  -0.04293  -0.04293   2.11140
    R7        2.84636  -0.09297   0.00000  -0.10147  -0.10146   2.74490
    R8        2.15422  -0.03839   0.00000  -0.04407  -0.04407   2.11015
    A1        1.95316  -0.03151   0.00000  -0.04347  -0.04345   1.90972
    A2        1.84716   0.03306   0.00000   0.04452   0.04448   1.89164
    A3        2.09783  -0.01575   0.00000  -0.02097  -0.02096   2.07687
    A4        2.33819  -0.01731   0.00000  -0.02354  -0.02352   2.31467
    A5        1.88865  -0.02391   0.00000  -0.03154  -0.03159   1.85706
    A6        2.19725   0.00375   0.00000   0.00228   0.00230   2.19956
    A7        2.19728   0.02017   0.00000   0.02926   0.02929   2.22656
    A8        1.88875   0.00739   0.00000   0.01207   0.01207   1.90082
    A9        2.19714   0.00094   0.00000   0.00158   0.00159   2.19873
   A10        2.19729  -0.00833   0.00000  -0.01366  -0.01365   2.18364
   A11        1.84705   0.01497   0.00000   0.01843   0.01849   1.86554
    D1       -0.00046   0.00002   0.00000   0.00007   0.00007  -0.00039
    D2        3.14118   0.00002   0.00000   0.00006   0.00005   3.14124
    D3        0.00057  -0.00003   0.00000  -0.00010  -0.00010   0.00048
    D4        0.00015  -0.00000   0.00000  -0.00002  -0.00002   0.00013
    D5       -3.14159  -0.00000   0.00000  -0.00001  -0.00001   3.14159
    D6       -3.14149   0.00000   0.00000  -0.00000  -0.00000  -3.14149
    D7       -0.00005   0.00000   0.00000   0.00001   0.00001  -0.00004
    D8        0.00019  -0.00001   0.00000  -0.00003  -0.00003   0.00016
    D9        3.14123   0.00000   0.00000   0.00002   0.00002   3.14125
   D10       -3.14126  -0.00001   0.00000  -0.00003  -0.00004  -3.14129
   D11       -0.00022   0.00000   0.00000   0.00001   0.00001  -0.00020
   D12       -0.00045   0.00001   0.00000   0.00006   0.00006  -0.00039
   D13       -3.14149  -0.00000   0.00000   0.00000   0.00000  -3.14149
         Item               Value     Threshold  Converged?
 Maximum Force            0.129125     0.000450     NO 
 RMS     Force            0.047712     0.000300     NO 
 Maximum Displacement     0.180084     0.001800     NO 
 RMS     Displacement     0.066744     0.001200     NO 
 Predicted change in Energy=-6.685439D-02
 GradGradGradGradGradGradGradGradGradGradGradGradGradGradGradGradGradGrad

                          Input orientation:                          
 ---------------------------------------------------------------------
 Center     Atomic      Atomic             Coordinates (Angstroms)
 Number     Number       Type             X           Y           Z
 ---------------------------------------------------------------------
      1          7           0       -3.238662    0.576937   -0.000147
      2          7           0       -2.408181   -0.597669    0.000165
      3          6           0       -1.029096   -0.179240    0.000397
      4          6           0       -1.041183    1.274177    0.000403
      5          7           0       -2.419204    1.733449    0.000396
      6          1           0       -0.137908   -0.853148    0.000666
      7          1           0       -0.143035    1.937666    0.000867
      8          1           0       -2.873497   -1.562694    0.000161
 ---------------------------------------------------------------------
                    Distance matrix (angstroms):
                    1          2          3          4          5
     1  N    0.000000
     2  N    1.438541   0.000000
     3  C    2.335377   1.441166   0.000000
     4  C    2.305441   2.317864   1.453467   0.000000
     5  N    1.417403   2.331144   2.364482   1.452540   0.000000
     6  H    3.414648   2.284603   1.117304   2.311150   3.448883
     7  H    3.381493   3.399826   2.294863   1.116641   2.285312
     8  H    2.170568   1.071350   2.305593   3.377160   3.327302
                    6          7          8
     6  H    0.000000
     7  H    2.790819   0.000000
     8  H    2.826111   4.439363   0.000000
 Stoichiometry    C2H3N3
 Framework group  C1[X(C2H3N3)]
 Deg. of freedom    18
 Full point group                 C1      NOp   1
 Largest Abelian subgroup         C1      NOp   1
 Largest concise Abelian subgroup C1      NOp   1
                         Standard orientation:                         
 ---------------------------------------------------------------------
 Center     Atomic      Atomic             Coordinates (Angstroms)
 Number     Number       Type             X           Y           Z
 ---------------------------------------------------------------------
      1          7           0        0.529688   -1.121004   -0.000145
      2          7           0        1.160146    0.172024    0.000059
      3          6           0        0.130052    1.179925   -0.000033
      4          6           0       -1.138439    0.470351   -0.000112
      5          7           0       -0.878394   -0.958722    0.000151
      6          1           0        0.292321    2.285383    0.000085
      7          1           0       -2.152101    0.938730    0.000118
      8          1           0        2.230025    0.228151    0.000213
 ---------------------------------------------------------------------
 Rotational constants (GHZ):           9.0155110           8.5194078           4.3802208
 Standard basis: 6-31+G(d,p) (6D, 7F)
 There are   110 symmetry adapted cartesian basis functions of A   symmetry.
 There are   110 symmetry adapted basis functions of A   symmetry.
   110 basis functions,   181 primitive gaussians,   110 cartesian basis functions
    18 alpha electrons       18 beta electrons
       nuclear repulsion energy       154.5368225936 Hartrees.
 NAtoms=    8 NActive=    8 NUniq=    8 SFac= 1.00D+00 NAtFMM=   60 NAOKFM=F Big=F
 Integral buffers will be    131072 words long.
 Raffenetti 2 integral format.
 Two-electron integral symmetry is turned on.
 One-electron integrals computed using PRISM.
 NBasis=   110 RedAO= T EigKep=  1.08D-04  NBF=   110
 NBsUse=   110 1.00D-06 EigRej= -1.00D+00 NBFU=   110
 Initial guess from the checkpoint file:  "/scratch/gongke2021/1-H-Tz/Gau-30698.chk"
 B after Tr=    -0.000000    0.000000   -0.000000
         Rot=    0.999692    0.000001    0.000000   -0.024820 Ang=   2.84 deg.
 ExpMin= 4.38D-02 ExpMax= 4.17D+03 ExpMxC= 6.27D+02 IAcc=2 IRadAn=         4 AccDes= 0.00D+00
 Harris functional with IExCor= 1009 and IRadAn=       4 diagonalized for initial guess.
 HarFok:  IExCor= 1009 AccDes= 0.00D+00 IRadAn=         4 IDoV= 1 UseB2=F ITyADJ=14
 ICtDFT=  3500011 ScaDFX=  1.000000  1.000000  1.000000  1.000000
 FoFCou: FMM=F IPFlag=           0 FMFlag=      100000 FMFlg1=           0
         NFxFlg=           0 DoJE=T BraDBF=F KetDBF=T FulRan=T
         wScrn=  0.000000 ICntrl=       500 IOpCl=  0 I1Cent=   200000004 NGrid=           0
         NMat0=    1 NMatS0=      1 NMatT0=    0 NMatD0=    1 NMtDS0=    0 NMtDT0=    0
 Petite list used in FoFCou.
 Keep R1 ints in memory in canonical form, NReq=37326157.
 Requested convergence on RMS density matrix=1.00D-08 within 128 cycles.
 Requested convergence on MAX density matrix=1.00D-06.
 Requested convergence on             energy=1.00D-06.
 No special actions if energy rises.
 SCF Done:  E(RM062X) =  -242.089366215     A.U. after   13 cycles
            NFock= 13  Conv=0.34D-08     -V/T= 2.0136
 Calling FoFJK, ICntrl=      2127 FMM=F ISym2X=0 I1Cent= 0 IOpClX= 0 NMat=1 NMatS=1 NMatT=0.
 ***** Axes restored to original set *****
 -------------------------------------------------------------------
 Center     Atomic                   Forces (Hartrees/Bohr)
 Number     Number              X              Y              Z
 -------------------------------------------------------------------
      1        7           0.077674349    0.022616310    0.000097679
      2        7           0.022101985    0.064878663   -0.000022155
      3        6          -0.036088735    0.030365383    0.000002760
      4        6          -0.051076652   -0.047258144    0.000046069
      5        7           0.013708137   -0.111634483   -0.000089913
      6        1          -0.024311081    0.009929244   -0.000010051
      7        1          -0.023651078   -0.010970157   -0.000016742
      8        1           0.021643076    0.042073184   -0.000007648
 -------------------------------------------------------------------
 Cartesian Forces:  Max     0.111634483 RMS     0.037951314

 GradGradGradGradGradGradGradGradGradGradGradGradGradGradGradGradGradGrad
 Berny optimization.
 Using GEDIIS/GDIIS optimizer.
 FormGI is forming the generalized inverse of G from B-inverse, IUseBI=4.
 Internal  Forces:  Max     0.101976095 RMS     0.034402195
 Search for a local minimum.
 Step number   2 out of a maximum of   42
 All quantities printed in internal units (Hartrees-Bohrs-Radians)
 Mixed Optimization -- RFO/linear search
 Update second derivatives using D2CorX and points    1    2
 DE= -7.02D-02 DEPred=-6.69D-02 R= 1.05D+00
 TightC=F SS=  1.41D+00  RLast= 3.00D-01 DXNew= 5.0454D-01 9.0000D-01
 Trust test= 1.05D+00 RLast= 3.00D-01 DXMaxT set to 5.05D-01
 ITU=  1  0
 Use linear search instead of GDIIS.
     Eigenvalues ---    0.00250   0.00273   0.00330   0.00338   0.00368
     Eigenvalues ---    0.15808   0.16000   0.16006   0.22246   0.23476
     Eigenvalues ---    0.24170   0.29577   0.29621   0.30246   0.31186
     Eigenvalues ---    0.32227   0.33064   0.33973
 RFO step:  Lambda=-7.13827883D-03 EMin= 2.50319220D-03
 Quartic linear search produced a step of  1.52164.
 Iteration  1 RMS(Cart)=  0.09626692 RMS(Int)=  0.01769007
 Iteration  2 RMS(Cart)=  0.01416318 RMS(Int)=  0.00048096
 Iteration  3 RMS(Cart)=  0.00006059 RMS(Int)=  0.00047721
 Iteration  4 RMS(Cart)=  0.00000002 RMS(Int)=  0.00047721
 Variable       Old X    -DE/DX   Delta X   Delta X   Delta X     New X
                                 (Linear)    (Quad)   (Total)
    R1        2.71845  -0.06987  -0.14809  -0.05112  -0.19880   2.51965
    R2        2.67850  -0.10198  -0.20920  -0.09482  -0.30326   2.37524
    R3        2.72341  -0.07947  -0.18712  -0.00758  -0.19518   2.52823
    R4        2.02456  -0.04730  -0.11114  -0.00139  -0.11253   1.91202
    R5        2.74665  -0.08069  -0.21354   0.05115  -0.16311   2.58355
    R6        2.11140  -0.02538  -0.06532   0.00734  -0.05798   2.05342
    R7        2.74490  -0.06820  -0.15438  -0.02712  -0.18142   2.56349
    R8        2.11015  -0.02554  -0.06706   0.01185  -0.05522   2.05493
    A1        1.90972  -0.01591  -0.06611   0.06312  -0.00168   1.90804
    A2        1.89164   0.01979   0.06769  -0.04305   0.02440   1.91604
    A3        2.07687  -0.00866  -0.03189   0.03127  -0.00050   2.07638
    A4        2.31467  -0.01113  -0.03580   0.01177  -0.02390   2.29077
    A5        1.85706  -0.01717  -0.04807   0.01044  -0.03889   1.81817
    A6        2.19956   0.00147   0.00350  -0.01893  -0.01479   2.18477
    A7        2.22656   0.01570   0.04456   0.00849   0.05368   2.28025
    A8        1.90082   0.00196   0.01836  -0.03389  -0.01624   1.88458
    A9        2.19873   0.00454   0.00241   0.04726   0.05003   2.24876
   A10        2.18364  -0.00650  -0.02078  -0.01337  -0.03379   2.14985
   A11        1.86554   0.01132   0.02813   0.00337   0.03241   1.89795
    D1       -0.00039   0.00002   0.00011   0.00037   0.00047   0.00009
    D2        3.14124   0.00002   0.00008   0.00023   0.00032   3.14155
    D3        0.00048  -0.00003  -0.00015  -0.00042  -0.00056  -0.00008
    D4        0.00013  -0.00001  -0.00003  -0.00016  -0.00018  -0.00005
    D5        3.14159  -0.00000  -0.00002  -0.00004  -0.00005   3.14154
    D6       -3.14149  -0.00000  -0.00000  -0.00000  -0.00000  -3.14150
    D7       -0.00004   0.00000   0.00001   0.00012   0.00013   0.00009
    D8        0.00016  -0.00001  -0.00005  -0.00012  -0.00016   0.00000
    D9        3.14125   0.00001   0.00003   0.00031   0.00035  -3.14158
   D10       -3.14129  -0.00001  -0.00005  -0.00024  -0.00029  -3.14158
   D11       -0.00020   0.00000   0.00002   0.00019   0.00022   0.00001
   D12       -0.00039   0.00002   0.00009   0.00035   0.00044   0.00005
   D13       -3.14149  -0.00000   0.00001  -0.00010  -0.00006  -3.14155
         Item               Value     Threshold  Converged?
 Maximum Force            0.101976     0.000450     NO 
 RMS     Force            0.034402     0.000300     NO 
 Maximum Displacement     0.263575     0.001800     NO 
 RMS     Displacement     0.104790     0.001200     NO 
 Predicted change in Energy=-6.715734D-02
 GradGradGradGradGradGradGradGradGradGradGradGradGradGradGradGradGradGrad

                          Input orientation:                          
 ---------------------------------------------------------------------
 Center     Atomic      Atomic             Coordinates (Angstroms)
 Number     Number       Type             X           Y           Z
 ---------------------------------------------------------------------
      1          7           0       -3.119318    0.578059    0.000070
      2          7           0       -2.354260   -0.513952    0.000142
      3          6           0       -1.063391   -0.162412    0.000471
      4          6           0       -1.088689    1.204509    0.000525
      5          7           0       -2.386520    1.599267    0.000232
      6          1           0       -0.225992   -0.854881    0.000649
      7          1           0       -0.254514    1.902104    0.000751
      8          1           0       -2.798082   -1.423216    0.000066
 ---------------------------------------------------------------------
                    Distance matrix (angstroms):
                    1          2          3          4          5
     1  N    0.000000
     2  N    1.333342   0.000000
     3  C    2.185208   1.337880   0.000000
     4  C    2.125064   2.134193   1.367155   0.000000
     5  N    1.256925   2.113465   2.203221   1.356539   0.000000
     6  H    3.228723   2.155402   1.086624   2.232786   3.269667
     7  H    3.155978   3.200978   2.217320   1.087422   2.153406
     8  H    2.026892   1.011799   2.144476   3.134798   3.050374
                    6          7          8
     6  H    0.000000
     7  H    2.757133   0.000000
     8  H    2.634131   4.186584   0.000000
 Stoichiometry    C2H3N3
 Framework group  C1[X(C2H3N3)]
 Deg. of freedom    18
 Full point group                 C1      NOp   1
 Largest Abelian subgroup         C1      NOp   1
 Largest concise Abelian subgroup C1      NOp   1
                         Standard orientation:                         
 ---------------------------------------------------------------------
 Center     Atomic      Atomic             Coordinates (Angstroms)
 Number     Number       Type             X           Y           Z
 ---------------------------------------------------------------------
      1          7           0        0.408822   -1.069386    0.000025
      2          7           0        1.065088    0.091268   -0.000026
      3          6           0        0.192059    1.105045    0.000003
      4          6           0       -1.030812    0.493736    0.000005
      5          7           0       -0.828384   -0.847615   -0.000017
      6          1           0        0.456561    2.158985    0.000024
      7          1           0       -2.019573    0.946327    0.000017
      8          1           0        2.076846    0.082130    0.000035
 ---------------------------------------------------------------------
 Rotational constants (GHZ):          10.3775319          10.0624383           5.1087782
 Standard basis: 6-31+G(d,p) (6D, 7F)
 There are   110 symmetry adapted cartesian basis functions of A   symmetry.
 There are   110 symmetry adapted basis functions of A   symmetry.
   110 basis functions,   181 primitive gaussians,   110 cartesian basis functions
    18 alpha electrons       18 beta electrons
       nuclear repulsion energy       166.8685436826 Hartrees.
 NAtoms=    8 NActive=    8 NUniq=    8 SFac= 1.00D+00 NAtFMM=   60 NAOKFM=F Big=F
 Integral buffers will be    131072 words long.
 Raffenetti 2 integral format.
 Two-electron integral symmetry is turned on.
 One-electron integrals computed using PRISM.
 NBasis=   110 RedAO= T EigKep=  7.21D-05  NBF=   110
 NBsUse=   110 1.00D-06 EigRej= -1.00D+00 NBFU=   110
 Initial guess from the checkpoint file:  "/scratch/gongke2021/1-H-Tz/Gau-30698.chk"
 B after Tr=     0.000000   -0.000000    0.000000
         Rot=    0.999598   -0.000000   -0.000001    0.028338 Ang=  -3.25 deg.
 ExpMin= 4.38D-02 ExpMax= 4.17D+03 ExpMxC= 6.27D+02 IAcc=2 IRadAn=         4 AccDes= 0.00D+00
 Harris functional with IExCor= 1009 and IRadAn=       4 diagonalized for initial guess.
 HarFok:  IExCor= 1009 AccDes= 0.00D+00 IRadAn=         4 IDoV= 1 UseB2=F ITyADJ=14
 ICtDFT=  3500011 ScaDFX=  1.000000  1.000000  1.000000  1.000000
 FoFCou: FMM=F IPFlag=           0 FMFlag=      100000 FMFlg1=           0
         NFxFlg=           0 DoJE=T BraDBF=F KetDBF=T FulRan=T
         wScrn=  0.000000 ICntrl=       500 IOpCl=  0 I1Cent=   200000004 NGrid=           0
         NMat0=    1 NMatS0=      1 NMatT0=    0 NMatD0=    1 NMtDS0=    0 NMtDT0=    0
 Petite list used in FoFCou.
 Keep R1 ints in memory in canonical form, NReq=37326157.
 Requested convergence on RMS density matrix=1.00D-08 within 128 cycles.
 Requested convergence on MAX density matrix=1.00D-06.
 Requested convergence on             energy=1.00D-06.
 No special actions if energy rises.
 SCF Done:  E(RM062X) =  -242.136619444     A.U. after   14 cycles
            NFock= 14  Conv=0.23D-08     -V/T= 2.0076
 Calling FoFJK, ICntrl=      2127 FMM=F ISym2X=0 I1Cent= 0 IOpClX= 0 NMat=1 NMatS=1 NMatT=0.
 ***** Axes restored to original set *****
 -------------------------------------------------------------------
 Center     Atomic                   Forces (Hartrees/Bohr)
 Number     Number              X              Y              Z
 -------------------------------------------------------------------
      1        7          -0.044479220   -0.024945518   -0.000022434
      2        7          -0.006293377   -0.003225116    0.000008148
      3        6           0.026649319   -0.007450902    0.000004469
      4        6           0.016118427    0.006352536    0.000000416
      5        7           0.018271722    0.028505908    0.000014301
      6        1          -0.006719812    0.001536261   -0.000002570
      7        1          -0.006120657   -0.003132381   -0.000002394
      8        1           0.002573599    0.002359211    0.000000062
 -------------------------------------------------------------------
 Cartesian Forces:  Max     0.044479220 RMS     0.014390349

 GradGradGradGradGradGradGradGradGradGradGradGradGradGradGradGradGradGrad
 Berny optimization.
 Using GEDIIS/GDIIS optimizer.
 FormGI is forming the generalized inverse of G from B-inverse, IUseBI=4.
 Internal  Forces:  Max     0.038235343 RMS     0.008998730
 Search for a local minimum.
 Step number   3 out of a maximum of   42
 All quantities printed in internal units (Hartrees-Bohrs-Radians)
 Mixed Optimization -- RFO/linear search
 Update second derivatives using D2CorX and points    2    3
 DE= -4.73D-02 DEPred=-6.72D-02 R= 7.04D-01
 TightC=F SS=  1.41D+00  RLast= 5.09D-01 DXNew= 8.4853D-01 1.5265D+00
 Trust test= 7.04D-01 RLast= 5.09D-01 DXMaxT set to 8.49D-01
 ITU=  1  1  0
 Use linear search instead of GDIIS.
     Eigenvalues ---    0.00250   0.00273   0.00328   0.00340   0.00371
     Eigenvalues ---    0.15884   0.16001   0.16009   0.22539   0.23991
     Eigenvalues ---    0.29181   0.29620   0.29953   0.30917   0.31817
     Eigenvalues ---    0.32862   0.33396   0.47141
 RFO step:  Lambda=-4.17619152D-03 EMin= 2.50215232D-03
 Quartic linear search produced a step of -0.11390.
 Iteration  1 RMS(Cart)=  0.01949120 RMS(Int)=  0.00039215
 Iteration  2 RMS(Cart)=  0.00039740 RMS(Int)=  0.00014454
 Iteration  3 RMS(Cart)=  0.00000007 RMS(Int)=  0.00014454
 Variable       Old X    -DE/DX   Delta X   Delta X   Delta X     New X
                                 (Linear)    (Quad)   (Total)
    R1        2.51965   0.00949   0.02264  -0.01257   0.01031   2.52996
    R2        2.37524   0.03824   0.03454   0.04486   0.07941   2.45465
    R3        2.52823   0.01810   0.02223   0.00916   0.03154   2.55976
    R4        1.91202  -0.00325   0.01282  -0.03105  -0.01823   1.89379
    R5        2.58355   0.00578   0.01858  -0.02019  -0.00177   2.58178
    R6        2.05342  -0.00616   0.00660  -0.03063  -0.02403   2.02939
    R7        2.56349   0.01139   0.02066  -0.00349   0.01694   2.58043
    R8        2.05493  -0.00671   0.00629  -0.03182  -0.02553   2.02940
    A1        1.90804  -0.01587   0.00019  -0.05741  -0.05690   1.85114
    A2        1.91604   0.01000  -0.00278   0.04521   0.04275   1.95879
    A3        2.07638  -0.00378   0.00006  -0.01316  -0.01326   2.06312
    A4        2.29077  -0.00623   0.00272  -0.03205  -0.02949   2.26128
    A5        1.81817   0.00014   0.00443  -0.01463  -0.01022   1.80795
    A6        2.18477  -0.00325   0.00168  -0.01945  -0.01776   2.16700
    A7        2.28025   0.00311  -0.00611   0.03409   0.02798   2.30823
    A8        1.88458   0.00084   0.00185  -0.00029   0.00122   1.88580
    A9        2.24876   0.00115  -0.00570   0.01918   0.01365   2.26241
   A10        2.14985  -0.00199   0.00385  -0.01889  -0.01487   2.13498
   A11        1.89795   0.00490  -0.00369   0.02712   0.02315   1.92109
    D1        0.00009  -0.00001  -0.00005   0.00098   0.00091   0.00100
    D2        3.14155  -0.00000  -0.00004   0.00090   0.00085  -3.14079
    D3       -0.00008   0.00001   0.00006  -0.00125  -0.00117  -0.00125
    D4       -0.00005   0.00000   0.00002  -0.00028  -0.00028  -0.00033
    D5        3.14154   0.00000   0.00001   0.00012   0.00011  -3.14154
    D6       -3.14150  -0.00000   0.00000  -0.00020  -0.00021   3.14148
    D7        0.00009  -0.00000  -0.00001   0.00020   0.00018   0.00027
    D8        0.00000  -0.00000   0.00002  -0.00045  -0.00044  -0.00044
    D9       -3.14158  -0.00000  -0.00004   0.00100   0.00097  -3.14061
   D10       -3.14158  -0.00000   0.00003  -0.00088  -0.00087   3.14073
   D11        0.00001  -0.00000  -0.00002   0.00057   0.00054   0.00056
   D12        0.00005  -0.00000  -0.00005   0.00108   0.00104   0.00109
   D13       -3.14155  -0.00000   0.00001  -0.00027  -0.00025   3.14139
         Item               Value     Threshold  Converged?
 Maximum Force            0.038235     0.000450     NO 
 RMS     Force            0.008999     0.000300     NO 
 Maximum Displacement     0.078537     0.001800     NO 
 RMS     Displacement     0.019513     0.001200     NO 
 Predicted change in Energy=-3.328239D-03
 GradGradGradGradGradGradGradGradGradGradGradGradGradGradGradGradGradGrad

                          Input orientation:                          
 ---------------------------------------------------------------------
 Center     Atomic      Atomic             Coordinates (Angstroms)
 Number     Number       Type             X           Y           Z
 ---------------------------------------------------------------------
      1          7           0       -3.160878    0.565921    0.000403
      2          7           0       -2.356997   -0.504666    0.000156
      3          6           0       -1.046597   -0.161583    0.000714
      4          6           0       -1.072431    1.204392    0.000894
      5          7           0       -2.378515    1.602822   -0.000125
      6          1           0       -0.238180   -0.868508    0.000591
      7          1           0       -0.258387    1.904832    0.000496
      8          1           0       -2.778781   -1.413733   -0.000222
 ---------------------------------------------------------------------
                    Distance matrix (angstroms):
                    1          2          3          4          5
     1  N    0.000000
     2  N    1.338798   0.000000
     3  C    2.235944   1.354569   0.000000
     4  C    2.183863   2.137988   1.366219   0.000000
     5  N    1.298944   2.107598   2.210686   1.365505   0.000000
     6  H    3.255726   2.149830   1.073910   2.234478   3.269329
     7  H    3.196426   3.195285   2.211639   1.073911   2.141530
     8  H    2.016192   1.002150   2.137368   3.125093   3.042995
                    6          7          8
     6  H    0.000000
     7  H    2.773414   0.000000
     8  H    2.598446   4.167164   0.000000
 Stoichiometry    C2H3N3
 Framework group  C1[X(C2H3N3)]
 Deg. of freedom    18
 Full point group                 C1      NOp   1
 Largest Abelian subgroup         C1      NOp   1
 Largest concise Abelian subgroup C1      NOp   1
                         Standard orientation:                         
 ---------------------------------------------------------------------
 Center     Atomic      Atomic             Coordinates (Angstroms)
 Number     Number       Type             X           Y           Z
 ---------------------------------------------------------------------
      1          7           0        0.766511   -0.902338    0.000339
      2          7           0        0.974178    0.420256   -0.000143
      3          6           0       -0.185036    1.121027    0.000078
      4          6           0       -1.146739    0.150625    0.000295
      5          7           0       -0.522363   -1.063771   -0.000372
      6          1           0       -0.241355    2.193459   -0.000273
      7          1           0       -2.216373    0.246375   -0.000301
      8          1           0        1.920097    0.751224   -0.000430
 ---------------------------------------------------------------------
 Rotational constants (GHZ):          10.1115460           9.9728413           5.0208579
 Standard basis: 6-31+G(d,p) (6D, 7F)
 There are   110 symmetry adapted cartesian basis functions of A   symmetry.
 There are   110 symmetry adapted basis functions of A   symmetry.
   110 basis functions,   181 primitive gaussians,   110 cartesian basis functions
    18 alpha electrons       18 beta electrons
       nuclear repulsion energy       165.4123985055 Hartrees.
 NAtoms=    8 NActive=    8 NUniq=    8 SFac= 1.00D+00 NAtFMM=   60 NAOKFM=F Big=F
 Integral buffers will be    131072 words long.
 Raffenetti 2 integral format.
 Two-electron integral symmetry is turned on.
 One-electron integrals computed using PRISM.
 NBasis=   110 RedAO= T EigKep=  7.46D-05  NBF=   110
 NBsUse=   110 1.00D-06 EigRej= -1.00D+00 NBFU=   110
 Initial guess from the checkpoint file:  "/scratch/gongke2021/1-H-Tz/Gau-30698.chk"
 B after Tr=     0.000000   -0.000000   -0.000000
         Rot=    0.986742   -0.000001   -0.000002   -0.162295 Ang= -18.68 deg.
 ExpMin= 4.38D-02 ExpMax= 4.17D+03 ExpMxC= 6.27D+02 IAcc=2 IRadAn=         4 AccDes= 0.00D+00
 Harris functional with IExCor= 1009 and IRadAn=       4 diagonalized for initial guess.
 HarFok:  IExCor= 1009 AccDes= 0.00D+00 IRadAn=         4 IDoV= 1 UseB2=F ITyADJ=14
 ICtDFT=  3500011 ScaDFX=  1.000000  1.000000  1.000000  1.000000
 FoFCou: FMM=F IPFlag=           0 FMFlag=      100000 FMFlg1=           0
         NFxFlg=           0 DoJE=T BraDBF=F KetDBF=T FulRan=T
         wScrn=  0.000000 ICntrl=       500 IOpCl=  0 I1Cent=   200000004 NGrid=           0
         NMat0=    1 NMatS0=      1 NMatT0=    0 NMatD0=    1 NMtDS0=    0 NMtDT0=    0
 Petite list used in FoFCou.
 Keep R1 ints in memory in canonical form, NReq=37326157.
 Requested convergence on RMS density matrix=1.00D-08 within 128 cycles.
 Requested convergence on MAX density matrix=1.00D-06.
 Requested convergence on             energy=1.00D-06.
 No special actions if energy rises.
 SCF Done:  E(RM062X) =  -242.138582930     A.U. after   12 cycles
            NFock= 12  Conv=0.50D-08     -V/T= 2.0082
 Calling FoFJK, ICntrl=      2127 FMM=F ISym2X=0 I1Cent= 0 IOpClX= 0 NMat=1 NMatS=1 NMatT=0.
 ***** Axes restored to original set *****
 -------------------------------------------------------------------
 Center     Atomic                   Forces (Hartrees/Bohr)
 Number     Number              X              Y              Z
 -------------------------------------------------------------------
      1        7           0.016799466    0.005056693   -0.000182005
      2        7           0.000230614    0.000989704    0.000088950
      3        6          -0.003024866   -0.003766017   -0.000014552
      4        6          -0.009789464    0.001382023   -0.000143045
      5        7          -0.004953558    0.004229363    0.000198229
      6        1           0.000634421   -0.003659065    0.000011189
      7        1           0.001342406    0.002853332    0.000020789
      8        1          -0.001239019   -0.007086033    0.000020445
 -------------------------------------------------------------------
 Cartesian Forces:  Max     0.016799466 RMS     0.004778032

 GradGradGradGradGradGradGradGradGradGradGradGradGradGradGradGradGradGrad
 Berny optimization.
 Using GEDIIS/GDIIS optimizer.
 FormGI is forming the generalized inverse of G from B-inverse, IUseBI=4.
 Internal  Forces:  Max     0.011248912 RMS     0.003943825
 Search for a local minimum.
 Step number   4 out of a maximum of   42
 All quantities printed in internal units (Hartrees-Bohrs-Radians)
 Mixed Optimization -- RFO/linear search
 Update second derivatives using D2CorX and points    2    3    4
 DE= -1.96D-03 DEPred=-3.33D-03 R= 5.90D-01
 TightC=F SS=  1.41D+00  RLast= 1.32D-01 DXNew= 1.4270D+00 3.9712D-01
 Trust test= 5.90D-01 RLast= 1.32D-01 DXMaxT set to 8.49D-01
 ITU=  1  1  1  0
 Use linear search instead of GDIIS.
     Eigenvalues ---    0.00251   0.00272   0.00327   0.00341   0.00372
     Eigenvalues ---    0.14002   0.16006   0.16009   0.21892   0.25873
     Eigenvalues ---    0.28494   0.29620   0.30045   0.31405   0.31773
     Eigenvalues ---    0.32718   0.42624   0.59899
 RFO step:  Lambda=-6.07290234D-04 EMin= 2.51486903D-03
 Quartic linear search produced a step of -0.26000.
 Iteration  1 RMS(Cart)=  0.01167906 RMS(Int)=  0.00011744
 Iteration  2 RMS(Cart)=  0.00008372 RMS(Int)=  0.00006806
 Iteration  3 RMS(Cart)=  0.00000000 RMS(Int)=  0.00006806
 Variable       Old X    -DE/DX   Delta X   Delta X   Delta X     New X
                                 (Linear)    (Quad)   (Total)
    R1        2.52996  -0.00021  -0.00268   0.00530   0.00256   2.53252
    R2        2.45465  -0.00615  -0.02065   0.01598  -0.00469   2.44996
    R3        2.55976  -0.00533  -0.00820  -0.00042  -0.00863   2.55113
    R4        1.89379   0.00695   0.00474   0.00934   0.01408   1.90787
    R5        2.58178   0.00871   0.00046   0.01856   0.01907   2.60085
    R6        2.02939   0.00289   0.00625  -0.00087   0.00537   2.03477
    R7        2.58043  -0.00350  -0.00441  -0.00145  -0.00581   2.57462
    R8        2.02940   0.00288   0.00664  -0.00155   0.00509   2.03449
    A1        1.85114   0.01125   0.01479   0.01134   0.02598   1.87712
    A2        1.95879  -0.00548  -0.01112  -0.00124  -0.01246   1.94633
    A3        2.06312   0.00450   0.00345   0.01009   0.01358   2.07670
    A4        2.26128   0.00098   0.00767  -0.00884  -0.00113   2.26014
    A5        1.80795  -0.00135   0.00266  -0.00633  -0.00368   1.80428
    A6        2.16700  -0.00170   0.00462  -0.01285  -0.00823   2.15877
    A7        2.30823   0.00305  -0.00728   0.01918   0.01190   2.32013
    A8        1.88580   0.00358  -0.00032   0.01285   0.01256   1.89836
    A9        2.26241  -0.00048  -0.00355   0.00160  -0.00200   2.26041
   A10        2.13498  -0.00310   0.00387  -0.01443  -0.01062   2.12435
   A11        1.92109  -0.00799  -0.00602  -0.01659  -0.02263   1.89847
    D1        0.00100  -0.00007  -0.00024  -0.01816  -0.01854  -0.01755
    D2       -3.14079  -0.00005  -0.00022  -0.01263  -0.01295   3.12945
    D3       -0.00125   0.00009   0.00030   0.02151   0.02183   0.02057
    D4       -0.00033   0.00003   0.00007   0.00731   0.00729   0.00696
    D5       -3.14154   0.00001  -0.00003   0.00429   0.00427  -3.13727
    D6        3.14148   0.00000   0.00005   0.00099   0.00094  -3.14076
    D7        0.00027  -0.00001  -0.00005  -0.00204  -0.00207  -0.00181
    D8       -0.00044   0.00003   0.00011   0.00594   0.00612   0.00568
    D9       -3.14061  -0.00003  -0.00025  -0.00758  -0.00776   3.13481
   D10        3.14073   0.00004   0.00023   0.00931   0.00954  -3.13291
   D11        0.00056  -0.00002  -0.00014  -0.00421  -0.00434  -0.00378
   D12        0.00109  -0.00008  -0.00027  -0.01767  -0.01778  -0.01670
   D13        3.14139  -0.00002   0.00006  -0.00534  -0.00519   3.13620
         Item               Value     Threshold  Converged?
 Maximum Force            0.011249     0.000450     NO 
 RMS     Force            0.003944     0.000300     NO 
 Maximum Displacement     0.029228     0.001800     NO 
 RMS     Displacement     0.011675     0.001200     NO 
 Predicted change in Energy=-5.538696D-04
 GradGradGradGradGradGradGradGradGradGradGradGradGradGradGradGradGradGrad

                          Input orientation:                          
 ---------------------------------------------------------------------
 Center     Atomic      Atomic             Coordinates (Angstroms)
 Number     Number       Type             X           Y           Z
 ---------------------------------------------------------------------
      1          7           0       -3.145411    0.572291   -0.007097
      2          7           0       -2.353785   -0.509036    0.001208
      3          6           0       -1.047915   -0.166695   -0.001147
      4          6           0       -1.079437    1.209254   -0.002227
      5          7           0       -2.379095    1.617942    0.006831
      6          1           0       -0.242990   -0.881880    0.000524
      7          1           0       -0.264762    1.913077    0.001534
      8          1           0       -2.777372   -1.425475    0.003280
 ---------------------------------------------------------------------
                    Distance matrix (angstroms):
                    1          2          3          4          5
     1  N    0.000000
     2  N    1.340153   0.000000
     3  C    2.223877   1.350000   0.000000
     4  C    2.161942   2.139274   1.376311   0.000000
     5  N    1.296465   2.127136   2.226440   1.362431   0.000000
     6  H    3.246340   2.143471   1.076752   2.252219   3.288174
     7  H    3.177408   3.198538   2.222339   1.076605   2.134839
     8  H    2.031411   1.009600   2.139058   3.134455   3.069369
                    6          7          8
     6  H    0.000000
     7  H    2.795041   0.000000
     8  H    2.592026   4.178414   0.000000
 Stoichiometry    C2H3N3
 Framework group  C1[X(C2H3N3)]
 Deg. of freedom    18
 Full point group                 C1      NOp   1
 Largest Abelian subgroup         C1      NOp   1
 Largest concise Abelian subgroup C1      NOp   1
                         Standard orientation:                         
 ---------------------------------------------------------------------
 Center     Atomic      Atomic             Coordinates (Angstroms)
 Number     Number       Type             X           Y           Z
 ---------------------------------------------------------------------
      1          7           0        0.434688   -1.086931   -0.006231
      2          7           0        1.062796    0.096880    0.002736
      3          6           0        0.185465    1.122930   -0.000793
      4          6           0       -1.039139    0.494783   -0.003320
      5          7           0       -0.840447   -0.853049    0.006109
      6          1           0        0.478258    2.159107    0.001142
      7          1           0       -2.027698    0.921190   -0.000813
      8          1           0        2.072225    0.115130    0.006048
 ---------------------------------------------------------------------
 Rotational constants (GHZ):          10.1441506           9.9170873           5.0148008
 Standard basis: 6-31+G(d,p) (6D, 7F)
 There are   110 symmetry adapted cartesian basis functions of A   symmetry.
 There are   110 symmetry adapted basis functions of A   symmetry.
   110 basis functions,   181 primitive gaussians,   110 cartesian basis functions
    18 alpha electrons       18 beta electrons
       nuclear repulsion energy       165.3105084254 Hartrees.
 NAtoms=    8 NActive=    8 NUniq=    8 SFac= 1.00D+00 NAtFMM=   60 NAOKFM=F Big=F
 Integral buffers will be    131072 words long.
 Raffenetti 2 integral format.
 Two-electron integral symmetry is turned on.
 One-electron integrals computed using PRISM.
 NBasis=   110 RedAO= T EigKep=  7.65D-05  NBF=   110
 NBsUse=   110 1.00D-06 EigRej= -1.00D+00 NBFU=   110
 Initial guess from the checkpoint file:  "/scratch/gongke2021/1-H-Tz/Gau-30698.chk"
 B after Tr=    -0.000000    0.000000   -0.000000
         Rot=    0.987180   -0.000008   -0.000003    0.159610 Ang= -18.37 deg.
 ExpMin= 4.38D-02 ExpMax= 4.17D+03 ExpMxC= 6.27D+02 IAcc=2 IRadAn=         4 AccDes= 0.00D+00
 Harris functional with IExCor= 1009 and IRadAn=       4 diagonalized for initial guess.
 HarFok:  IExCor= 1009 AccDes= 0.00D+00 IRadAn=         4 IDoV= 1 UseB2=F ITyADJ=14
 ICtDFT=  3500011 ScaDFX=  1.000000  1.000000  1.000000  1.000000
 FoFCou: FMM=F IPFlag=           0 FMFlag=      100000 FMFlg1=           0
         NFxFlg=           0 DoJE=T BraDBF=F KetDBF=T FulRan=T
         wScrn=  0.000000 ICntrl=       500 IOpCl=  0 I1Cent=   200000004 NGrid=           0
         NMat0=    1 NMatS0=      1 NMatT0=    0 NMatD0=    1 NMtDS0=    0 NMtDT0=    0
 Petite list used in FoFCou.
 Keep R1 ints in memory in canonical form, NReq=37326157.
 Requested convergence on RMS density matrix=1.00D-08 within 128 cycles.
 Requested convergence on MAX density matrix=1.00D-06.
 Requested convergence on             energy=1.00D-06.
 No special actions if energy rises.
 SCF Done:  E(RM062X) =  -242.138967609     A.U. after   11 cycles
            NFock= 11  Conv=0.43D-08     -V/T= 2.0083
 Calling FoFJK, ICntrl=      2127 FMM=F ISym2X=0 I1Cent= 0 IOpClX= 0 NMat=1 NMatS=1 NMatT=0.
 ***** Axes restored to original set *****
 -------------------------------------------------------------------
 Center     Atomic                   Forces (Hartrees/Bohr)
 Number     Number              X              Y              Z
 -------------------------------------------------------------------
      1        7           0.000258677    0.000753476    0.003248690
      2        7          -0.002527951    0.003590936   -0.001539858
      3        6           0.001288648    0.003902362    0.000209348
      4        6          -0.000076114   -0.001735178    0.001732572
      5        7          -0.000151047   -0.006715243   -0.003241237
      6        1           0.000111052   -0.000920602   -0.000047336
      7        1           0.000867949    0.000810667   -0.000019803
      8        1           0.000228786    0.000313581   -0.000342377
 -------------------------------------------------------------------
 Cartesian Forces:  Max     0.006715243 RMS     0.002179070

 GradGradGradGradGradGradGradGradGradGradGradGradGradGradGradGradGradGrad
 Berny optimization.
 Using GEDIIS/GDIIS optimizer.
 FormGI is forming the generalized inverse of G from B-inverse, IUseBI=4.
 Internal  Forces:  Max     0.003568569 RMS     0.001515041
 Search for a local minimum.
 Step number   5 out of a maximum of   42
 All quantities printed in internal units (Hartrees-Bohrs-Radians)
 Mixed Optimization -- RFO/linear search
 Update second derivatives using D2CorX and points    2    3    4    5
 DE= -3.85D-04 DEPred=-5.54D-04 R= 6.95D-01
 TightC=F SS=  1.41D+00  RLast= 6.63D-02 DXNew= 1.4270D+00 1.9886D-01
 Trust test= 6.95D-01 RLast= 6.63D-02 DXMaxT set to 8.49D-01
 ITU=  1  1  1  1  0
 Use linear search instead of GDIIS.
     Eigenvalues ---    0.00271   0.00291   0.00332   0.00354   0.00376
     Eigenvalues ---    0.12431   0.15955   0.16012   0.22094   0.26830
     Eigenvalues ---    0.28864   0.29624   0.30332   0.31672   0.32211
     Eigenvalues ---    0.33603   0.52807   0.60400
 RFO step:  Lambda=-9.79603975D-04 EMin= 2.71300048D-03
 Quartic linear search produced a step of -0.24199.
 Iteration  1 RMS(Cart)=  0.04248076 RMS(Int)=  0.01034234
 Iteration  2 RMS(Cart)=  0.00622031 RMS(Int)=  0.00317578
 Iteration  3 RMS(Cart)=  0.00007306 RMS(Int)=  0.00317434
 Iteration  4 RMS(Cart)=  0.00000012 RMS(Int)=  0.00317434
 Variable       Old X    -DE/DX   Delta X   Delta X   Delta X     New X
                                 (Linear)    (Quad)   (Total)
    R1        2.53252  -0.00298  -0.00062  -0.00155  -0.00292   2.52960
    R2        2.44996  -0.00342   0.00113   0.00541   0.00509   2.45505
    R3        2.55113   0.00185   0.00209  -0.00263   0.00033   2.55146
    R4        1.90787  -0.00038  -0.00341   0.01586   0.01245   1.92032
    R5        2.60085  -0.00342  -0.00461   0.02261   0.01934   2.62019
    R6        2.03477   0.00069  -0.00130   0.00264   0.00134   2.03611
    R7        2.57462  -0.00059   0.00141  -0.00785  -0.00654   2.56808
    R8        2.03449   0.00119  -0.00123   0.00296   0.00172   2.03621
    A1        1.87712  -0.00258  -0.00629   0.02077   0.00356   1.88068
    A2        1.94633   0.00141   0.00302  -0.00253  -0.00618   1.94015
    A3        2.07670  -0.00063  -0.00329   0.01698   0.01482   2.09151
    A4        2.26014  -0.00078   0.00027  -0.01395  -0.01249   2.24765
    A5        1.80428  -0.00053   0.00089  -0.01015  -0.01249   1.79179
    A6        2.15877  -0.00036   0.00199  -0.02214  -0.01860   2.14017
    A7        2.32013   0.00089  -0.00288   0.03234   0.03099   2.35113
    A8        1.89836  -0.00183  -0.00304   0.01624   0.00752   1.90587
    A9        2.26041   0.00098   0.00049   0.00527   0.00635   2.26675
   A10        2.12435   0.00086   0.00257  -0.02044  -0.01733   2.10703
   A11        1.89847   0.00357   0.00548  -0.01868  -0.02302   1.87545
    D1       -0.01755   0.00124   0.00449   0.22454   0.22967   0.21213
    D2        3.12945   0.00078   0.00313   0.13541   0.13797  -3.01576
    D3        0.02057  -0.00143  -0.00528  -0.25351  -0.25774  -0.23717
    D4        0.00696  -0.00048  -0.00176  -0.09870  -0.09976  -0.09280
    D5       -3.13727  -0.00040  -0.00103  -0.08301  -0.08414   3.06178
    D6       -3.14076   0.00005  -0.00023   0.00246   0.00242  -3.13834
    D7       -0.00181   0.00013   0.00050   0.01815   0.01804   0.01624
    D8        0.00568  -0.00042  -0.00148  -0.05736  -0.05946  -0.05378
    D9        3.13481   0.00029   0.00188   0.04293   0.04456  -3.10381
   D10       -3.13291  -0.00050  -0.00231  -0.07505  -0.07785   3.07242
   D11       -0.00378   0.00020   0.00105   0.02524   0.02617   0.02239
   D12       -0.01670   0.00115   0.00430   0.19766   0.20034   0.18364
   D13        3.13620   0.00051   0.00126   0.10652   0.10732  -3.03966
         Item               Value     Threshold  Converged?
 Maximum Force            0.003569     0.000450     NO 
 RMS     Force            0.001515     0.000300     NO 
 Maximum Displacement     0.180478     0.001800     NO 
 RMS     Displacement     0.046764     0.001200     NO 
 Predicted change in Energy=-6.091155D-04
 GradGradGradGradGradGradGradGradGradGradGradGradGradGradGradGradGradGrad

                          Input orientation:                          
 ---------------------------------------------------------------------
 Center     Atomic      Atomic             Coordinates (Angstroms)
 Number     Number       Type             X           Y           Z
 ---------------------------------------------------------------------
      1          7           0       -3.129625    0.577510    0.088408
      2          7           0       -2.351132   -0.506166   -0.018697
      3          6           0       -1.043375   -0.171519    0.008821
      4          6           0       -1.084396    1.214397    0.016423
      5          7           0       -2.377003    1.623729   -0.075288
      6          1           0       -0.255558   -0.906550    0.007932
      7          1           0       -0.278403    1.929444    0.005228
      8          1           0       -2.771276   -1.431367   -0.029921
 ---------------------------------------------------------------------
                    Distance matrix (angstroms):
                    1          2          3          4          5
     1  N    0.000000
     2  N    1.338609   0.000000
     3  C    2.218066   1.350176   0.000000
     4  C    2.143308   2.136865   1.386544   0.000000
     5  N    1.299157   2.130803   2.237979   1.358969   0.000000
     6  H    3.235609   2.133647   1.077463   2.277160   3.302993
     7  H    3.156598   3.198277   2.235899   1.077516   2.122278
     8  H    2.044016   1.016190   2.138775   3.138117   3.080766
                    6          7          8
     6  H    0.000000
     7  H    2.836087   0.000000
     8  H    2.570156   4.184579   0.000000
 Stoichiometry    C2H3N3
 Framework group  C1[X(C2H3N3)]
 Deg. of freedom    18
 Full point group                 C1      NOp   1
 Largest Abelian subgroup         C1      NOp   1
 Largest concise Abelian subgroup C1      NOp   1
                         Standard orientation:                         
 ---------------------------------------------------------------------
 Center     Atomic      Atomic             Coordinates (Angstroms)
 Number     Number       Type             X           Y           Z
 ---------------------------------------------------------------------
      1          7           0        0.223422   -1.137409    0.075652
      2          7           0        1.061901   -0.099905   -0.035757
      3          6           0        0.394551    1.073005    0.007852
      4          6           0       -0.931247    0.667703    0.030073
      5          7           0       -0.986293   -0.686493   -0.069519
      6          1           0        0.895679    2.026837    0.006513
      7          1           0       -1.833647    1.256514    0.034308
      8          1           0        2.064930   -0.260955   -0.061006
 ---------------------------------------------------------------------
 Rotational constants (GHZ):          10.2462524           9.7955467           5.0259970
 Standard basis: 6-31+G(d,p) (6D, 7F)
 There are   110 symmetry adapted cartesian basis functions of A   symmetry.
 There are   110 symmetry adapted basis functions of A   symmetry.
   110 basis functions,   181 primitive gaussians,   110 cartesian basis functions
    18 alpha electrons       18 beta electrons
       nuclear repulsion energy       165.2379484765 Hartrees.
 NAtoms=    8 NActive=    8 NUniq=    8 SFac= 1.00D+00 NAtFMM=   60 NAOKFM=F Big=F
 Integral buffers will be    131072 words long.
 Raffenetti 2 integral format.
 Two-electron integral symmetry is turned on.
 One-electron integrals computed using PRISM.
 NBasis=   110 RedAO= T EigKep=  8.09D-05  NBF=   110
 NBsUse=   110 1.00D-06 EigRej= -1.00D+00 NBFU=   110
 Initial guess from the checkpoint file:  "/scratch/gongke2021/1-H-Tz/Gau-30698.chk"
 B after Tr=     0.000000   -0.000000   -0.000000
         Rot=    0.995745    0.000066    0.000018    0.092154 Ang=  10.58 deg.
 ExpMin= 4.38D-02 ExpMax= 4.17D+03 ExpMxC= 6.27D+02 IAcc=2 IRadAn=         4 AccDes= 0.00D+00
 Harris functional with IExCor= 1009 and IRadAn=       4 diagonalized for initial guess.
 HarFok:  IExCor= 1009 AccDes= 0.00D+00 IRadAn=         4 IDoV= 1 UseB2=F ITyADJ=14
 ICtDFT=  3500011 ScaDFX=  1.000000  1.000000  1.000000  1.000000
 FoFCou: FMM=F IPFlag=           0 FMFlag=      100000 FMFlg1=           0
         NFxFlg=           0 DoJE=T BraDBF=F KetDBF=T FulRan=T
         wScrn=  0.000000 ICntrl=       500 IOpCl=  0 I1Cent=   200000004 NGrid=           0
         NMat0=    1 NMatS0=      1 NMatT0=    0 NMatD0=    1 NMtDS0=    0 NMtDT0=    0
 Petite list used in FoFCou.
 Keep R1 ints in memory in canonical form, NReq=37326157.
 Requested convergence on RMS density matrix=1.00D-08 within 128 cycles.
 Requested convergence on MAX density matrix=1.00D-06.
 Requested convergence on             energy=1.00D-06.
 No special actions if energy rises.
 SCF Done:  E(RM062X) =  -242.131918874     A.U. after   13 cycles
            NFock= 13  Conv=0.99D-08     -V/T= 2.0084
 Calling FoFJK, ICntrl=      2127 FMM=F ISym2X=0 I1Cent= 0 IOpClX= 0 NMat=1 NMatS=1 NMatT=0.
 ***** Axes restored to original set *****
 -------------------------------------------------------------------
 Center     Atomic                   Forces (Hartrees/Bohr)
 Number     Number              X              Y              Z
 -------------------------------------------------------------------
      1        7          -0.013112745   -0.001315006   -0.038242923
      2        7          -0.001348328   -0.000492954    0.018885914
      3        6          -0.000466017    0.010832004   -0.002876105
      4        6           0.009361501   -0.005560599   -0.016910530
      5        7           0.001094505   -0.010384680    0.036802438
      6        1           0.001443498    0.001503964   -0.000279992
      7        1           0.001920690   -0.000853366   -0.001212411
      8        1           0.001106895    0.006270637    0.003833610
 -------------------------------------------------------------------
 Cartesian Forces:  Max     0.038242923 RMS     0.012997262

 GradGradGradGradGradGradGradGradGradGradGradGradGradGradGradGradGradGrad
 Berny optimization.
 Using GEDIIS/GDIIS optimizer.
 FormGI is forming the generalized inverse of G from B-inverse, IUseBI=4.
 Internal  Forces:  Max     0.016921229 RMS     0.006864114
 Search for a local minimum.
 Step number   6 out of a maximum of   42
 All quantities printed in internal units (Hartrees-Bohrs-Radians)
 Mixed Optimization -- RFO/linear search
 Update second derivatives using D2CorX and points    2    3    4    6    5
 DE=  7.05D-03 DEPred=-6.09D-04 R=-1.16D+01
 Trust test=-1.16D+01 RLast= 4.72D-01 DXMaxT set to 4.24D-01
 ITU= -1  1  1  1  1  0
 Use linear search instead of GDIIS.
     Eigenvalues ---    0.00288   0.00343   0.00349   0.00384   0.07038
     Eigenvalues ---    0.10648   0.15893   0.15956   0.21414   0.26664
     Eigenvalues ---    0.27586   0.29618   0.30000   0.31235   0.31721
     Eigenvalues ---    0.32182   0.51801   0.59429
 RFO step:  Lambda=-2.08042454D-04 EMin= 2.88228046D-03
 Quartic linear search produced a step of -0.93367.
 Iteration  1 RMS(Cart)=  0.04152084 RMS(Int)=  0.00663793
 Iteration  2 RMS(Cart)=  0.00446235 RMS(Int)=  0.00046828
 Iteration  3 RMS(Cart)=  0.00003363 RMS(Int)=  0.00046651
 Iteration  4 RMS(Cart)=  0.00000001 RMS(Int)=  0.00046651
 Variable       Old X    -DE/DX   Delta X   Delta X   Delta X     New X
                                 (Linear)    (Quad)   (Total)
    R1        2.52960  -0.00290   0.00272  -0.00659  -0.00379   2.52582
    R2        2.45505  -0.00270  -0.00475  -0.00952  -0.01407   2.44098
    R3        2.55146   0.00584  -0.00031   0.00703   0.00658   2.55804
    R4        1.92032  -0.00621  -0.01163   0.00105  -0.01058   1.90974
    R5        2.62019  -0.01200  -0.01806  -0.00618  -0.02440   2.59578
    R6        2.03611   0.00003  -0.00125   0.00393   0.00268   2.03879
    R7        2.56808   0.00335   0.00611   0.00015   0.00630   2.57438
    R8        2.03621   0.00088  -0.00161   0.00554   0.00393   2.04014
    A1        1.88068  -0.00906  -0.00332  -0.00684  -0.00917   1.87151
    A2        1.94015   0.00511   0.00577   0.00301   0.00875   1.94890
    A3        2.09151  -0.00426  -0.01383  -0.00057  -0.01497   2.07654
    A4        2.24765  -0.00024   0.01166  -0.00111   0.00999   2.25764
    A5        1.79179   0.00190   0.01166  -0.00010   0.01171   1.80350
    A6        2.14017   0.00113   0.01737  -0.00275   0.01459   2.15477
    A7        2.35113  -0.00302  -0.02894   0.00274  -0.02622   2.32491
    A8        1.90587  -0.00518  -0.00702  -0.00796  -0.01387   1.89200
    A9        2.26675   0.00125  -0.00592   0.00278  -0.00247   2.26429
   A10        2.10703   0.00442   0.01618   0.00276   0.01959   2.12662
   A11        1.87545   0.01164   0.02149   0.01090   0.03334   1.90878
    D1        0.21213  -0.01572  -0.21444  -0.00476  -0.21846  -0.00633
    D2       -3.01576  -0.00906  -0.12882   0.01008  -0.11820  -3.13396
    D3       -0.23717   0.01692   0.24065  -0.00548   0.23540  -0.00177
    D4       -0.09280   0.00597   0.09315   0.01086   0.10419   0.01139
    D5        3.06178   0.00568   0.07856   0.01754   0.09612  -3.12529
    D6       -3.13834  -0.00124  -0.00226  -0.00572  -0.00765   3.13719
    D7        0.01624  -0.00152  -0.01685   0.00096  -0.01573   0.00051
    D8       -0.05378   0.00440   0.05552  -0.01340   0.04173  -0.01205
    D9       -3.10381  -0.00213  -0.04161   0.01787  -0.02434  -3.12816
   D10        3.07242   0.00480   0.07269  -0.02138   0.05150   3.12392
   D11        0.02239  -0.00173  -0.02444   0.00988  -0.01458   0.00781
   D12        0.18364  -0.01249  -0.18705   0.01273  -0.17465   0.00899
   D13       -3.03966  -0.00679  -0.10020  -0.01510  -0.11601   3.12751
         Item               Value     Threshold  Converged?
 Maximum Force            0.016921     0.000450     NO 
 RMS     Force            0.006864     0.000300     NO 
 Maximum Displacement     0.173821     0.001800     NO 
 RMS     Displacement     0.043859     0.001200     NO 
 Predicted change in Energy=-2.111750D-04
 GradGradGradGradGradGradGradGradGradGradGradGradGradGradGradGradGradGrad

                          Input orientation:                          
 ---------------------------------------------------------------------
 Center     Atomic      Atomic             Coordinates (Angstroms)
 Number     Number       Type             X           Y           Z
 ---------------------------------------------------------------------
      1          7           0       -3.147136    0.571248   -0.003575
      2          7           0       -2.355959   -0.506008    0.005083
      3          6           0       -1.046191   -0.164105    0.003546
      4          6           0       -1.077282    1.209165    0.008491
      5          7           0       -2.379253    1.609934   -0.002923
      6          1           0       -0.243324   -0.884735   -0.005126
      7          1           0       -0.262985    1.917923   -0.001857
      8          1           0       -2.778638   -1.423945   -0.000733
 ---------------------------------------------------------------------
                    Distance matrix (angstroms):
                    1          2          3          4          5
     1  N    0.000000
     2  N    1.336606   0.000000
     3  C    2.225929   1.353658   0.000000
     4  C    2.165959   2.139356   1.373630   0.000000
     5  N    1.291710   2.116085   2.219078   1.362305   0.000000
     6  H    3.248386   2.146337   1.078879   2.253905   3.284139
     7  H    3.183059   3.202504   2.224473   1.079595   2.138562
     8  H    2.028938   1.010594   2.142099   3.134958   3.060054
                    6          7          8
     6  H    0.000000
     7  H    2.802729   0.000000
     8  H    2.592023   4.182893   0.000000
 Stoichiometry    C2H3N3
 Framework group  C1[X(C2H3N3)]
 Deg. of freedom    18
 Full point group                 C1      NOp   1
 Largest Abelian subgroup         C1      NOp   1
 Largest concise Abelian subgroup C1      NOp   1
                         Standard orientation:                         
 ---------------------------------------------------------------------
 Center     Atomic      Atomic             Coordinates (Angstroms)
 Number     Number       Type             X           Y           Z
 ---------------------------------------------------------------------
      1          7           0        0.539168   -1.040832   -0.001740
      2          7           0        1.046314    0.195813    0.003467
      3          6           0        0.071982    1.135518   -0.001322
      4          6           0       -1.083898    0.393387    0.005300
      5          7           0       -0.747490   -0.926707   -0.002024
      6          1           0        0.268666    2.196252   -0.013064
      7          1           0       -2.113146    0.719018   -0.006494
      8          1           0        2.050030    0.313379   -0.002236
 ---------------------------------------------------------------------
 Rotational constants (GHZ):          10.1074599           9.9899460           5.0242610
 Standard basis: 6-31+G(d,p) (6D, 7F)
 There are   110 symmetry adapted cartesian basis functions of A   symmetry.
 There are   110 symmetry adapted basis functions of A   symmetry.
   110 basis functions,   181 primitive gaussians,   110 cartesian basis functions
    18 alpha electrons       18 beta electrons
       nuclear repulsion energy       165.4623872388 Hartrees.
 NAtoms=    8 NActive=    8 NUniq=    8 SFac= 1.00D+00 NAtFMM=   60 NAOKFM=F Big=F
 Integral buffers will be    131072 words long.
 Raffenetti 2 integral format.
 Two-electron integral symmetry is turned on.
 One-electron integrals computed using PRISM.
 NBasis=   110 RedAO= T EigKep=  7.60D-05  NBF=   110
 NBsUse=   110 1.00D-06 EigRej= -1.00D+00 NBFU=   110
 Lowest energy guess from the checkpoint file:  "/scratch/gongke2021/1-H-Tz/Gau-30698.chk"
 B after Tr=     0.000000    0.000000   -0.000000
         Rot=    0.998814    0.000000   -0.000001   -0.048691 Ang=   5.58 deg.
 B after Tr=    -0.000000    0.000000    0.000000
         Rot=    0.990077   -0.000082    0.000020   -0.140528 Ang= -16.16 deg.
 Keep R1 ints in memory in canonical form, NReq=37326157.
 Requested convergence on RMS density matrix=1.00D-08 within 128 cycles.
 Requested convergence on MAX density matrix=1.00D-06.
 Requested convergence on             energy=1.00D-06.
 No special actions if energy rises.
 SCF Done:  E(RM062X) =  -242.139046838     A.U. after   11 cycles
            NFock= 11  Conv=0.56D-08     -V/T= 2.0083
 Calling FoFJK, ICntrl=      2127 FMM=F ISym2X=0 I1Cent= 0 IOpClX= 0 NMat=1 NMatS=1 NMatT=0.
 ***** Axes restored to original set *****
 -------------------------------------------------------------------
 Center     Atomic                   Forces (Hartrees/Bohr)
 Number     Number              X              Y              Z
 -------------------------------------------------------------------
      1        7           0.000263721   -0.000514748    0.000513524
      2        7           0.000489567   -0.001668912   -0.001114042
      3        6           0.000018409   -0.000239540    0.000801710
[...]
 -------------------
 Temperature   298.150 Kelvin.  Pressure   1.00000 Atm.
 Atom     1 has atomic number  7 and mass  14.00307
 Atom     2 has atomic number  7 and mass  14.00307
 Atom     3 has atomic number  6 and mass  12.00000
 Atom     4 has atomic number  6 and mass  12.00000
 Atom     5 has atomic number  7 and mass  14.00307
 Atom     6 has atomic number  1 and mass   1.00783
 Atom     7 has atomic number  1 and mass   1.00783
 Atom     8 has atomic number  1 and mass   1.00783
 Molecular mass:    69.03270 amu.
 Principal axes and moments of inertia in atomic units:
                           1         2         3
     Eigenvalues --   178.26123 180.89238 359.15357
           X            0.62868   0.77766  -0.00018
           Y            0.77766  -0.62868  -0.00010
           Z            0.00019   0.00008   1.00000
 This molecule is an asymmetric top.
 Rotational symmetry number  1.
 Rotational temperatures (Kelvin)      0.48588     0.47881     0.24116
 Rotational constants (GHZ):          10.12414     9.97688     5.02498
 Zero-point vibrational energy     158104.3 (Joules/Mol)
                                   37.78785 (Kcal/Mol)
 Warning -- explicit consideration of   1 degrees of freedom as
           vibrations may cause significant error
 Vibrational temperatures:    882.61   964.84  1062.81  1141.27  1280.82
          (Kelvin)           1382.41  1421.67  1556.67  1619.28  1677.73
                             1743.47  1958.49  2022.02  2148.25  2276.39
                             4773.04  4801.11  5318.30
 
 Zero-point correction=                           0.060219 (Hartree/Particle)
 Thermal correction to Energy=                    0.063754
 Thermal correction to Enthalpy=                  0.064698
 Thermal correction to Gibbs Free Energy=         0.034078
 Sum of electronic and zero-point Energies=           -242.078867
 Sum of electronic and thermal Energies=              -242.075331
 Sum of electronic and thermal Enthalpies=            -242.074387
 Sum of electronic and thermal Free Energies=         -242.105007
 
                     E (Thermal)             CV                S
                      KCal/Mol        Cal/Mol-Kelvin    Cal/Mol-Kelvin
 Total                   40.006             11.934             64.446
 Electronic               0.000              0.000              0.000
 Translational            0.889              2.981             38.613
 Rotational               0.889              2.981             23.964
 Vibrational             38.229              5.973              1.868
 Vibration     1          0.973              1.003              0.427
                       Q            Log10(Q)             Ln(Q)
 Total Bot       0.211460D-15        -15.674773        -36.092498
 Total V=0       0.105660D+13         12.023912         27.686081
 Vib (Bot)       0.243482D-27        -27.613533        -63.582510
 Vib (Bot)    1  0.240039D+00         -0.619718         -1.426953
 Vib (V=0)       0.121661D+01          0.085152          0.196069
 Vib (V=0)    1  0.105463D+01          0.023102          0.053194
 Electronic      0.100000D+01          0.000000          0.000000
 Translational   0.225443D+08          7.353036         16.930991
 Rotational      0.385234D+05          4.585724         10.559020
 ***** Axes restored to original set *****
 -------------------------------------------------------------------
 Center     Atomic                   Forces (Hartrees/Bohr)
 Number     Number              X              Y              Z
 -------------------------------------------------------------------
      1        7           0.000011472   -0.000000131    0.000008364
      2        7           0.000013450   -0.000029557   -0.000089452
      3        6          -0.000005388    0.000011840    0.000001147
      4        6           0.000001275   -0.000018779    0.000065526
      5        7          -0.000007732    0.000000253   -0.000004542
      6        1          -0.000014236    0.000013482   -0.000000047
      7        1          -0.000017146   -0.000013777   -0.000028060
      8        1           0.000018307    0.000036670    0.000047063
 -------------------------------------------------------------------
 Cartesian Forces:  Max     0.000089452 RMS     0.000028655
 FormGI is forming the generalized inverse of G from B-inverse, IUseBI=4.

 GradGradGradGradGradGradGradGradGradGradGradGradGradGradGradGradGradGrad
 Berny optimization.
 Internal  Forces:  Max     0.000041534 RMS     0.000015202
 Search for a local minimum.
 Step number   1 out of a maximum of    2
 All quantities printed in internal units (Hartrees-Bohrs-Radians)
 Second derivative matrix not updated -- analytic derivatives used.
 ITU=  0
     Eigenvalues ---    0.00913   0.01383   0.02615   0.06573   0.07032
     Eigenvalues ---    0.09576   0.10400   0.11295   0.22529   0.28895
     Eigenvalues ---    0.36136   0.38739   0.39097   0.44407   0.45805
     Eigenvalues ---    0.48529   0.55976   0.61312
 Angle between quadratic step and forces=  52.67 degrees.
 Linear search not attempted -- first point.
 Iteration  1 RMS(Cart)=  0.00039257 RMS(Int)=  0.00000055
 Iteration  2 RMS(Cart)=  0.00000033 RMS(Int)=  0.00000037
 Variable       Old X    -DE/DX   Delta X   Delta X   Delta X     New X
                                 (Linear)    (Quad)   (Total)
    R1        2.52624  -0.00000   0.00000  -0.00000  -0.00000   2.52623
    R2        2.44330  -0.00001   0.00000  -0.00001  -0.00001   2.44328
    R3        2.55579  -0.00003   0.00000  -0.00005  -0.00005   2.55574
    R4        1.90730  -0.00004   0.00000  -0.00009  -0.00009   1.90722
    R5        2.59537  -0.00003   0.00000  -0.00006  -0.00006   2.59532
    R6        2.03663  -0.00002   0.00000  -0.00005  -0.00005   2.03658
    R7        2.57440  -0.00000   0.00000   0.00000   0.00000   2.57440
    R8        2.03729  -0.00002   0.00000  -0.00005  -0.00005   2.03724
    A1        1.87248   0.00000   0.00000   0.00001   0.00001   1.87248
    A2        1.94889   0.00000   0.00000  -0.00000  -0.00000   1.94889
    A3        2.07883  -0.00000   0.00000  -0.00002  -0.00002   2.07881
    A4        2.25545   0.00000   0.00000   0.00003   0.00003   2.25548
    A5        1.80357   0.00000   0.00000   0.00001   0.00001   1.80358
    A6        2.15008  -0.00000   0.00000  -0.00002  -0.00002   2.15006
    A7        2.32953   0.00000   0.00000   0.00001   0.00001   2.32955
    A8        1.89383   0.00001   0.00000   0.00002   0.00002   1.89385
    A9        2.26520  -0.00001   0.00000  -0.00003  -0.00003   2.26517
   A10        2.12415  -0.00000   0.00000   0.00001   0.00001   2.12416
   A11        1.90600  -0.00001   0.00000  -0.00003  -0.00003   1.90597
    D1       -0.00043   0.00001   0.00000   0.00043   0.00043  -0.00000
    D2       -3.13950  -0.00002   0.00000  -0.00209  -0.00209  -3.14159
    D3        0.00036  -0.00001   0.00000  -0.00036  -0.00036   0.00000
    D4        0.00032  -0.00000   0.00000  -0.00031  -0.00031   0.00000
    D5       -3.14141  -0.00000   0.00000  -0.00018  -0.00018  -3.14159
    D6        3.13906   0.00003   0.00000   0.00252   0.00252   3.14159
    D7       -0.00267   0.00003   0.00000   0.00266   0.00266  -0.00001
    D8       -0.00009  -0.00000   0.00000   0.00009   0.00009  -0.00000
    D9        3.14054   0.00002   0.00000   0.00105   0.00105  -3.14159
   D10       -3.14152  -0.00000   0.00000  -0.00007  -0.00007   3.14159
   D11       -0.00089   0.00002   0.00000   0.00089   0.00089   0.00000
   D12       -0.00017   0.00001   0.00000   0.00017   0.00017  -0.00000
   D13       -3.14089  -0.00001   0.00000  -0.00070  -0.00070   3.14159
         Item               Value     Threshold  Converged?
 Maximum Force            0.000042     0.000450     YES
 RMS     Force            0.000015     0.000300     YES
 Maximum Displacement     0.001433     0.001800     YES
 RMS     Displacement     0.000393     0.001200     YES
 Predicted change in Energy=-1.185777D-07
 Optimization completed.
    -- Stationary point found.
                           ----------------------------
                           !   Optimized Parameters   !
                           ! (Angstroms and Degrees)  !
 --------------------------                            --------------------------
 ! Name  Definition              Value          Derivative Info.                !
 --------------------------------------------------------------------------------
 ! R1    R(1,2)                  1.3368         -DE/DX =    0.0                 !
 ! R2    R(1,5)                  1.2929         -DE/DX =    0.0                 !
 ! R3    R(2,3)                  1.3525         -DE/DX =    0.0                 !
 ! R4    R(2,8)                  1.0093         -DE/DX =    0.0                 !
 ! R5    R(3,4)                  1.3734         -DE/DX =    0.0                 !
 ! R6    R(3,6)                  1.0777         -DE/DX =    0.0                 !
 ! R7    R(4,5)                  1.3623         -DE/DX =    0.0                 !
 ! R8    R(4,7)                  1.0781         -DE/DX =    0.0                 !
 ! A1    A(2,1,5)              107.285          -DE/DX =    0.0                 !
 ! A2    A(1,2,3)              111.6634         -DE/DX =    0.0                 !
 ! A3    A(1,2,8)              119.1084         -DE/DX =    0.0                 !
 ! A4    A(3,2,8)              129.228          -DE/DX =    0.0                 !
 ! A5    A(2,3,4)              103.337          -DE/DX =    0.0                 !
 ! A6    A(2,3,6)              123.1905         -DE/DX =    0.0                 !
 ! A7    A(4,3,6)              133.4724         -DE/DX =    0.0                 !
 ! A8    A(3,4,5)              108.5086         -DE/DX =    0.0                 !
 ! A9    A(3,4,7)              129.7865         -DE/DX =    0.0                 !
 ! A10   A(5,4,7)              121.7048         -DE/DX =    0.0                 !
 ! A11   A(1,5,4)              109.2058         -DE/DX =    0.0                 !
 ! D1    D(5,1,2,3)             -0.0247         -DE/DX =    0.0                 !
 ! D2    D(5,1,2,8)           -179.8801         -DE/DX =    0.0                 !
 ! D3    D(2,1,5,4)              0.0204         -DE/DX =    0.0                 !
 ! D4    D(1,2,3,4)              0.0181         -DE/DX =    0.0                 !
 ! D5    D(1,2,3,6)           -179.9898         -DE/DX =    0.0                 !
 ! D6    D(8,2,3,4)            179.8551         -DE/DX =    0.0                 !
 ! D7    D(8,2,3,6)             -0.1528         -DE/DX =    0.0                 !
 ! D8    D(2,3,4,5)             -0.0052         -DE/DX =    0.0                 !
 ! D9    D(2,3,4,7)           -180.0601         -DE/DX =    0.0                 !
 ! D10   D(6,3,4,5)            180.0039         -DE/DX =    0.0                 !
 ! D11   D(6,3,4,7)             -0.051          -DE/DX =    0.0                 !
 ! D12   D(3,4,5,1)             -0.0096         -DE/DX =    0.0                 !
 ! D13   D(7,4,5,1)            180.04           -DE/DX =    0.0                 !
 --------------------------------------------------------------------------------
 GradGradGradGradGradGradGradGradGradGradGradGradGradGradGradGradGradGrad


 ----------------------------------------------------------------------

 Electric dipole moment (input orientation):
 (Debye = 10**-18 statcoulomb cm , SI units = C m)
                  (au)            (Debye)         (10**-30 SI)
   Tot        0.182300D+01      0.463360D+01      0.154560D+02
   x          0.102165D+01      0.259678D+01      0.866193D+01
   y         -0.150982D+01     -0.383757D+01     -0.128008D+02
   z         -0.557927D-03     -0.141811D-02     -0.473030D-02

 Dipole polarizability, Alpha (input orientation).
 (esu units = cm**3 , SI units = C**2 m**2 J**-1)
 Alpha(0;0):
               (au)            (10**-24 esu)      (10**-40 SI)
   iso        0.406349D+02      0.602148D+01      0.669980D+01
   aniso      0.209726D+02      0.310782D+01      0.345791D+01
   xx         0.472634D+02      0.700372D+01      0.779269D+01
   yx         0.132505D-01      0.196352D-02      0.218471D-02
   yy         0.479820D+02      0.711020D+01      0.791116D+01
   zx        -0.399541D-03     -0.592059D-04     -0.658754D-04
   zy        -0.359161D-02     -0.532222D-03     -0.592176D-03
   zz         0.266594D+02      0.395051D+01      0.439554D+01

 ----------------------------------------------------------------------

 Dipole orientation:
     7         -3.57675265         -2.42097544         -4.22640681
     7         -3.49658029         -2.36461949         -1.70207037
     6         -1.50031385         -1.01429335         -0.85142789
     6         -0.33586620         -0.22795624         -3.03355975
     7         -1.66906016         -1.13074160         -5.04231130
     1         -1.09989974         -0.74226643          1.12683837
     1          1.33831394          0.90600822         -3.28215632
     1         -4.84428686         -3.27997951         -0.71029992

 Electric dipole moment (dipole orientation):
 (Debye = 10**-18 statcoulomb cm , SI units = C m)
                  (au)            (Debye)         (10**-30 SI)
   Tot        0.182300D+01      0.463360D+01      0.154560D+02
   x          0.000000D+00      0.000000D+00      0.000000D+00
   y          0.000000D+00      0.000000D+00      0.000000D+00
   z          0.182300D+01      0.463360D+01      0.154560D+02

 Dipole polarizability, Alpha (dipole orientation).
 (esu units = cm**3 , SI units = C**2 m**2 J**-1)
 Alpha(0;0):
               (au)            (10**-24 esu)      (10**-40 SI)
   iso        0.406349D+02      0.602148D+01      0.669980D+01
   aniso      0.209726D+02      0.310782D+01      0.345791D+01
   xx         0.409577D+02      0.606931D+01      0.675301D+01
   yx         0.967285D+01      0.143337D+01      0.159484D+01
   yy         0.332031D+02      0.492019D+01      0.547445D+01
   zx        -0.285453D+00     -0.422998D-01     -0.470649D-01
   zy        -0.182046D+00     -0.269764D-01     -0.300153D-01
   zz         0.477440D+02      0.707493D+01      0.787192D+01

 ----------------------------------------------------------------------
 1\1\GINC-NODE3\Freq\RM062X\6-31+G(d,p)\C2H3N3\GONGKE2021\07-May-2023\0
 \\#N Geom=AllCheck Guess=TCheck SCRF=Check GenChk RM062X/6-31+G(d,p) F
 req\\test\\0,1\N,-3.1463032073,0.5714196128,0.0003851609\N,-2.35473362
 76,-0.505857143,0.0008990953\C,-1.0462064356,-0.1639249831,0.000544931
 5\C,-1.0775450572,1.2091299136,0.0001912578\N,-2.3789233878,1.61200253
 22,0.0002322348\H,-0.2473694645,-0.8873755124,0.0006967521\H,-0.265063
 6061,1.9177534732,0.0007099843\H,-2.774622114,-1.4236698933,-0.0007530
 268\\Version=ES64L-G16RevA.03\State=1-A\HF=-242.1390854\RMSD=3.355e-09
 \RMSF=2.866e-05\ZeroPoint=0.0602188\Thermal=0.063754\Dipole=1.0216524,
 -1.5098166,-0.0005579\DipoleDeriv=-0.4227322,-0.0546191,0.0001322,-0.1
 32988,0.3755888,-0.0004857,-0.000208,-0.0004054,-0.146983,0.0529257,-0
 .1455348,0.0001792,-0.1389262,-0.6328539,0.0005125,0.0003962,0.0016935
 ,-0.1522934,-0.009473,0.2563717,-0.0003469,0.0090483,0.2057529,-0.0004
 034,-0.0000843,-0.0007433,-0.0885892,0.0088996,0.0939821,0.000019,0.15
 00697,0.0344701,0.0001801,0.000312,0.000166,-0.1039317,0.0229479,-0.18
 51368,0.0000328,0.0680584,-0.4100271,0.0001123,-0.0000758,-0.000079,-0
 .226741,0.0857112,0.0252588,0.0000243,0.0396654,0.0715712,0.0000451,-0
 .0000167,0.0001244,0.206146,0.0392495,-0.0332686,0.0000006,-0.0497769,
 0.0720312,-0.0000027,-0.0001791,-0.0000851,0.1785824,0.2224714,0.04294
 66,-0.0000412,0.0548494,0.2834668,0.0000416,-0.0001443,-0.0006712,0.33
 381\Polar=47.2634385,0.0132505,47.9819844,-0.0003995,-0.0035916,26.659
 3691\Quadrupole=-0.4617508,2.34752,-1.8857692,2.4631147,0.0022567,0.00
 44877\PG=C01 [X(C2H3N3)]\NImag=0\\0.61977586,0.07513502,0.50867054,0.0
 0007163,-0.00006055,0.12116117,-0.20235172,0.11055260,-0.00016655,0.73
 595390,0.06075297,-0.17960629,0.00003784,0.19533451,0.92746075,-0.0000
 6956,-0.00010750,-0.07084538,0.00034594,0.00070887,0.10030539,-0.09686
 280,0.05895108,0.00001917,-0.33814835,-0.06891016,-0.00001778,0.769209
 19,-0.00132347,-0.03122906,0.00000782,-0.04987261,-0.13770308,-0.00008
 817,-0.16980609,0.79451964,-0.00000118,0.00003128,0.02043278,0.0000754
 2,-0.00002866,-0.05764871,0.00001820,-0.00009402,0.12168668,-0.1081860
 7,-0.08763953,0.00002431,-0.01305441,-0.00641003,-0.00007029,-0.114302
 00,-0.02260240,0.00001833,0.72935889,-0.00119841,0.00312769,0.00000446
 ,-0.10516211,-0.06054802,0.00009032,0.01813405,-0.39404658,0.00004552,
 0.18516031,0.79455090,-0.00001607,0.00003328,0.02418839,0.00004675,0.0
 0002277,0.01026477,-0.00001527,0.00005146,-0.06859749,0.00012786,0.000
 00582,0.13421380,-0.22199189,-0.17289425,-0.00000192,-0.01695512,-0.04
 941481,0.00012380,-0.00580655,0.11051691,-0.00004955,-0.26626043,0.061
 70749,-0.00003256,0.52830969,-0.11540504,-0.28123798,0.00002738,0.0139
 5780,-0.16178128,0.00004747,0.01497917,-0.02488413,0.00000032,0.069186
 57,-0.14445247,-0.00000741,0.03217006,0.60866776,0.00000745,0.00003144
 ,-0.09751962,0.00004087,0.00004088,0.02550813,-0.00001624,0.00001202,0
 .01836907,0.00000831,-0.00001495,-0.07407665,-0.00001656,-0.00007661,0
 .11944004,-0.00400655,-0.00290337,0.00000270,-0.01627720,0.02442466,-0
 .00000836,-0.22628139,0.15358016,-0.00002207,0.00904166,-0.00229694,-0
 .00000123,0.00123143,-0.00388037,0.00000183,0.23667880,-0.00548856,-0.
 00295733,0.00000447,-0.01310622,0.01493233,-0.00000532,0.16408676,-0.2
 0587001,0.00004291,0.01981108,0.00002990,-0.00000151,0.00365840,-0.005
 71936,0.00000303,-0.16902297,0.20000531,-0.00000639,0.00000645,0.00681
 026,0.00002429,-0.00000924,-0.00425008,-0.00004583,0.00003112,-0.02688
 056,-0.00000611,0.00000867,-0.00022918,0.00000193,-0.00000010,0.006782
 15,0.00002839,-0.00004154,0.02129736,-0.00615563,0.00075431,-0.0000004
 2,-0.00027637,0.00428971,-0.00000444,0.00894185,0.00546193,0.00000157,
 -0.22813702,-0.15464278,-0.00011033,-0.01660839,-0.02131807,-0.0000036
 4,-0.00038406,-0.00057395,0.00000096,0.24190202,0.00541339,0.00126798,
 -0.00000400,0.00066097,-0.00600053,-0.00000511,-0.02063696,-0.00557795
 ,-0.00000719,-0.15949058,-0.20034747,-0.00009103,0.00852351,0.01316205
 ,0.00000548,0.00039197,-0.00016500,0.00000102,0.16624611,0.19722520,0.
 00000455,-0.00001123,0.00788124,-0.00001752,0.00001143,0.00581106,0.00
 001225,0.00001781,-0.00064292,-0.00013985,-0.00011390,-0.02977194,0.00
 001827,0.00000191,-0.00692610,-0.00000038,-0.00000090,-0.00215499,0.00
 011801,0.00009723,0.02404828,0.01977880,0.01804414,0.00005109,-0.14889
 071,-0.16006684,-0.00029933,0.00325005,-0.02595443,-0.00004072,-0.0084
 6062,-0.00170161,0.00000084,-0.00191875,0.01030989,-0.00002203,-0.0000
 0270,0.00063546,0.00000278,0.00071760,-0.00110840,0.00000467,0.1355263
 3,-0.01788590,-0.01803555,-0.00001742,-0.15236493,-0.39675389,-0.00064
 055,0.00320215,0.00479117,0.00000984,0.00198457,0.00168606,-0.00001338
 ,0.00573269,-0.00375458,-0.00000127,-0.00029313,-0.00025585,0.00000362
 ,-0.00021726,0.00043572,-0.00000235,0.15984179,0.41188693,0.00000956,0
 .00007684,-0.01210884,-0.00034921,-0.00078389,-0.00914519,0.00004550,0
 .00006197,-0.00671885,0.00003743,-0.00002595,0.00400830,-0.00004341,0.
 00000704,0.00842298,-0.00000087,-0.00000114,-0.00137495,-0.00000171,0.
 00000361,0.00175538,0.00030270,0.00066152,0.01516118\\-0.00001147,0.00
 000013,-0.00000836,-0.00001345,0.00002956,0.00008945,0.00000539,-0.000
 01184,-0.00000115,-0.00000127,0.00001878,-0.00006553,0.00000773,-0.000
 00025,0.00000454,0.00001424,-0.00001348,0.00000005,0.00001715,0.000013
 78,0.00002806,-0.00001831,-0.00003667,-0.00004706\\\@


 Cherishing children is the mark of a civilized society.
 -- Joan Ganz Cooney
 Job cpu time:       0 days  0 hours  7 minutes  3.4 seconds.
 Elapsed time:       0 days  0 hours  0 minutes 21.7 seconds.
 File lengths (MBytes):  RWF=     15 Int=      0 D2E=      0 Chk=      2 Scr=      1
 Normal termination of Gaussian 16 at Sun May  7 22:21:16 2023.
