 Entering Gaussian System, Link 0=/opt/soft/g16/g16
 Initial command:
 /opt/soft/g16/l1.exe "/scratch/gongke2021/2-H-1-H-Tz-2-TS-gas/Gau-4364.inp" -scrdir="/scratch/gongke2021/2-H-1-H-Tz-2-TS-gas/"
 Entering Link 1 = /opt/soft/g16/l1.exe PID=      4365.
  
 Copyright (c) 1988,1990,1992,1993,1995,1998,2003,2009,2016,
            Gaussian, Inc.  All Rights Reserved.
  
 This is part of the Gaussian(R) 16 program.  It is based on
 the Gaussian(R) 09 system (copyright 2009, Gaussian, Inc.),
 the Gaussian(R) 03 system (copyright 2003, Gaussian, Inc.),
 the Gaussian(R) 98 system (copyright 1998, Gaussian, Inc.),
 the Gaussian(R) 94 system (copyright 1995, Gaussian, Inc.),
 the Gaussian 92(TM) system (copyright 1992, Gaussian, Inc.),
 the Gaussian 90(TM) system (copyright 1990, Gaussian, Inc.),
 the Gaussian 88(TM) system (copyright 1988, Gaussian, Inc.),
 the Gaussian 86(TM) system (copyright 1986, Carnegie Mellon
 University), and the Gaussian 82(TM) system (copyright 1983,
 Carnegie Mellon University). Gaussian is a federally registered
 trademark of Gaussian, Inc.
  
 This software contains proprietary and confidential information,
 including trade secrets, belonging to Gaussian, Inc.
  
 This software is provided under written license and may be
 used, copied, transmitted, or stored only in accord with that
 written license.
  
 The following legend is applicable only to US Government
 contracts under FAR:
  
                    RESTRICTED RIGHTS LEGEND
  
 Use, reproduction and disclosure by the US Government is
 subject to restrictions as set forth in subparagraphs (a)
 and (c) of the Commercial Computer Software - Restricted
 Rights clause in FAR 52.227-19.
  
 Gaussian, Inc.
 340 Quinnipiac St., Bldg. 40, Wallingford CT 06492
  
  
 ---------------------------------------------------------------
 Warning -- This program may not be used in any manner that
 competes with the business of Gaussian, Inc. or will provide
 assistance to any competitor of Gaussian, Inc.  The licensee
 of this program is prohibited from giving any competitor of
 Gaussian, Inc. access to this program.  By using this program,
 the user acknowledges that Gaussian, Inc. is engaged in the
 business of creating and licensing software in the field of
 computational chemistry and represents and warrants to the
 licensee that it is not a competitor of Gaussian, Inc. and that
 it will not use this program in any manner prohibited above.
 ---------------------------------------------------------------
  

 Cite this work as:
 Gaussian 16, Revision A.03,
 M. J. Frisch, G. W. Trucks, H. B. Schlegel, G. E. Scuseria, 
 M. A. Robb, J. R. Cheeseman, G. Scalmani, V. Barone, 
 G. A. Petersson, H. Nakatsuji, X. Li, M. Caricato, A. V. Marenich, 
 J. Bloino, B. G. Janesko, R. Gomperts, B. Mennucci, H. P. Hratchian, 
 J. V. Ortiz, A. F. Izmaylov, J. L. Sonnenberg, D. Williams-Young, 
 F. Ding, F. Lipparini, F. Egidi, J. Goings, B. Peng, A. Petrone, 
 T. Henderson, D. Ranasinghe, V. G. Zakrzewski, J. Gao, N. Rega, 
 G. Zheng, W. Liang, M. Hada, M. Ehara, K. Toyota, R. Fukuda, 
 J. Hasegawa, M. Ishida, T. Nakajima, Y. Honda, O. Kitao, H. Nakai, 
 T. Vreven, K. Throssell, J. A. Montgomery, Jr., J. E. Peralta, 
 F. Ogliaro, M. J. Bearpark, J. J. Heyd, E. N. Brothers, K. N. Kudin, 
 V. N. Staroverov, T. A. Keith, R. Kobayashi, J. Normand, 
 K. Raghavachari, A. P. Rendell, J. C. Burant, S. S. Iyengar, 
 J. Tomasi, M. Cossi, J. M. Millam, M. Klene, C. Adamo, R. Cammi, 
 J. W. Ochterski, R. L. Martin, K. Morokuma, O. Farkas, 
 J. B. Foresman, and D. J. Fox, Gaussian, Inc., Wallingford CT, 2016.
 
 ******************************************
 Gaussian 16:  ES64L-G16RevA.03 25-Dec-2016
                15-Jul-2023 
 ******************************************
 %mem=10GB
 %nprocshared=24
 Will use up to   24 processors via shared memory.
 ----------------------------------------------------------------------
 # opt=(calcfc,ts,noeigentest) freq 6-31+g(d,p) integral=grid=ultrafine
  m062x
 ----------------------------------------------------------------------
 1/5=1,10=4,11=1,18=20,26=4,38=1/1,3;
 2/9=110,12=2,17=6,18=5,40=1/2;
 3/5=1,6=6,7=111,11=2,25=1,30=1,71=2,74=-55,75=-5,140=1/1,2,3;
 4//1;
 5/5=2,38=5/2;
 8/6=4,10=90,11=11/1;
 11/6=1,8=1,9=11,15=111,16=1/1,2,10;
 10/6=1,13=1/2;
 6/7=2,8=2,9=2,10=2,28=1/1;
 7/10=1,18=20,25=1/1,2,3,16;
 1/5=1,10=4,11=1,18=20,26=4/3(2);
 2/9=110/2;
 99//99;
 2/9=110/2;
 3/5=1,6=6,7=111,11=2,25=1,30=1,71=1,74=-55,75=-5/1,2,3;
 4/5=5,16=3,69=1/1;
 5/5=2,38=5/2;
 7//1,2,3,16;
 1/5=1,11=1,18=20,26=4/3(-5);
 2/9=110/2;
 6/7=2,8=2,9=2,10=2,19=2,28=1/1;
 99/9=1/99;
 ----------
 2-H-1-H-Tz
 ----------
 Symbolic Z-matrix:
 Charge =  1 Multiplicity = 1
 N                    -0.56169  -0.90033   0.00024 
 N                    -1.85149  -0.74439   0.00004 
 C                    -2.15738   0.5638   -0.00013 
 C                    -0.94048   1.23404  -0.00008 
 N                    -0.01213   0.27006   0.00015 
 H                    -3.17822   0.91514  -0.00025 
 H                    -0.69855   2.28624  -0.00021 
 H                    -2.47669  -1.55686  -0.00001 
 H                     0.37664  -1.60912  -0.00008 
 C                     1.60514   0.03445  -0.00003 
 O                     1.72417  -1.20409  -0.00023 
 O                     2.26462   1.02828   0.0001 
 

 GradGradGradGradGradGradGradGradGradGradGradGradGradGradGradGradGradGrad
 Berny optimization.
 Initialization pass.
                           ----------------------------
                           !    Initial Parameters    !
                           ! (Angstroms and Degrees)  !
 --------------------------                            --------------------------
 ! Name  Definition              Value          Derivative Info.                !
 --------------------------------------------------------------------------------
 ! R1    R(1,2)                  1.2992         calculate D2E/DX2 analytically  !
 ! R2    R(1,5)                  1.293          calculate D2E/DX2 analytically  !
 ! R3    R(1,9)                  1.1759         calculate D2E/DX2 analytically  !
 ! R4    R(2,3)                  1.3435         calculate D2E/DX2 analytically  !
 ! R5    R(2,8)                  1.0252         calculate D2E/DX2 analytically  !
 ! R6    R(3,4)                  1.3893         calculate D2E/DX2 analytically  !
 ! R7    R(3,6)                  1.0796         calculate D2E/DX2 analytically  !
 ! R8    R(4,5)                  1.3383         calculate D2E/DX2 analytically  !
 ! R9    R(4,7)                  1.0797         calculate D2E/DX2 analytically  !
 ! R10   R(5,10)                 1.6343         calculate D2E/DX2 analytically  !
 ! R11   R(10,11)                1.2442         calculate D2E/DX2 analytically  !
 ! R12   R(10,12)                1.1927         calculate D2E/DX2 analytically  !
 ! A1    A(2,1,5)              108.2587         calculate D2E/DX2 analytically  !
 ! A2    A(2,1,9)              149.8269         calculate D2E/DX2 analytically  !
 ! A3    A(5,1,9)              101.9145         calculate D2E/DX2 analytically  !
 ! A4    A(1,2,3)              110.0544         calculate D2E/DX2 analytically  !
 ! A5    A(1,2,8)              120.6852         calculate D2E/DX2 analytically  !
 ! A6    A(3,2,8)              129.2604         calculate D2E/DX2 analytically  !
 ! A7    A(2,3,4)              105.6843         calculate D2E/DX2 analytically  !
 ! A8    A(2,3,6)              122.1524         calculate D2E/DX2 analytically  !
 ! A9    A(4,3,6)              132.1633         calculate D2E/DX2 analytically  !
 ! A10   A(3,4,5)              105.0761         calculate D2E/DX2 analytically  !
 ! A11   A(3,4,7)              131.7942         calculate D2E/DX2 analytically  !
 ! A12   A(5,4,7)              123.1296         calculate D2E/DX2 analytically  !
 ! A13   A(1,5,4)              110.9265         calculate D2E/DX2 analytically  !
 ! A14   A(1,5,10)             106.8638         calculate D2E/DX2 analytically  !
 ! A15   A(4,5,10)             142.2098         calculate D2E/DX2 analytically  !
 ! A16   A(5,10,11)            103.7779         calculate D2E/DX2 analytically  !
 ! A17   A(5,10,12)            115.2787         calculate D2E/DX2 analytically  !
 ! A18   A(11,10,12)           140.9433         calculate D2E/DX2 analytically  !
 ! D1    D(5,1,2,3)             -0.0024         calculate D2E/DX2 analytically  !
 ! D2    D(5,1,2,8)            179.9948         calculate D2E/DX2 analytically  !
 ! D3    D(9,1,2,3)           -179.9492         calculate D2E/DX2 analytically  !
 ! D4    D(9,1,2,8)              0.048          calculate D2E/DX2 analytically  !
 ! D5    D(2,1,5,4)              0.0016         calculate D2E/DX2 analytically  !
 ! D6    D(2,1,5,10)          -179.9844         calculate D2E/DX2 analytically  !
 ! D7    D(9,1,5,4)            179.9743         calculate D2E/DX2 analytically  !
 ! D8    D(9,1,5,10)            -0.0118         calculate D2E/DX2 analytically  !
 ! D9    D(1,2,3,4)              0.0023         calculate D2E/DX2 analytically  !
 ! D10   D(1,2,3,6)           -179.9965         calculate D2E/DX2 analytically  !
 ! D11   D(8,2,3,4)           -179.9946         calculate D2E/DX2 analytically  !
 ! D12   D(8,2,3,6)              0.0066         calculate D2E/DX2 analytically  !
 ! D13   D(2,3,4,5)             -0.0012         calculate D2E/DX2 analytically  !
 ! D14   D(2,3,4,7)            179.9974         calculate D2E/DX2 analytically  !
 ! D15   D(6,3,4,5)            179.9974         calculate D2E/DX2 analytically  !
 ! D16   D(6,3,4,7)             -0.004          calculate D2E/DX2 analytically  !
 ! D17   D(3,4,5,1)             -0.0002         calculate D2E/DX2 analytically  !
 ! D18   D(3,4,5,10)           179.978          calculate D2E/DX2 analytically  !
 ! D19   D(7,4,5,1)           -179.999          calculate D2E/DX2 analytically  !
 ! D20   D(7,4,5,10)            -0.0208         calculate D2E/DX2 analytically  !
 ! D21   D(1,5,10,11)            0.0105         calculate D2E/DX2 analytically  !
 ! D22   D(1,5,10,12)         -179.9877         calculate D2E/DX2 analytically  !
 ! D23   D(4,5,10,11)         -179.9682         calculate D2E/DX2 analytically  !
 ! D24   D(4,5,10,12)            0.0336         calculate D2E/DX2 analytically  !
 --------------------------------------------------------------------------------
 Trust Radius=3.00D-01 FncErr=1.00D-07 GrdErr=1.00D-06 EigMax=2.50D+02 EigMin=1.00D-04
 Number of steps in this run=     64 maximum allowed number of steps=    100.
 Search for a saddle point of order  1.
 GradGradGradGradGradGradGradGradGradGradGradGradGradGradGradGradGradGrad

                          Input orientation:                          
 ---------------------------------------------------------------------
 Center     Atomic      Atomic             Coordinates (Angstroms)
 Number     Number       Type             X           Y           Z
 ---------------------------------------------------------------------
      1          7           0       -0.561687   -0.900331    0.000239
      2          7           0       -1.851485   -0.744394    0.000043
      3          6           0       -2.157375    0.563800   -0.000131
      4          6           0       -0.940484    1.234040   -0.000081
      5          7           0       -0.012134    0.270058    0.000146
      6          1           0       -3.178217    0.915136   -0.000253
      7          1           0       -0.698549    2.286240   -0.000208
      8          1           0       -2.476693   -1.556864   -0.000006
      9          1           0        0.376635   -1.609123   -0.000083
     10          6           0        1.605141    0.034454   -0.000028
     11          8           0        1.724168   -1.204088   -0.000230
     12          8           0        2.264617    1.028277    0.000103
 ---------------------------------------------------------------------
                    Distance matrix (angstroms):
                    1          2          3          4          5
     1  N    0.000000
     2  N    1.299190   0.000000
     3  C    2.165618   1.343481   0.000000
     4  C    2.167724   2.178101   1.389261   0.000000
     5  N    1.292988   2.100553   2.165258   1.338318   0.000000
     6  H    3.184674   2.124678   1.079609   2.260343   3.231131
     7  H    3.189509   3.242530   2.257205   1.079656   2.129825
     8  H    2.024422   1.025179   2.144570   3.185763   3.067849
     9  H    1.175940   2.390037   3.338083   3.133429   1.918974
    10  C    2.359866   3.543285   3.799570   2.814110   1.634346
    11  O    2.305949   3.605082   4.265185   3.611764   2.277685
    12  O    3.421626   4.481591   4.446319   3.211699   2.399686
                    6          7          8          9         10
     6  H    0.000000
     7  H    2.833492   0.000000
     8  H    2.569615   4.234530   0.000000
     9  H    4.359915   4.041024   2.853807   0.000000
    10  C    4.863755   3.221417   4.381057   2.051968   0.000000
    11  O    5.340832   4.248758   4.215648   1.407089   1.244248
    12  O    5.444010   3.219134   5.400275   3.243510   1.192725
                   11         12
    11  O    0.000000
    12  O    2.296854   0.000000
 Stoichiometry    C3H4N3O2(1+)
 Framework group  C1[X(C3H4N3O2)]
 Deg. of freedom    30
 Full point group                 C1      NOp   1
 Largest Abelian subgroup         C1      NOp   1
 Largest concise Abelian subgroup C1      NOp   1
                         Standard orientation:                         
 ---------------------------------------------------------------------
 Center     Atomic      Atomic             Coordinates (Angstroms)
 Number     Number       Type             X           Y           Z
 ---------------------------------------------------------------------
      1          7           0        0.561687   -0.900331   -0.000239
      2          7           0        1.851485   -0.744394   -0.000043
      3          6           0        2.157375    0.563800    0.000131
      4          6           0        0.940484    1.234040    0.000081
      5          7           0        0.012134    0.270058   -0.000146
      6          1           0        3.178217    0.915137    0.000253
      7          1           0        0.698549    2.286240    0.000208
      8          1           0        2.476693   -1.556864    0.000006
      9          1           0       -0.376635   -1.609123    0.000083
     10          6           0       -1.605141    0.034454    0.000028
     11          8           0       -1.724168   -1.204088    0.000230
     12          8           0       -2.264617    1.028277   -0.000103
 ---------------------------------------------------------------------
 Rotational constants (GHZ):           5.4055270           1.7068812           1.2972529
 Standard basis: 6-31+G(d,p) (6D, 7F)
 There are   172 symmetry adapted cartesian basis functions of A   symmetry.
 There are   172 symmetry adapted basis functions of A   symmetry.
   172 basis functions,   284 primitive gaussians,   172 cartesian basis functions
    29 alpha electrons       29 beta electrons
       nuclear repulsion energy       375.4067944408 Hartrees.
 NAtoms=   12 NActive=   12 NUniq=   12 SFac= 1.00D+00 NAtFMM=   60 NAOKFM=F Big=F
 Integral buffers will be    131072 words long.
 Raffenetti 2 integral format.
 Two-electron integral symmetry is turned on.
 One-electron integrals computed using PRISM.
 NBasis=   172 RedAO= T EigKep=  2.34D-05  NBF=   172
 NBsUse=   172 1.00D-06 EigRej= -1.00D+00 NBFU=   172
 ExpMin= 4.38D-02 ExpMax= 5.48D+03 ExpMxC= 8.25D+02 IAcc=3 IRadAn=         5 AccDes= 0.00D+00
 Harris functional with IExCor= 1009 and IRadAn=       5 diagonalized for initial guess.
 HarFok:  IExCor= 1009 AccDes= 0.00D+00 IRadAn=         5 IDoV= 1 UseB2=F ITyADJ=14
 ICtDFT=  3500011 ScaDFX=  1.000000  1.000000  1.000000  1.000000
 FoFCou: FMM=F IPFlag=           0 FMFlag=      100000 FMFlg1=           0
         NFxFlg=           0 DoJE=T BraDBF=F KetDBF=T FulRan=T
         wScrn=  0.000000 ICntrl=       500 IOpCl=  0 I1Cent=   200000004 NGrid=           0
         NMat0=    1 NMatS0=      1 NMatT0=    0 NMatD0=    1 NMtDS0=    0 NMtDT0=    0
 Petite list used in FoFCou.
 Keep R1 ints in memory in canonical form, NReq=134699993.
 Requested convergence on RMS density matrix=1.00D-08 within 128 cycles.
 Requested convergence on MAX density matrix=1.00D-06.
 Requested convergence on             energy=1.00D-06.
 No special actions if energy rises.
 SCF Done:  E(RM062X) =  -430.923030194     A.U. after   15 cycles
            NFock= 15  Conv=0.24D-08     -V/T= 2.0081
 DoSCS=F DFT=T ScalE2(SS,OS)=  1.000000  1.000000
 Range of M.O.s used for correlation:     1   172
 NBasis=   172 NAE=    29 NBE=    29 NFC=     0 NFV=     0
 NROrb=    172 NOA=    29 NOB=    29 NVA=   143 NVB=   143

 **** Warning!!: The largest alpha MO coefficient is  0.55907632D+02

 Symmetrizing basis deriv contribution to polar:
 IMax=3 JMax=2 DiffMx= 0.00D+00
 G2DrvN: will do    13 centers at a time, making    1 passes.
 Calling FoFCou, ICntrl=  3107 FMM=F I1Cent=   0 AccDes= 0.00D+00.
 End of G2Drv F.D. properties file   721 does not exist.
 End of G2Drv F.D. properties file   722 does not exist.
 End of G2Drv F.D. properties file   788 does not exist.
          IDoAtm=111111111111
          Differentiating once with respect to nuclear coordinates.
 Keep R1 ints in memory in canonical form, NReq=134627947.
          There are    39 degrees of freedom in the 1st order CPHF.  IDoFFX=6 NUNeed=     0.
     33 vectors produced by pass  0 Test12= 1.06D-14 2.56D-09 XBig12= 1.82D-01 1.15D-01.
 AX will form    33 AO Fock derivatives at one time.
     33 vectors produced by pass  1 Test12= 1.06D-14 2.56D-09 XBig12= 1.98D-02 6.77D-02.
     33 vectors produced by pass  2 Test12= 1.06D-14 2.56D-09 XBig12= 3.10D-04 4.07D-03.
     33 vectors produced by pass  3 Test12= 1.06D-14 2.56D-09 XBig12= 2.13D-06 2.39D-04.
     33 vectors produced by pass  4 Test12= 1.06D-14 2.56D-09 XBig12= 1.25D-08 2.25D-05.
     33 vectors produced by pass  5 Test12= 1.06D-14 2.56D-09 XBig12= 6.45D-11 1.19D-06.
     31 vectors produced by pass  6 Test12= 1.06D-14 2.56D-09 XBig12= 2.18D-13 7.48D-08.
      5 vectors produced by pass  7 Test12= 1.06D-14 2.56D-09 XBig12= 6.71D-16 5.38D-09.
 InvSVY:  IOpt=1 It=  1 EMax= 8.88D-16
 Solved reduced A of dimension   234 with    33 vectors.
 End of Minotr F.D. properties file   721 does not exist.
 End of Minotr F.D. properties file   722 does not exist.
 End of Minotr F.D. properties file   788 does not exist.

 **********************************************************************

            Population analysis using the SCF density.

 **********************************************************************

 Orbital symmetries:
       Occupied  (A) (A) (A) (A) (A) (A) (A) (A) (A) (A) (A) (A)
                 (A) (A) (A) (A) (A) (A) (A) (A) (A) (A) (A) (A)
                 (A) (A) (A) (A) (A)
       Virtual   (A) (A) (A) (A) (A) (A) (A) (A) (A) (A) (A) (A)
                 (A) (A) (A) (A) (A) (A) (A) (A) (A) (A) (A) (A)
                 (A) (A) (A) (A) (A) (A) (A) (A) (A) (A) (A) (A)
                 (A) (A) (A) (A) (A) (A) (A) (A) (A) (A) (A) (A)
                 (A) (A) (A) (A) (A) (A) (A) (A) (A) (A) (A) (A)
                 (A) (A) (A) (A) (A) (A) (A) (A) (A) (A) (A) (A)
                 (A) (A) (A) (A) (A) (A) (A) (A) (A) (A) (A) (A)
                 (A) (A) (A) (A) (A) (A) (A) (A) (A) (A) (A) (A)
                 (A) (A) (A) (A) (A) (A) (A) (A) (A) (A) (A) (A)
                 (A) (A) (A) (A) (A) (A) (A) (A) (A) (A) (A) (A)
                 (A) (A) (A) (A) (A) (A) (A) (A) (A) (A) (A) (A)
                 (A) (A) (A) (A) (A) (A) (A) (A) (A) (A) (A)
 The electronic state is 1-A.
 Alpha  occ. eigenvalues --  -19.84145 -19.82147 -15.15349 -15.14439 -15.11783
 Alpha  occ. eigenvalues --  -10.90256 -10.86909 -10.85578  -1.55000  -1.41061
 Alpha  occ. eigenvalues --   -1.33258  -1.31411  -1.20947  -1.03156  -1.02465
 Alpha  occ. eigenvalues --   -0.95623  -0.86999  -0.85872  -0.83291  -0.79262
 Alpha  occ. eigenvalues --   -0.76959  -0.74245  -0.72087  -0.70911  -0.65132
 Alpha  occ. eigenvalues --   -0.60084  -0.59423  -0.55206  -0.54741
 Alpha virt. eigenvalues --   -0.25819  -0.18289  -0.16952  -0.12563  -0.12109
 Alpha virt. eigenvalues --   -0.10739  -0.10696  -0.08700  -0.08278  -0.07342
 Alpha virt. eigenvalues --   -0.06805  -0.05333  -0.04541  -0.04370  -0.03597
 Alpha virt. eigenvalues --   -0.01750  -0.01165   0.00282   0.00671   0.00964
 Alpha virt. eigenvalues --    0.02242   0.03263   0.04181   0.05475   0.06613
 Alpha virt. eigenvalues --    0.06657   0.06854   0.09341   0.10512   0.11564
 Alpha virt. eigenvalues --    0.12698   0.13888   0.14533   0.15548   0.17666
 Alpha virt. eigenvalues --    0.17875   0.18210   0.18988   0.19902   0.21982
 Alpha virt. eigenvalues --    0.23004   0.24815   0.25859   0.29061   0.31322
 Alpha virt. eigenvalues --    0.35115   0.45661   0.48603   0.51973   0.53430
 Alpha virt. eigenvalues --    0.61240   0.61894   0.63191   0.66988   0.67527
 Alpha virt. eigenvalues --    0.67917   0.69384   0.71537   0.72122   0.73824
 Alpha virt. eigenvalues --    0.75678   0.76169   0.81040   0.85189   0.90162
 Alpha virt. eigenvalues --    0.94564   0.99769   1.00816   1.02823   1.03178
 Alpha virt. eigenvalues --    1.06352   1.06517   1.08774   1.10696   1.11759
 Alpha virt. eigenvalues --    1.13736   1.17550   1.19386   1.20255   1.22611
 Alpha virt. eigenvalues --    1.24667   1.26358   1.33191   1.33729   1.36492
 Alpha virt. eigenvalues --    1.38552   1.45208   1.50343   1.50831   1.54527
 Alpha virt. eigenvalues --    1.61995   1.62657   1.62822   1.69745   1.74495
 Alpha virt. eigenvalues --    1.74572   1.78527   1.80465   1.82571   1.87522
 Alpha virt. eigenvalues --    1.91238   1.91568   1.93150   1.97914   1.98432
 Alpha virt. eigenvalues --    2.05095   2.10922   2.12752   2.13040   2.17594
 Alpha virt. eigenvalues --    2.20035   2.24919   2.25818   2.27728   2.30094
 Alpha virt. eigenvalues --    2.36380   2.39037   2.42128   2.45989   2.54039
 Alpha virt. eigenvalues --    2.54306   2.59785   2.63937   2.68994   2.75350
 Alpha virt. eigenvalues --    2.83372   2.92897   2.96936   2.99572   3.04758
 Alpha virt. eigenvalues --    3.07533   3.13585   3.20233   3.42888   3.55737
 Alpha virt. eigenvalues --    3.79843   3.94696   4.06523   4.14773   4.26701
 Alpha virt. eigenvalues --    4.41760   4.50352   4.63969
          Condensed to atoms (all electrons):
               1          2          3          4          5          6
     1  N    9.266506  -2.138808   0.667820  -0.647739  -0.497801   0.017666
     2  N   -2.138808   8.616476  -0.276906   0.471854   0.424684  -0.038864
     3  C    0.667820  -0.276906   5.592246  -0.163197  -0.171187   0.354224
     4  C   -0.647739   0.471854  -0.163197   5.652453   0.515222   0.015345
     5  N   -0.497801   0.424684  -0.171187   0.515222   7.170066  -0.010354
     6  H    0.017666  -0.038864   0.354224   0.015345  -0.010354   0.371900
     7  H   -0.009185   0.006873  -0.020929   0.398097  -0.033111   0.000020
     8  H    0.029021   0.265667   0.019000  -0.022934   0.003234  -0.000943
     9  H    0.073497   0.111287  -0.017465   0.017270  -0.016733   0.000009
    10  C    0.176294  -0.078855   0.012362  -0.061614  -0.212605   0.000092
    11  O    0.089762  -0.024850   0.025450  -0.026067  -0.149197   0.000032
    12  O    0.023665  -0.003670   0.023087  -0.065698  -0.024983  -0.000027
               7          8          9         10         11         12
     1  N   -0.009185   0.029021   0.073497   0.176294   0.089762   0.023665
     2  N    0.006873   0.265667   0.111287  -0.078855  -0.024850  -0.003670
     3  C   -0.020929   0.019000  -0.017465   0.012362   0.025450   0.023087
     4  C    0.398097  -0.022934   0.017270  -0.061614  -0.026067  -0.065698
     5  N   -0.033111   0.003234  -0.016733  -0.212605  -0.149197  -0.024983
     6  H    0.000020  -0.000943   0.000009   0.000092   0.000032  -0.000027
     7  H    0.369267  -0.000055   0.000021  -0.003064  -0.000851   0.001162
     8  H   -0.000055   0.276103  -0.000172   0.001675   0.000357   0.000010
     9  H    0.000021  -0.000172   0.233546  -0.009475   0.099003   0.001556
    10  C   -0.003064   0.001675  -0.009475   4.545832   0.325464   0.506210
    11  O   -0.000851   0.000357   0.099003   0.325464   8.223625  -0.129769
    12  O    0.001162   0.000010   0.001556   0.506210  -0.129769   8.042220
 Mulliken charges:
               1
     1  N   -0.050698
     2  N   -0.334887
     3  C   -0.044504
     4  C   -0.082991
     5  N    0.002766
     6  H    0.290900
     7  H    0.291755
     8  H    0.429037
     9  H    0.507657
    10  C    0.797684
    11  O   -0.432959
    12  O   -0.373761
 Sum of Mulliken charges =   1.00000
 Mulliken charges with hydrogens summed into heavy atoms:
               1
     1  N    0.456959
     2  N    0.094150
     3  C    0.246397
     4  C    0.208764
     5  N    0.002766
    10  C    0.797684
    11  O   -0.432959
    12  O   -0.373761
 APT charges:
               1
     1  N   -0.252995
     2  N   -0.444860
     3  C   -0.385912
     4  C   -0.442416
     5  N   -0.313020
     6  H    0.879382
     7  H    0.649367
     8  H    0.952653
     9  H    0.541395
    10  C    0.270304
    11  O   -0.404990
    12  O   -0.048907
 Sum of APT charges =   1.00000
 APT charges with hydrogens summed into heavy atoms:
               1
     1  N    0.288400
     2  N    0.507792
     3  C    0.493470
     4  C    0.206951
     5  N   -0.313020
    10  C    0.270304
    11  O   -0.404990
    12  O   -0.048907
 Electronic spatial extent (au):  <R**2>=            822.9005
 Charge=              1.0000 electrons
 Dipole moment (field-independent basis, Debye):
    X=             10.8773    Y=             -0.9425    Z=              0.0004  Tot=             10.9181
 Quadrupole moment (field-independent basis, Debye-Ang):
   XX=            -27.8734   YY=            -32.3712   ZZ=            -43.5711
   XY=             -1.4420   XZ=              0.0013   YZ=              0.0013
 Traceless Quadrupole moment (field-independent basis, Debye-Ang):
   XX=              6.7318   YY=              2.2340   ZZ=             -8.9658
   XY=             -1.4420   XZ=              0.0013   YZ=              0.0013
 Octapole moment (field-independent basis, Debye-Ang**2):
  XXX=             75.1088  YYY=             -2.9767  ZZZ=             -0.0004  XYY=             24.8428
  XXY=             -9.4063  XXZ=              0.0026  XZZ=             -3.4685  YZZ=             -1.5989
  YYZ=              0.0021  XYZ=             -0.0002
 Hexadecapole moment (field-independent basis, Debye-Ang**3):
 XXXX=           -560.1081 YYYY=           -197.0633 ZZZZ=            -38.3101 XXXY=            -11.3091
 XXXZ=              0.0110 YYYX=            -13.2395 YYYZ=              0.0030 ZZZX=             -0.0005
 ZZZY=             -0.0006 XXYY=           -135.4107 XXZZ=           -126.7285 YYZZ=            -50.5154
 XXYZ=              0.0057 YYXZ=              0.0027 ZZXY=             -3.2077
 N-N= 3.754067944408D+02 E-N=-1.744538849217D+03  KE= 4.274815031176D+02
  Exact polarizability:   0.000   0.000   0.000   0.000   0.000   0.000
 Approx polarizability:  87.542  -3.517  89.869   0.003   0.002  38.411
 Calling FoFJK, ICntrl=    100147 FMM=F ISym2X=0 I1Cent= 0 IOpClX= 0 NMat=1 NMatS=1 NMatT=0.
 ***** Axes restored to original set *****
 -------------------------------------------------------------------
 Center     Atomic                   Forces (Hartrees/Bohr)
 Number     Number              X              Y              Z
 -------------------------------------------------------------------
      1        7          -0.005135488    0.006278875   -0.000006035
      2        7          -0.009571777   -0.005178560   -0.000003886
      3        6          -0.004613469    0.004131436    0.000001674
      4        6          -0.000349104   -0.001990603    0.000004548
      5        7          -0.020018769    0.000165318   -0.000000882
      6        1          -0.001019066    0.000979387   -0.000001754
      7        1           0.001113982    0.000991907    0.000001135
      8        1           0.002304069    0.002969963    0.000003366
      9        1           0.027517662   -0.000819853    0.000002571
     10        6           0.056403222    0.013972499    0.000003911
     11        8          -0.024029266   -0.006334160    0.000000769
     12        8          -0.022601995   -0.015166209   -0.000005417
 -------------------------------------------------------------------
 Cartesian Forces:  Max     0.056403222 RMS     0.013058247
 FormGI is forming the generalized inverse of G from B-inverse, IUseBI=4.

 GradGradGradGradGradGradGradGradGradGradGradGradGradGradGradGradGradGrad
 Berny optimization.
 Internal  Forces:  Max     0.030595715 RMS     0.010124651
 Search for a saddle point.
 Step number   1 out of a maximum of   64
 All quantities printed in internal units (Hartrees-Bohrs-Radians)
 Swapping is turned off.
 Second derivative matrix not updated -- analytic derivatives used.
 ITU=  0
     Eigenvalues ---   -0.19631  -0.00129   0.00888   0.01221   0.01647
     Eigenvalues ---    0.02340   0.02945   0.03957   0.05984   0.07144
     Eigenvalues ---    0.10101   0.10702   0.11964   0.15324   0.15943
     Eigenvalues ---    0.22303   0.23786   0.27061   0.32486   0.38522
     Eigenvalues ---    0.38579   0.42158   0.43774   0.47573   0.47841
     Eigenvalues ---    0.58663   0.59728   0.68676   0.89774   0.96535
 Eigenvectors required to have negative eigenvalues:
                          R3        A2        A3        R10       A14
   1                    0.70028   0.40729  -0.35922  -0.26700  -0.18733
                          A17       R11       A18       A15       A13
   1                    0.17945   0.16399  -0.12362   0.12255   0.06478
 RFO step:  Lambda0=6.504923776D-03 Lambda=-2.84002702D-02.
 Linear search not attempted -- option 19 set.
 Maximum step size (   0.300) exceeded in Quadratic search.
    -- Step size scaled by   0.471
 Iteration  1 RMS(Cart)=  0.05247405 RMS(Int)=  0.00784975
 Iteration  2 RMS(Cart)=  0.01039233 RMS(Int)=  0.00158264
 Iteration  3 RMS(Cart)=  0.00002878 RMS(Int)=  0.00158253
 Iteration  4 RMS(Cart)=  0.00000003 RMS(Int)=  0.00158253
 Variable       Old X    -DE/DX   Delta X   Delta X   Delta X     New X
                                 (Linear)    (Quad)   (Total)
    R1        2.45511   0.00927   0.00000   0.01121   0.01159   2.46670
    R2        2.44339  -0.01585   0.00000  -0.00683  -0.00617   2.43723
    R3        2.22220   0.02245   0.00000  -0.00002  -0.00002   2.22218
    R4        2.53881   0.00793   0.00000   0.00200   0.00162   2.54043
    R5        1.93731  -0.00376   0.00000  -0.00573  -0.00573   1.93158
    R6        2.62532   0.00502   0.00000   0.00220   0.00154   2.62687
    R7        2.04017   0.00128   0.00000   0.00096   0.00096   2.04112
    R8        2.52905  -0.00026   0.00000   0.00168   0.00173   2.53078
    R9        2.04025   0.00122   0.00000  -0.00013  -0.00013   2.04012
   R10        3.08847   0.01076   0.00000   0.25589   0.25589   3.34436
   R11        2.35129   0.00401   0.00000  -0.02351  -0.02351   2.32778
   R12        2.25392  -0.02513   0.00000  -0.03680  -0.03680   2.21712
    A1        1.88947   0.00075   0.00000   0.01212   0.01109   1.90056
    A2        2.61497   0.01733   0.00000  -0.02092  -0.02335   2.59162
    A3        1.77874  -0.01808   0.00000   0.00888   0.00516   1.78390
    A4        1.92081  -0.00364   0.00000  -0.00687  -0.00614   1.91467
    A5        2.10635   0.00180   0.00000   0.00344   0.00307   2.10942
    A6        2.25602   0.00183   0.00000   0.00343   0.00303   2.25904
    A7        1.84454  -0.00253   0.00000  -0.00470  -0.00489   1.83965
    A8        2.13196   0.00187   0.00000   0.00168   0.00176   2.13372
    A9        2.30668   0.00066   0.00000   0.00303   0.00311   2.30980
   A10        1.83392  -0.00211   0.00000   0.01199   0.01220   1.84613
   A11        2.30024   0.00194   0.00000  -0.00923  -0.00935   2.29089
   A12        2.14902   0.00017   0.00000  -0.00276  -0.00286   2.14616
   A13        1.93603   0.00752   0.00000  -0.01254  -0.01235   1.92369
   A14        1.86512  -0.03015   0.00000  -0.04539  -0.04713   1.81800
   A15        2.48203   0.02263   0.00000   0.05796   0.05487   2.53690
   A16        1.81127  -0.03060   0.00000  -0.06169  -0.06172   1.74955
   A17        2.01199   0.00353   0.00000  -0.03569  -0.03572   1.97627
   A18        2.45993   0.02707   0.00000   0.09738   0.09735   2.55728
    D1       -0.00004  -0.00000   0.00000   0.01049   0.01200   0.01196
    D2        3.14150  -0.00000   0.00000   0.00210   0.00243  -3.13926
    D3       -3.14071   0.00000   0.00000  -0.15937  -0.15663   2.98585
    D4        0.00084   0.00000   0.00000  -0.16776  -0.16621  -0.16537
    D5        0.00003   0.00000   0.00000  -0.00538  -0.00719  -0.00716
    D6       -3.14132  -0.00001   0.00000  -0.08723  -0.08315   3.05871
    D7        3.14114   0.00001   0.00000   0.08186   0.08267  -3.05937
    D8       -0.00021   0.00001   0.00000   0.00000   0.00671   0.00650
    D9        0.00004   0.00000   0.00000  -0.01123  -0.01176  -0.01172
   D10       -3.14153  -0.00000   0.00000  -0.00620  -0.00665   3.13500
   D11       -3.14150   0.00000   0.00000  -0.00192  -0.00112   3.14057
   D12        0.00012  -0.00000   0.00000   0.00311   0.00399   0.00411
   D13       -0.00002  -0.00000   0.00000   0.00761   0.00719   0.00717
   D14        3.14155  -0.00000   0.00000   0.01062   0.01161  -3.13003
   D15        3.14155   0.00000   0.00000   0.00187   0.00135  -3.14029
   D16       -0.00007   0.00000   0.00000   0.00487   0.00577   0.00570
   D17       -0.00000   0.00000   0.00000  -0.00158  -0.00022  -0.00022
   D18        3.14121  -0.00001   0.00000   0.12622   0.12954  -3.01243
   D19       -3.14158   0.00000   0.00000  -0.00426  -0.00418   3.13743
   D20       -0.00036  -0.00000   0.00000   0.12354   0.12558   0.12522
   D21        0.00018  -0.00000   0.00000   0.00789   0.00831   0.00849
   D22       -3.14138  -0.00000   0.00000   0.01795   0.01836  -3.12302
   D23       -3.14104   0.00000   0.00000  -0.11685  -0.11726   3.02489
   D24        0.00059  -0.00000   0.00000  -0.10679  -0.10720  -0.10662
         Item               Value     Threshold  Converged?
 Maximum Force            0.030596     0.000450     NO 
 RMS     Force            0.010125     0.000300     NO 
 Maximum Displacement     0.200687     0.001800     NO 
 RMS     Displacement     0.058420     0.001200     NO 
 Predicted change in Energy=-9.100234D-03
 GradGradGradGradGradGradGradGradGradGradGradGradGradGradGradGradGradGrad

                          Input orientation:                          
 ---------------------------------------------------------------------
 Center     Atomic      Atomic             Coordinates (Angstroms)
 Number     Number       Type             X           Y           Z
 ---------------------------------------------------------------------
      1          7           0       -0.561069   -0.866118   -0.053535
      2          7           0       -1.859461   -0.742096   -0.001898
      3          6           0       -2.190109    0.560878    0.011591
      4          6           0       -0.982510    1.248623   -0.020503
      5          7           0       -0.029215    0.308821   -0.059753
      6          1           0       -3.216749    0.894708    0.046458
      7          1           0       -0.765037    2.306059   -0.013948
      8          1           0       -2.464638   -1.565693    0.013483
      9          1           0        0.382267   -1.565825    0.004197
     10          6           0        1.711340   -0.003344    0.011417
     11          8           0        1.712441   -1.235036    0.028272
     12          8           0        2.356676    0.976228    0.033732
 ---------------------------------------------------------------------
                    Distance matrix (angstroms):
                    1          2          3          4          5
     1  N    0.000000
     2  N    1.305324   0.000000
     3  C    2.166640   1.344340   0.000000
     4  C    2.156579   2.175396   1.390078   0.000000
     5  N    1.289725   2.111297   2.176714   1.339231   0.000000
     6  H    3.187969   2.126898   1.080115   2.263087   3.242671
     7  H    3.178974   3.238696   2.253250   1.079587   2.128965
     8  H    2.029155   1.022148   2.144218   3.180916   3.074159
     9  H    1.175928   2.388287   3.337670   3.127994   1.920340
    10  C    2.431551   3.646444   3.942036   2.970735   1.769758
    11  O    2.304699   3.605882   4.295983   3.665201   2.329078
    12  O    3.451824   4.552990   4.565770   3.350717   2.479243
                    6          7          8          9         10
     6  H    0.000000
     7  H    2.829567   0.000000
     8  H    2.573000   4.228457   0.000000
     9  H    4.359923   4.038332   2.846920   0.000000
    10  C    5.009370   3.386212   4.458669   2.051300   0.000000
    11  O    5.369641   4.321924   4.190171   1.370898   1.231807
    12  O    5.574035   3.393496   5.450398   3.218881   1.173251
                   11         12
    11  O    0.000000
    12  O    2.303206   0.000000
 Stoichiometry    C3H4N3O2(1+)
 Framework group  C1[X(C3H4N3O2)]
 Deg. of freedom    30
 Full point group                 C1      NOp   1
 Largest Abelian subgroup         C1      NOp   1
 Largest concise Abelian subgroup C1      NOp   1
                         Standard orientation:                         
 ---------------------------------------------------------------------
 Center     Atomic      Atomic             Coordinates (Angstroms)
 Number     Number       Type             X           Y           Z
 ---------------------------------------------------------------------
      1          7           0        0.558256   -0.870159    0.044107
      2          7           0        1.857939   -0.765356   -0.016818
      3          6           0        2.207802    0.532582   -0.031022
      4          6           0        1.010820    1.238135    0.010754
      5          7           0        0.043977    0.312537    0.055721
      6          1           0        3.239009    0.851181   -0.072927
      7          1           0        0.809040    2.298692    0.007156
      8          1           0        2.450685   -1.597825   -0.037674
      9          1           0       -0.395766   -1.555701   -0.007667
     10          6           0       -1.701495    0.026350   -0.003183
     11          8           0       -1.721017   -1.205165   -0.021629
     12          8           0       -2.332351    1.015426   -0.019528
 ---------------------------------------------------------------------
 Rotational constants (GHZ):           5.4416662           1.6310431           1.2555790
 Standard basis: 6-31+G(d,p) (6D, 7F)
 There are   172 symmetry adapted cartesian basis functions of A   symmetry.
 There are   172 symmetry adapted basis functions of A   symmetry.
   172 basis functions,   284 primitive gaussians,   172 cartesian basis functions
    29 alpha electrons       29 beta electrons
       nuclear repulsion energy       372.1914670126 Hartrees.
 NAtoms=   12 NActive=   12 NUniq=   12 SFac= 1.00D+00 NAtFMM=   60 NAOKFM=F Big=F
 Integral buffers will be    131072 words long.
 Raffenetti 2 integral format.
 Two-electron integral symmetry is turned on.
 One-electron integrals computed using PRISM.
 NBasis=   172 RedAO= T EigKep=  2.56D-05  NBF=   172
 NBsUse=   172 1.00D-06 EigRej= -1.00D+00 NBFU=   172
 Initial guess from the checkpoint file:  "/scratch/gongke2021/2-H-1-H-Tz-2-TS-gas/Gau-4365.chk"
 B after Tr=     0.000000   -0.000000   -0.000000
         Rot=    0.999997    0.000409   -0.000048    0.002435 Ang=   0.28 deg.
 ExpMin= 4.38D-02 ExpMax= 5.48D+03 ExpMxC= 8.25D+02 IAcc=2 IRadAn=         4 AccDes= 0.00D+00
 Harris functional with IExCor= 1009 and IRadAn=       4 diagonalized for initial guess.
 HarFok:  IExCor= 1009 AccDes= 0.00D+00 IRadAn=         4 IDoV= 1 UseB2=F ITyADJ=14
 ICtDFT=  3500011 ScaDFX=  1.000000  1.000000  1.000000  1.000000
 FoFCou: FMM=F IPFlag=           0 FMFlag=      100000 FMFlg1=           0
         NFxFlg=           0 DoJE=T BraDBF=F KetDBF=T FulRan=T
         wScrn=  0.000000 ICntrl=       500 IOpCl=  0 I1Cent=   200000004 NGrid=           0
         NMat0=    1 NMatS0=      1 NMatT0=    0 NMatD0=    1 NMtDS0=    0 NMtDT0=    0
 Petite list used in FoFCou.
 Keep R1 ints in memory in canonical form, NReq=134699993.
 Requested convergence on RMS density matrix=1.00D-08 within 128 cycles.
 Requested convergence on MAX density matrix=1.00D-06.
 Requested convergence on             energy=1.00D-06.
 No special actions if energy rises.
 SCF Done:  E(RM062X) =  -430.932551007     A.U. after   14 cycles
            NFock= 14  Conv=0.34D-08     -V/T= 2.0080
 Calling FoFJK, ICntrl=      2127 FMM=F ISym2X=0 I1Cent= 0 IOpClX= 0 NMat=1 NMatS=1 NMatT=0.
 ***** Axes restored to original set *****
 -------------------------------------------------------------------
 Center     Atomic                   Forces (Hartrees/Bohr)
 Number     Number              X              Y              Z
 -------------------------------------------------------------------
      1        7          -0.005218950    0.004259468    0.001056627
      2        7          -0.005707045   -0.003315361   -0.000476797
      3        6          -0.002855101    0.002582777    0.000368711
      4        6          -0.001211712   -0.001623033   -0.000567086
      5        7          -0.019743628    0.003775227   -0.000040153
      6        1          -0.000548436    0.000522971   -0.000009337
      7        1           0.000553626    0.000540207   -0.000222932
      8        1           0.001315376    0.001726182   -0.000152388
      9        1           0.016611331   -0.002010590   -0.000786599
     10        6           0.044594266    0.001300677    0.002103568
     11        8          -0.014996672   -0.002600588   -0.000363335
     12        8          -0.012793055   -0.005157938   -0.000910279
 -------------------------------------------------------------------
 Cartesian Forces:  Max     0.044594266 RMS     0.009454485

 GradGradGradGradGradGradGradGradGradGradGradGradGradGradGradGradGradGrad
 Berny optimization.
 FormGI is forming the generalized inverse of G from B-inverse, IUseBI=4.
 Internal  Forces:  Max     0.017699046 RMS     0.006068672
 Search for a saddle point.
 Step number   2 out of a maximum of   64
 All quantities printed in internal units (Hartrees-Bohrs-Radians)
 Swapping is turned off.
 Update second derivatives using D2CorX and points    1    2
 ITU=  0  0
     Eigenvalues ---   -0.19779   0.00259   0.00887   0.01221   0.01646
     Eigenvalues ---    0.02340   0.02920   0.03091   0.05983   0.07144
     Eigenvalues ---    0.10093   0.10699   0.11962   0.15320   0.15665
     Eigenvalues ---    0.22252   0.23729   0.27046   0.32400   0.38522
     Eigenvalues ---    0.38578   0.42135   0.43773   0.47566   0.47815
     Eigenvalues ---    0.58639   0.59716   0.68622   0.89637   0.96472
 Eigenvectors required to have negative eigenvalues:
                          R3        A2        A3        R10       A14
   1                   -0.69356  -0.40373   0.35296   0.28689   0.18443
                          A17       R11       A18       A15       A13
   1                   -0.18129  -0.16454   0.12969  -0.12087  -0.06469
 RFO step:  Lambda0=1.343855433D-03 Lambda=-2.28175910D-02.
 Linear search not attempted -- option 19 set.
 Maximum step size (   0.300) exceeded in Quadratic search.
    -- Step size scaled by   0.462
 Iteration  1 RMS(Cart)=  0.04995253 RMS(Int)=  0.00823775
 Iteration  2 RMS(Cart)=  0.01183270 RMS(Int)=  0.00016406
 Iteration  3 RMS(Cart)=  0.00001277 RMS(Int)=  0.00016392
 Iteration  4 RMS(Cart)=  0.00000000 RMS(Int)=  0.00016392
 Variable       Old X    -DE/DX   Delta X   Delta X   Delta X     New X
                                 (Linear)    (Quad)   (Total)
    R1        2.46670   0.00549   0.00000   0.00746   0.00746   2.47417
    R2        2.43723  -0.00705   0.00000  -0.00258  -0.00258   2.43464
    R3        2.22218   0.01448   0.00000   0.04671   0.04671   2.26889
    R4        2.54043   0.00440   0.00000   0.00139   0.00140   2.54183
    R5        1.93158  -0.00217   0.00000  -0.00446  -0.00446   1.92712
    R6        2.62687   0.00279   0.00000  -0.00070  -0.00070   2.62617
    R7        2.04112   0.00068   0.00000   0.00007   0.00007   2.04119
    R8        2.53078   0.00064   0.00000   0.00420   0.00418   2.53496
    R9        2.04012   0.00064   0.00000  -0.00101  -0.00101   2.03912
   R10        3.34436   0.01770   0.00000   0.26023   0.26023   3.60459
   R11        2.32778   0.00258   0.00000  -0.01666  -0.01666   2.31112
   R12        2.21712  -0.01136   0.00000  -0.03100  -0.03100   2.18612
    A1        1.90056   0.00067   0.00000   0.00844   0.00841   1.90897
    A2        2.59162   0.00898   0.00000   0.00064   0.00068   2.59230
    A3        1.78390  -0.00953   0.00000  -0.01002  -0.01006   1.77384
    A4        1.91467  -0.00187   0.00000  -0.00306  -0.00306   1.91161
    A5        2.10942   0.00089   0.00000   0.00111   0.00111   2.11053
    A6        2.25904   0.00098   0.00000   0.00192   0.00191   2.26095
    A7        1.83965  -0.00134   0.00000  -0.00452  -0.00452   1.83513
    A8        2.13372   0.00100   0.00000   0.00166   0.00166   2.13538
    A9        2.30980   0.00034   0.00000   0.00287   0.00287   2.31266
   A10        1.84613  -0.00047   0.00000   0.01079   0.01076   1.85689
   A11        2.29089   0.00068   0.00000  -0.01062  -0.01061   2.28028
   A12        2.14616  -0.00021   0.00000  -0.00017  -0.00015   2.14600
   A13        1.92369   0.00302   0.00000  -0.01166  -0.01161   1.91208
   A14        1.81800  -0.01575   0.00000  -0.05194  -0.05185   1.76614
   A15        2.53690   0.01280   0.00000   0.06280   0.06269   2.59960
   A16        1.74955  -0.01747   0.00000  -0.06033  -0.06033   1.68922
   A17        1.97627   0.00001   0.00000  -0.02486  -0.02486   1.95142
   A18        2.55728   0.01746   0.00000   0.08519   0.08519   2.64247
    D1        0.01196   0.00012   0.00000   0.00153   0.00173   0.01369
    D2       -3.13926   0.00002   0.00000  -0.00201  -0.00193  -3.14119
    D3        2.98585   0.00007   0.00000  -0.01013  -0.00994   2.97590
    D4       -0.16537  -0.00003   0.00000  -0.01367  -0.01361  -0.17898
    D5       -0.00716  -0.00017   0.00000  -0.00211  -0.00232  -0.00948
    D6        3.05871   0.00123   0.00000  -0.00455  -0.00384   3.05487
    D7       -3.05937  -0.00164   0.00000   0.00378   0.00355  -3.05582
    D8        0.00650  -0.00024   0.00000   0.00133   0.00202   0.00853
    D9       -0.01172  -0.00003   0.00000  -0.00027  -0.00036  -0.01208
   D10        3.13500  -0.00004   0.00000  -0.00154  -0.00160   3.13340
   D11        3.14057   0.00009   0.00000   0.00367   0.00373  -3.13889
   D12        0.00411   0.00008   0.00000   0.00241   0.00249   0.00659
   D13        0.00717  -0.00004   0.00000  -0.00088  -0.00092   0.00625
   D14       -3.13003   0.00008   0.00000  -0.00054  -0.00043  -3.13046
   D15       -3.14029  -0.00002   0.00000   0.00056   0.00049  -3.13980
   D16        0.00570   0.00010   0.00000   0.00090   0.00098   0.00668
   D17       -0.00022   0.00013   0.00000   0.00183   0.00199   0.00177
   D18       -3.01243   0.00065   0.00000   0.01955   0.01989  -2.99255
   D19        3.13743   0.00002   0.00000   0.00149   0.00150   3.13894
   D20        0.12522   0.00054   0.00000   0.01921   0.01941   0.14462
   D21        0.00849  -0.00042   0.00000  -0.00023  -0.00013   0.00836
   D22       -3.12302  -0.00034   0.00000  -0.00147  -0.00136  -3.12438
   D23        3.02489  -0.00028   0.00000  -0.01627  -0.01637   3.00852
   D24       -0.10662  -0.00021   0.00000  -0.01750  -0.01761  -0.12423
         Item               Value     Threshold  Converged?
 Maximum Force            0.017699     0.000450     NO 
 RMS     Force            0.006069     0.000300     NO 
 Maximum Displacement     0.193445     0.001800     NO 
 RMS     Displacement     0.057197     0.001200     NO 
 Predicted change in Energy=-8.661832D-03
 GradGradGradGradGradGradGradGradGradGradGradGradGradGradGradGradGradGrad

                          Input orientation:                          
 ---------------------------------------------------------------------
 Center     Atomic      Atomic             Coordinates (Angstroms)
 Number     Number       Type             X           Y           Z
 ---------------------------------------------------------------------
      1          7           0       -0.562750   -0.829162   -0.056574
      2          7           0       -1.867558   -0.736735   -0.000608
      3          6           0       -2.226292    0.559554    0.012875
      4          6           0       -1.030961    1.267478   -0.023365
      5          7           0       -0.050426    0.352930   -0.063718
      6          1           0       -3.259320    0.872999    0.049343
      7          1           0       -0.842821    2.329993   -0.018303
      8          1           0       -2.451987   -1.572317    0.014137
      9          1           0        0.418658   -1.518005    0.005739
     10          6           0        1.812246   -0.050345    0.015309
     11          8           0        1.696106   -1.267741    0.027970
     12          8           0        2.459043    0.908557    0.036706
 ---------------------------------------------------------------------
                    Distance matrix (angstroms):
                    1          2          3          4          5
     1  N    0.000000
     2  N    1.309274   0.000000
     3  C    2.168116   1.345080   0.000000
     4  C    2.148540   2.171931   1.389707   0.000000
     5  N    1.288358   2.119746   2.186997   1.341445   0.000000
     6  H    3.190621   2.128554   1.080150   2.264174   3.252731
     7  H    3.171776   3.233453   2.247091   1.079055   2.130430
     8  H    2.031378   1.019790   2.143786   3.175714   3.078982
     9  H    1.200646   2.416031   3.363341   3.140248   1.930093
    10  C    2.500467   3.743307   4.084333   3.134004   1.907465
    11  O    2.302592   3.603122   4.327176   3.723824   2.384398
    12  O    3.487062   4.629023   4.698376   3.508925   2.572205
                    6          7          8          9         10
     6  H    0.000000
     7  H    2.822565   0.000000
     8  H    2.575384   4.221196   0.000000
     9  H    4.387063   4.049567   2.871171   0.000000
    10  C    5.155047   3.566023   4.527702   2.023909   0.000000
    11  O    5.398099   4.403633   4.159283   1.301922   1.222989
    12  O    5.718488   3.595248   5.502132   3.170541   1.156847
                   11         12
    11  O    0.000000
    12  O    2.306170   0.000000
 Stoichiometry    C3H4N3O2(1+)
 Framework group  C1[X(C3H4N3O2)]
 Deg. of freedom    30
 Full point group                 C1      NOp   1
 Largest Abelian subgroup         C1      NOp   1
 Largest concise Abelian subgroup C1      NOp   1
                         Standard orientation:                         
 ---------------------------------------------------------------------
 Center     Atomic      Atomic             Coordinates (Angstroms)
 Number     Number       Type             X           Y           Z
 ---------------------------------------------------------------------
      1          7           0        0.553711   -0.838035    0.047613
      2          7           0        1.860402   -0.789028   -0.018392
      3          6           0        2.261944    0.494620   -0.034241
      4          6           0        1.091137    1.241890    0.011443
      5          7           0        0.081063    0.360439    0.059079
      6          1           0        3.304515    0.773552   -0.078583
      7          1           0        0.938412    2.310077    0.008164
      8          1           0        2.416580   -1.643578   -0.037907
      9          1           0       -0.450519   -1.493818   -0.007338
     10          6           0       -1.794547    0.019388   -0.005696
     11          8           0       -1.719069   -1.201191   -0.019631
     12          8           0       -2.409233    0.999284   -0.021803
 ---------------------------------------------------------------------
 Rotational constants (GHZ):           5.4970605           1.5546613           1.2126243
 Standard basis: 6-31+G(d,p) (6D, 7F)
 There are   172 symmetry adapted cartesian basis functions of A   symmetry.
 There are   172 symmetry adapted basis functions of A   symmetry.
   172 basis functions,   284 primitive gaussians,   172 cartesian basis functions
    29 alpha electrons       29 beta electrons
       nuclear repulsion energy       369.0555087483 Hartrees.
 NAtoms=   12 NActive=   12 NUniq=   12 SFac= 1.00D+00 NAtFMM=   60 NAOKFM=F Big=F
 Integral buffers will be    131072 words long.
 Raffenetti 2 integral format.
 Two-electron integral symmetry is turned on.
 One-electron integrals computed using PRISM.
 NBasis=   172 RedAO= T EigKep=  2.61D-05  NBF=   172
 NBsUse=   172 1.00D-06 EigRej= -1.00D+00 NBFU=   172
 Initial guess from the checkpoint file:  "/scratch/gongke2021/2-H-1-H-Tz-2-TS-gas/Gau-4365.chk"
 B after Tr=    -0.000000    0.000000    0.000000
         Rot=    0.999994    0.000961   -0.000122    0.003217 Ang=   0.38 deg.
 ExpMin= 4.38D-02 ExpMax= 5.48D+03 ExpMxC= 8.25D+02 IAcc=2 IRadAn=         4 AccDes= 0.00D+00
 Harris functional with IExCor= 1009 and IRadAn=       4 diagonalized for initial guess.
 HarFok:  IExCor= 1009 AccDes= 0.00D+00 IRadAn=         4 IDoV= 1 UseB2=F ITyADJ=14
 ICtDFT=  3500011 ScaDFX=  1.000000  1.000000  1.000000  1.000000
 FoFCou: FMM=F IPFlag=           0 FMFlag=      100000 FMFlg1=           0
         NFxFlg=           0 DoJE=T BraDBF=F KetDBF=T FulRan=T
         wScrn=  0.000000 ICntrl=       500 IOpCl=  0 I1Cent=   200000004 NGrid=           0
         NMat0=    1 NMatS0=      1 NMatT0=    0 NMatD0=    1 NMtDS0=    0 NMtDT0=    0
 Petite list used in FoFCou.
 Keep R1 ints in memory in canonical form, NReq=134699993.
 Requested convergence on RMS density matrix=1.00D-08 within 128 cycles.
 Requested convergence on MAX density matrix=1.00D-06.
 Requested convergence on             energy=1.00D-06.
 No special actions if energy rises.
 SCF Done:  E(RM062X) =  -430.941497211     A.U. after   13 cycles
            NFock= 13  Conv=0.95D-08     -V/T= 2.0079
 Calling FoFJK, ICntrl=      2127 FMM=F ISym2X=0 I1Cent= 0 IOpClX= 0 NMat=1 NMatS=1 NMatT=0.
 ***** Axes restored to original set *****
 -------------------------------------------------------------------
 Center     Atomic                   Forces (Hartrees/Bohr)
 Number     Number              X              Y              Z
 -------------------------------------------------------------------
      1        7          -0.004221030    0.000946422    0.001646901
      2        7          -0.003473593   -0.001484063   -0.000715054
      3        6          -0.001376815    0.001796826    0.000282452
      4        6          -0.002368889   -0.001252133   -0.000405264
      5        7          -0.018214033    0.006614981   -0.000243044
      6        1          -0.000274342    0.000329118    0.000006106
      7        1           0.000494906    0.000393683   -0.000251579
      8        1           0.000753393    0.000908362   -0.000083342
      9        1           0.008196705   -0.002408777   -0.001309914
     10        6           0.033172311   -0.009208006    0.001732862
     11        8          -0.008162159   -0.002147712   -0.000010346
     12        8          -0.004526456    0.005511300   -0.000649778
 -------------------------------------------------------------------
 Cartesian Forces:  Max     0.033172311 RMS     0.007094173

 GradGradGradGradGradGradGradGradGradGradGradGradGradGradGradGradGradGrad
 Berny optimization.
 FormGI is forming the generalized inverse of G from B-inverse, IUseBI=4.
 Internal  Forces:  Max     0.021284192 RMS     0.003853783
 Search for a saddle point.
 Step number   3 out of a maximum of   64
 All quantities printed in internal units (Hartrees-Bohrs-Radians)
 Swapping is turned off.
 Update second derivatives using D2CorX and points    2    3
 ITU=  0  0  0
     Eigenvalues ---   -0.20657   0.00393   0.00887   0.01221   0.01645
     Eigenvalues ---    0.02335   0.02690   0.03012   0.05984   0.07145
     Eigenvalues ---    0.10083   0.10698   0.11961   0.15316   0.15568
     Eigenvalues ---    0.22230   0.23713   0.27049   0.32383   0.38521
     Eigenvalues ---    0.38578   0.42129   0.43775   0.47565   0.47811
     Eigenvalues ---    0.58666   0.59777   0.68655   0.89670   0.96458
 Eigenvectors required to have negative eigenvalues:
                          R3        A2        R10       A3        A17
   1                    0.66246   0.39450  -0.37054  -0.34323   0.18877
                          A14       R11       A18       A15       A13
   1                   -0.17004   0.16665  -0.15364   0.10382   0.06775
 RFO step:  Lambda0=2.666465074D-06 Lambda=-1.64675437D-02.
 Linear search not attempted -- option 19 set.
 Maximum step size (   0.300) exceeded in Quadratic search.
    -- Step size scaled by   0.494
 Iteration  1 RMS(Cart)=  0.05218957 RMS(Int)=  0.00657011
 Iteration  2 RMS(Cart)=  0.00937130 RMS(Int)=  0.00012271
 Iteration  3 RMS(Cart)=  0.00000912 RMS(Int)=  0.00012261
 Iteration  4 RMS(Cart)=  0.00000000 RMS(Int)=  0.00012261
 Variable       Old X    -DE/DX   Delta X   Delta X   Delta X     New X
                                 (Linear)    (Quad)   (Total)
    R1        2.47417   0.00354   0.00000   0.00582   0.00584   2.48001
    R2        2.43464  -0.00014   0.00000   0.00213   0.00216   2.43680
    R3        2.26889   0.00801   0.00000   0.10115   0.10115   2.37004
    R4        2.54183   0.00211   0.00000   0.00215   0.00213   2.54396
    R5        1.92712  -0.00118   0.00000  -0.00363  -0.00363   1.92349
    R6        2.62617   0.00069   0.00000  -0.00445  -0.00448   2.62169
    R7        2.04119   0.00036   0.00000  -0.00043  -0.00043   2.04075
    R8        2.53496   0.00152   0.00000   0.00678   0.00678   2.54175
    R9        2.03912   0.00047   0.00000  -0.00083  -0.00083   2.03829
   R10        3.60459   0.02128   0.00000   0.24751   0.24751   3.85210
   R11        2.31112   0.00292   0.00000  -0.00552  -0.00552   2.30559
   R12        2.18612   0.00202   0.00000  -0.01745  -0.01745   2.16867
    A1        1.90897  -0.00014   0.00000   0.00077   0.00073   1.90970
    A2        2.59230   0.00340   0.00000   0.03558   0.03555   2.62786
    A3        1.77384  -0.00316   0.00000  -0.03389  -0.03404   1.73980
    A4        1.91161  -0.00030   0.00000   0.00209   0.00211   1.91372
    A5        2.11053   0.00006   0.00000  -0.00218  -0.00219   2.10834
    A6        2.26095   0.00024   0.00000   0.00006   0.00005   2.26100
    A7        1.83513  -0.00055   0.00000  -0.00391  -0.00392   1.83121
    A8        2.13538   0.00052   0.00000   0.00220   0.00221   2.13759
    A9        2.31266   0.00003   0.00000   0.00172   0.00172   2.31439
   A10        1.85689   0.00094   0.00000   0.00788   0.00789   1.86478
   A11        2.28028  -0.00003   0.00000  -0.00628  -0.00628   2.27400
   A12        2.14600  -0.00091   0.00000  -0.00159  -0.00160   2.14441
   A13        1.91208   0.00006   0.00000  -0.00679  -0.00677   1.90531
   A14        1.76614  -0.00409   0.00000  -0.05031  -0.05038   1.71577
   A15        2.59960   0.00409   0.00000   0.05829   0.05827   2.65786
   A16        1.68922  -0.00721   0.00000  -0.05683  -0.05683   1.63239
   A17        1.95142  -0.00389   0.00000  -0.01982  -0.01982   1.93159
   A18        2.64247   0.01109   0.00000   0.07672   0.07671   2.71919
    D1        0.01369   0.00001   0.00000  -0.00236  -0.00236   0.01134
    D2       -3.14119  -0.00012   0.00000  -0.00448  -0.00452   3.13748
    D3        2.97590   0.00056   0.00000   0.01913   0.01935   2.99525
    D4       -0.17898   0.00044   0.00000   0.01701   0.01719  -0.16179
    D5       -0.00948  -0.00017   0.00000   0.00027   0.00022  -0.00925
    D6        3.05487   0.00048   0.00000   0.01305   0.01256   3.06743
    D7       -3.05582  -0.00105   0.00000  -0.01727  -0.01666  -3.07248
    D8        0.00853  -0.00040   0.00000  -0.00449  -0.00432   0.00420
    D9       -0.01208   0.00015   0.00000   0.00343   0.00347  -0.00861
   D10        3.13340  -0.00005   0.00000  -0.00007  -0.00009   3.13331
   D11       -3.13889   0.00029   0.00000   0.00581   0.00590  -3.13299
   D12        0.00659   0.00009   0.00000   0.00231   0.00234   0.00893
   D13        0.00625  -0.00023   0.00000  -0.00318  -0.00326   0.00299
   D14       -3.13046  -0.00017   0.00000  -0.00569  -0.00574  -3.13620
   D15       -3.13980  -0.00001   0.00000   0.00083   0.00082  -3.13898
   D16        0.00668   0.00006   0.00000  -0.00168  -0.00167   0.00501
   D17        0.00177   0.00025   0.00000   0.00186   0.00195   0.00371
   D18       -2.99255   0.00014   0.00000  -0.00679  -0.00689  -2.99944
   D19        3.13894   0.00020   0.00000   0.00412   0.00419  -3.14006
   D20        0.14462   0.00008   0.00000  -0.00454  -0.00465   0.13997
   D21        0.00836  -0.00053   0.00000  -0.00564  -0.00561   0.00275
   D22       -3.12438  -0.00046   0.00000  -0.01062  -0.01059  -3.13497
   D23        3.00852  -0.00030   0.00000   0.00374   0.00371   3.01223
   D24       -0.12423  -0.00023   0.00000  -0.00123  -0.00126  -0.12549
         Item               Value     Threshold  Converged?
 Maximum Force            0.021284     0.000450     NO 
 RMS     Force            0.003854     0.000300     NO 
 Maximum Displacement     0.180020     0.001800     NO 
 RMS     Displacement     0.057830     0.001200     NO 
 Predicted change in Energy=-6.882196D-03
 GradGradGradGradGradGradGradGradGradGradGradGradGradGradGradGradGradGrad

                          Input orientation:                          
 ---------------------------------------------------------------------
 Center     Atomic      Atomic             Coordinates (Angstroms)
 Number     Number       Type             X           Y           Z
 ---------------------------------------------------------------------
      1          7           0       -0.568039   -0.798157   -0.048274
      2          7           0       -1.877684   -0.729222    0.000458
      3          6           0       -2.262926    0.560626    0.012739
      4          6           0       -1.081241    1.286703   -0.020960
      5          7           0       -0.075958    0.393741   -0.054760
      6          1           0       -3.301399    0.855344    0.043445
      7          1           0       -0.917389    2.352799   -0.020375
      8          1           0       -2.444120   -1.574874    0.009435
      9          1           0        0.493355   -1.464302    0.003155
     10          6           0        1.899728   -0.102943    0.017465
     11          8           0        1.675305   -1.302134    0.029271
     12          8           0        2.554305    0.839625    0.027913
 ---------------------------------------------------------------------
                    Distance matrix (angstroms):
                    1          2          3          4          5
     1  N    0.000000
     2  N    1.312363   0.000000
     3  C    2.173167   1.346205   0.000000
     4  C    2.147269   2.167656   1.387337   0.000000
     5  N    1.289499   2.123749   2.194364   1.345034   0.000000
     6  H    3.195894   2.130649   1.079921   2.262592   3.259784
     7  H    3.170387   3.228228   2.241306   1.078614   2.132393
     8  H    2.031330   1.017870   2.143176   3.169698   3.080220
     9  H    1.254173   2.482372   3.420161   3.169852   1.944169
    10  C    2.564667   3.829014   4.215214   3.289189   2.038442
    11  O    2.300565   3.598998   4.356582   3.781950   2.439257
    12  O    3.526637   4.701549   4.825327   3.663258   2.669069
                    6          7          8          9         10
     6  H    0.000000
     7  H    2.816016   0.000000
     8  H    2.577217   4.214073   0.000000
     9  H    4.447756   4.069522   2.939562   0.000000
    10  C    5.288734   3.737412   4.586465   1.957393   0.000000
    11  O    5.424251   4.481413   4.128492   1.193310   1.220067
    12  O    5.855746   3.787438   5.551072   3.091312   1.147613
                   11         12
    11  O    0.000000
    12  O    2.315119   0.000000
 Stoichiometry    C3H4N3O2(1+)
 Framework group  C1[X(C3H4N3O2)]
 Deg. of freedom    30
 Full point group                 C1      NOp   1
 Largest Abelian subgroup         C1      NOp   1
 Largest concise Abelian subgroup C1      NOp   1
                         Standard orientation:                         
 ---------------------------------------------------------------------
 Center     Atomic      Atomic             Coordinates (Angstroms)
 Number     Number       Type             X           Y           Z
 ---------------------------------------------------------------------
      1          7           0        0.549503   -0.810972    0.043322
      2          7           0        1.860604   -0.810782   -0.014220
      3          6           0        2.312726    0.457104   -0.032058
      4          6           0        1.170910    1.244107    0.007750
      5          7           0        0.120524    0.405061    0.050274
      6          1           0        3.364969    0.696998   -0.070312
      7          1           0        1.063072    2.317316    0.005757
      8          1           0        2.381937   -1.684942   -0.024964
      9          1           0       -0.545618   -1.420745    0.000462
     10          6           0       -1.878887    0.012334   -0.007738
     11          8           0       -1.717612   -1.196982   -0.018225
     12          8           0       -2.483297    0.987851   -0.016062
 ---------------------------------------------------------------------
 Rotational constants (GHZ):           5.5413779           1.4861095           1.1723463
 Standard basis: 6-31+G(d,p) (6D, 7F)
 There are   172 symmetry adapted cartesian basis functions of A   symmetry.
 There are   172 symmetry adapted basis functions of A   symmetry.
   172 basis functions,   284 primitive gaussians,   172 cartesian basis functions
    29 alpha electrons       29 beta electrons
       nuclear repulsion energy       366.0865900824 Hartrees.
 NAtoms=   12 NActive=   12 NUniq=   12 SFac= 1.00D+00 NAtFMM=   60 NAOKFM=F Big=F
 Integral buffers will be    131072 words long.
 Raffenetti 2 integral format.
 Two-electron integral symmetry is turned on.
 One-electron integrals computed using PRISM.
 NBasis=   172 RedAO= T EigKep=  2.58D-05  NBF=   172
 NBsUse=   172 1.00D-06 EigRej= -1.00D+00 NBFU=   172
 Initial guess from the checkpoint file:  "/scratch/gongke2021/2-H-1-H-Tz-2-TS-gas/Gau-4365.chk"
 B after Tr=     0.000000   -0.000000   -0.000000
         Rot=    0.999994    0.000860   -0.000116    0.003477 Ang=   0.41 deg.
 ExpMin= 4.38D-02 ExpMax= 5.48D+03 ExpMxC= 8.25D+02 IAcc=2 IRadAn=         4 AccDes= 0.00D+00
 Harris functional with IExCor= 1009 and IRadAn=       4 diagonalized for initial guess.
 HarFok:  IExCor= 1009 AccDes= 0.00D+00 IRadAn=         4 IDoV= 1 UseB2=F ITyADJ=14
 ICtDFT=  3500011 ScaDFX=  1.000000  1.000000  1.000000  1.000000
 FoFCou: FMM=F IPFlag=           0 FMFlag=      100000 FMFlg1=           0
         NFxFlg=           0 DoJE=T BraDBF=F KetDBF=T FulRan=T
         wScrn=  0.000000 ICntrl=       500 IOpCl=  0 I1Cent=   200000004 NGrid=           0
         NMat0=    1 NMatS0=      1 NMatT0=    0 NMatD0=    1 NMtDS0=    0 NMtDT0=    0
 Petite list used in FoFCou.
 Keep R1 ints in memory in canonical form, NReq=134699993.
 Requested convergence on RMS density matrix=1.00D-08 within 128 cycles.
 Requested convergence on MAX density matrix=1.00D-06.
 Requested convergence on             energy=1.00D-06.
 No special actions if energy rises.
 SCF Done:  E(RM062X) =  -430.947893230     A.U. after   13 cycles
            NFock= 13  Conv=0.62D-08     -V/T= 2.0079
 Calling FoFJK, ICntrl=      2127 FMM=F ISym2X=0 I1Cent= 0 IOpClX= 0 NMat=1 NMatS=1 NMatT=0.
 ***** Axes restored to original set *****
 -------------------------------------------------------------------
 Center     Atomic                   Forces (Hartrees/Bohr)
 Number     Number              X              Y              Z
 -------------------------------------------------------------------
      1        7          -0.007027605    0.001287641    0.001338868
      2        7          -0.001353625    0.000156608   -0.000876181
      3        6          -0.000637858    0.000922834   -0.000085110
      4        6          -0.001670825   -0.000455874   -0.000163858
      5        7          -0.014604812    0.006312552   -0.000183712
      6        1          -0.000119442    0.000252869    0.000066643
      7        1           0.000443707    0.000348079   -0.000069995
      8        1           0.000405997    0.000374008    0.000071105
      9        1           0.001102290   -0.006890694   -0.000700165
     10        6           0.023088030   -0.007183263    0.000702698
     11        8           0.001810865   -0.000932361    0.000125310
     12        8          -0.001436720    0.005807601   -0.000225602
 -------------------------------------------------------------------
 Cartesian Forces:  Max     0.023088030 RMS     0.005238737

 GradGradGradGradGradGradGradGradGradGradGradGradGradGradGradGradGradGrad
 Berny optimization.
 FormGI is forming the generalized inverse of G from B-inverse, IUseBI=4.
 Internal  Forces:  Max     0.023323014 RMS     0.004858134
 Search for a saddle point.
 Step number   4 out of a maximum of   64
 All quantities printed in internal units (Hartrees-Bohrs-Radians)
 Swapping is turned off.
 Update second derivatives using D2CorX and points    2    3    4
 ITU=  0  0  0  0
     Eigenvalues ---   -0.22113   0.00367   0.00885   0.01221   0.01641
     Eigenvalues ---    0.02338   0.02929   0.03862   0.05985   0.07143
     Eigenvalues ---    0.10083   0.10699   0.11960   0.15316   0.15686
     Eigenvalues ---    0.22235   0.23765   0.27053   0.32574   0.38521
     Eigenvalues ---    0.38579   0.42132   0.43778   0.47606   0.47825
     Eigenvalues ---    0.58794   0.60266   0.69289   0.90759   0.96477
 Eigenvectors required to have negative eigenvalues:
                          R3        R10       A2        A3        A17
   1                    0.56896  -0.53864   0.36399  -0.31624   0.19828
                          A18       R11       A14       A13       A15
   1                   -0.19798   0.16856  -0.14278   0.07262   0.07102
 RFO step:  Lambda0=1.775511727D-03 Lambda=-6.10036124D-03.
 Linear search not attempted -- option 19 set.
 Maximum step size (   0.300) exceeded in Quadratic search.
    -- Step size scaled by   0.859
 Iteration  1 RMS(Cart)=  0.04675582 RMS(Int)=  0.00223130
 Iteration  2 RMS(Cart)=  0.00278575 RMS(Int)=  0.00083147
 Iteration  3 RMS(Cart)=  0.00002524 RMS(Int)=  0.00083128
 Iteration  4 RMS(Cart)=  0.00000003 RMS(Int)=  0.00083128
 Variable       Old X    -DE/DX   Delta X   Delta X   Delta X     New X
                                 (Linear)    (Quad)   (Total)
    R1        2.48001   0.00184   0.00000   0.00368   0.00379   2.48380
    R2        2.43680   0.00873   0.00000   0.00399   0.00415   2.44095
    R3        2.37004   0.00456   0.00000   0.20599   0.20599   2.57604
    R4        2.54396  -0.00083   0.00000   0.00425   0.00417   2.54813
    R5        1.92349  -0.00054   0.00000  -0.00328  -0.00328   1.92022
    R6        2.62169  -0.00138   0.00000  -0.00768  -0.00784   2.61385
    R7        2.04075   0.00019   0.00000  -0.00057  -0.00057   2.04018
    R8        2.54175   0.00223   0.00000   0.00733   0.00732   2.54907
    R9        2.03829   0.00041   0.00000   0.00009   0.00009   2.03838
   R10        3.85210   0.02332   0.00000   0.17278   0.17278   4.02488
   R11        2.30559   0.00058   0.00000   0.01312   0.01312   2.31872
   R12        2.16867   0.00395   0.00000  -0.01216  -0.01216   2.15651
    A1        1.90970  -0.00113   0.00000  -0.01319  -0.01348   1.89622
    A2        2.62786  -0.00547   0.00000   0.08678   0.08646   2.71432
    A3        1.73980   0.00661   0.00000  -0.06787  -0.06881   1.67099
    A4        1.91372   0.00184   0.00000   0.01087   0.01106   1.92478
    A5        2.10834  -0.00104   0.00000  -0.00780  -0.00789   2.10045
    A6        2.26100  -0.00080   0.00000  -0.00301  -0.00313   2.25787
    A7        1.83121  -0.00020   0.00000  -0.00450  -0.00456   1.82665
    A8        2.13759   0.00031   0.00000   0.00375   0.00377   2.14136
    A9        2.31439  -0.00011   0.00000   0.00075   0.00078   2.31517
   A10        1.86478   0.00347   0.00000   0.00125   0.00127   1.86605
   A11        2.27400  -0.00134   0.00000   0.00163   0.00162   2.27562
   A12        2.14441  -0.00213   0.00000  -0.00287  -0.00289   2.14152
   A13        1.90531  -0.00398   0.00000   0.00568   0.00577   1.91108
   A14        1.71577   0.01562   0.00000  -0.01417  -0.01454   1.70122
   A15        2.65786  -0.01169   0.00000   0.01211   0.01160   2.66946
   A16        1.63239   0.00626   0.00000  -0.04440  -0.04441   1.58797
   A17        1.93159  -0.00801   0.00000  -0.00165  -0.00167   1.92992
   A18        2.71919   0.00175   0.00000   0.04611   0.04609   2.76528
    D1        0.01134  -0.00036   0.00000  -0.00991  -0.00926   0.00208
    D2        3.13748  -0.00029   0.00000  -0.00678  -0.00674   3.13074
    D3        2.99525   0.00068   0.00000   0.05483   0.05661   3.05187
    D4       -0.16179   0.00074   0.00000   0.05796   0.05913  -0.10266
    D5       -0.00925   0.00023   0.00000   0.00745   0.00644  -0.00282
    D6        3.06743  -0.00095   0.00000   0.03572   0.03418   3.10161
    D7       -3.07248   0.00057   0.00000  -0.03751  -0.03373  -3.10622
    D8        0.00420  -0.00061   0.00000  -0.00924  -0.00599  -0.00179
    D9       -0.00861   0.00035   0.00000   0.00810   0.00808  -0.00052
   D10        3.13331   0.00007   0.00000   0.00424   0.00398   3.13729
   D11       -3.13299   0.00027   0.00000   0.00465   0.00531  -3.12768
   D12        0.00893  -0.00000   0.00000   0.00079   0.00121   0.01014
   D13        0.00299  -0.00023   0.00000  -0.00363  -0.00413  -0.00114
   D14       -3.13620  -0.00043   0.00000  -0.01139  -0.01131   3.13567
   D15       -3.13898   0.00008   0.00000   0.00079   0.00057  -3.13841
   D16        0.00501  -0.00012   0.00000  -0.00697  -0.00661  -0.00159
   D17        0.00371   0.00001   0.00000  -0.00217  -0.00125   0.00246
   D18       -2.99944  -0.00088   0.00000  -0.05927  -0.05860  -3.05804
   D19       -3.14006   0.00020   0.00000   0.00489   0.00525  -3.13481
   D20        0.13997  -0.00070   0.00000  -0.05221  -0.05209   0.08788
   D21        0.00275  -0.00025   0.00000  -0.01201  -0.01202  -0.00927
   D22       -3.13497  -0.00028   0.00000  -0.01840  -0.01841   3.12980
   D23        3.01223   0.00012   0.00000   0.04299   0.04301   3.05523
   D24       -0.12549   0.00008   0.00000   0.03660   0.03661  -0.08888
         Item               Value     Threshold  Converged?
 Maximum Force            0.023323     0.000450     NO 
 RMS     Force            0.004858     0.000300     NO 
 Maximum Displacement     0.234961     0.001800     NO 
 RMS     Displacement     0.048361     0.001200     NO 
 Predicted change in Energy=-2.438934D-03
 GradGradGradGradGradGradGradGradGradGradGradGradGradGradGradGradGradGrad

                          Input orientation:                          
 ---------------------------------------------------------------------
 Center     Atomic      Atomic             Coordinates (Angstroms)
 Number     Number       Type             X           Y           Z
 ---------------------------------------------------------------------
      1          7           0       -0.589139   -0.796932   -0.025691
      2          7           0       -1.901084   -0.721128   -0.000791
      3          6           0       -2.294645    0.568531    0.009356
      4          6           0       -1.117155    1.294014   -0.010615
      5          7           0       -0.106263    0.401103   -0.029718
      6          1           0       -3.333774    0.860968    0.025660
      7          1           0       -0.953159    2.360123   -0.016074
      8          1           0       -2.464332   -1.566868   -0.003300
      9          1           0        0.617691   -1.430270    0.000840
     10          6           0        1.955579   -0.131130    0.013836
     11          8           0        1.669013   -1.324059    0.032788
     12          8           0        2.611205    0.802854    0.003220
 ---------------------------------------------------------------------
                    Distance matrix (angstroms):
                    1          2          3          4          5
     1  N    0.000000
     2  N    1.314369   0.000000
     3  C    2.185055   1.348411   0.000000
     4  C    2.156636   2.162276   1.383187   0.000000
     5  N    1.291694   2.116984   2.195125   1.348909   0.000000
     6  H    3.206913   2.134556   1.079618   2.258816   3.260579
     7  H    3.177986   3.223802   2.238310   1.078663   2.134287
     8  H    2.027228   1.016135   2.142168   3.162212   3.071498
     9  H    1.363180   2.616699   3.532277   3.229790   1.969510
    10  C    2.630673   3.901558   4.307429   3.387229   2.129873
    11  O    2.319598   3.620808   4.392383   3.823469   2.476226
    12  O    3.578037   4.762697   4.911447   3.760598   2.747202
                    6          7          8          9         10
     6  H    0.000000
     7  H    2.813634   0.000000
     8  H    2.578984   4.207739   0.000000
     9  H    4.567764   4.103040   3.085051   0.000000
    10  C    5.381603   3.829881   4.647284   1.864907   0.000000
    11  O    5.459146   4.522319   4.140628   1.057157   1.227012
    12  O    5.945306   3.889750   5.601491   2.993484   1.141176
                   11         12
    11  O    0.000000
    12  O    2.326447   0.000000
 Stoichiometry    C3H4N3O2(1+)
 Framework group  C1[X(C3H4N3O2)]
 Deg. of freedom    30
 Full point group                 C1      NOp   1
 Largest Abelian subgroup         C1      NOp   1
 Largest concise Abelian subgroup C1      NOp   1
                         Standard orientation:                         
 ---------------------------------------------------------------------
 Center     Atomic      Atomic             Coordinates (Angstroms)
 Number     Number       Type             X           Y           Z
 ---------------------------------------------------------------------
      1          7           0        0.559578   -0.810297    0.027850
      2          7           0        1.873588   -0.817416   -0.002014
      3          6           0        2.347523    0.444815   -0.021250
      4          6           0        1.218129    1.243120   -0.001583
      5          7           0        0.153106    0.415774    0.026351
      6          1           0        3.402933    0.671127   -0.042880
      7          1           0        1.121603    2.317455   -0.001956
      8          1           0        2.382476   -1.696923    0.003633
      9          1           0       -0.684825   -1.366514    0.009269
     10          6           0       -1.938305    0.014212   -0.006921
     11          8           0       -1.727489   -1.194486   -0.019702
     12          8           0       -2.533782    0.987679    0.000346
 ---------------------------------------------------------------------
[...]
   D20        0.00174  -0.00000   0.00000  -0.00172  -0.00172   0.00001
   D21        0.00055  -0.00001   0.00000  -0.00055  -0.00055   0.00000
   D22       -3.14109  -0.00000   0.00000  -0.00050  -0.00050  -3.14159
   D23        3.14030   0.00000   0.00000   0.00128   0.00128   3.14158
   D24       -0.00134   0.00001   0.00000   0.00133   0.00133  -0.00001
         Item               Value     Threshold  Converged?
 Maximum Force            0.000223     0.000450     YES
 RMS     Force            0.000052     0.000300     YES
 Maximum Displacement     0.001335     0.001800     YES
 RMS     Displacement     0.000482     0.001200     YES
 Predicted change in Energy=-7.624519D-09
 Optimization completed.
    -- Stationary point found.
                           ----------------------------
                           !   Optimized Parameters   !
                           ! (Angstroms and Degrees)  !
 --------------------------                            --------------------------
 ! Name  Definition              Value          Derivative Info.                !
 --------------------------------------------------------------------------------
 ! R1    R(1,2)                  1.3153         -DE/DX =    0.0                 !
 ! R2    R(1,5)                  1.2939         -DE/DX =    0.0001              !
 ! R3    R(1,9)                  1.5016         -DE/DX =   -0.0001              !
 ! R4    R(2,3)                  1.3489         -DE/DX =    0.0                 !
 ! R5    R(2,8)                  1.016          -DE/DX =    0.0                 !
 ! R6    R(3,4)                  1.3822         -DE/DX =    0.0                 !
 ! R7    R(3,6)                  1.0796         -DE/DX =    0.0                 !
 ! R8    R(4,5)                  1.3493         -DE/DX =    0.0                 !
 ! R9    R(4,7)                  1.0788         -DE/DX =    0.0                 !
 ! R10   R(5,10)                 2.1212         -DE/DX =    0.0001              !
 ! R11   R(10,11)                1.2335         -DE/DX =    0.0                 !
 ! R12   R(10,12)                1.1422         -DE/DX =    0.0                 !
 ! A1    A(2,1,5)              107.9679         -DE/DX =    0.0                 !
 ! A2    A(2,1,9)              157.352          -DE/DX =   -0.0001              !
 ! A3    A(5,1,9)               94.6801         -DE/DX =    0.0001              !
 ! A4    A(1,2,3)              110.7065         -DE/DX =    0.0                 !
 ! A5    A(1,2,8)              120.1139         -DE/DX =    0.0                 !
 ! A6    A(3,2,8)              129.1796         -DE/DX =    0.0                 !
 ! A7    A(2,3,4)              104.6213         -DE/DX =    0.0                 !
 ! A8    A(2,3,6)              122.7803         -DE/DX =    0.0                 !
 ! A9    A(4,3,6)              132.5984         -DE/DX =    0.0                 !
 ! A10   A(3,4,5)              106.6993         -DE/DX =    0.0                 !
 ! A11   A(3,4,7)              130.5795         -DE/DX =    0.0                 !
 ! A12   A(5,4,7)              122.7212         -DE/DX =    0.0                 !
 ! A13   A(1,5,4)              110.005          -DE/DX =   -0.0001              !
 ! A14   A(1,5,10)             100.7473         -DE/DX =    0.0002              !
 ! A15   A(4,5,10)             149.2477         -DE/DX =   -0.0002              !
 ! A16   A(5,10,11)             92.6436         -DE/DX =    0.0001              !
 ! A17   A(5,10,12)            110.752          -DE/DX =   -0.0001              !
 ! A18   A(11,10,12)           156.6044         -DE/DX =    0.0                 !
 ! D1    D(5,1,2,3)             -0.0141         -DE/DX =    0.0                 !
 ! D2    D(5,1,2,8)            179.9993         -DE/DX =    0.0                 !
 ! D3    D(9,1,2,3)            179.9524         -DE/DX =    0.0                 !
 ! D4    D(9,1,2,8)             -0.0342         -DE/DX =    0.0                 !
 ! D5    D(2,1,5,4)              0.0183         -DE/DX =    0.0                 !
 ! D6    D(2,1,5,10)           179.9609         -DE/DX =    0.0                 !
 ! D7    D(9,1,5,4)           -179.9687         -DE/DX =    0.0                 !
 ! D8    D(9,1,5,10)            -0.0261         -DE/DX =    0.0                 !
 ! D9    D(1,2,3,4)              0.0043         -DE/DX =    0.0                 !
 ! D10   D(1,2,3,6)           -179.9953         -DE/DX =    0.0                 !
 ! D11   D(8,2,3,4)           -180.0106         -DE/DX =    0.0                 !
 ! D12   D(8,2,3,6)             -0.0103         -DE/DX =    0.0                 !
 ! D13   D(2,3,4,5)              0.0066         -DE/DX =    0.0                 !
 ! D14   D(2,3,4,7)           -179.9987         -DE/DX =    0.0                 !
 ! D15   D(6,3,4,5)            180.0062         -DE/DX =    0.0                 !
 ! D16   D(6,3,4,7)              0.0008         -DE/DX =    0.0                 !
 ! D17   D(3,4,5,1)             -0.0156         -DE/DX =    0.0                 !
 ! D18   D(3,4,5,10)          -179.9052         -DE/DX =    0.0                 !
 ! D19   D(7,4,5,1)            179.9892         -DE/DX =    0.0                 !
 ! D20   D(7,4,5,10)             0.0996         -DE/DX =    0.0                 !
 ! D21   D(1,5,10,11)            0.0313         -DE/DX =    0.0                 !
 ! D22   D(1,5,10,12)         -179.9714         -DE/DX =    0.0                 !
 ! D23   D(4,5,10,11)          179.9258         -DE/DX =    0.0                 !
 ! D24   D(4,5,10,12)           -0.0769         -DE/DX =    0.0                 !
 --------------------------------------------------------------------------------
 GradGradGradGradGradGradGradGradGradGradGradGradGradGradGradGradGradGrad


 ----------------------------------------------------------------------

 Electric dipole moment (input orientation):
 (Debye = 10**-18 statcoulomb cm , SI units = C m)
                  (au)            (Debye)         (10**-30 SI)
   Tot        0.193915D+01      0.492884D+01      0.164408D+02
   x         -0.189043D+01     -0.480500D+01     -0.160277D+02
   y         -0.431944D+00     -0.109789D+01     -0.366217D+01
   z          0.346117D-02      0.879741D-02      0.293450D-01

 Dipole polarizability, Alpha (input orientation).
 (esu units = cm**3 , SI units = C**2 m**2 J**-1)
 Alpha(0;0):
               (au)            (10**-24 esu)      (10**-40 SI)
   iso        0.565466D+02      0.837934D+01      0.932327D+01
   aniso      0.414544D+02      0.614291D+01      0.683491D+01
   xx         0.781216D+02      0.115764D+02      0.128805D+02
   yx         0.732721D+00      0.108578D+00      0.120809D+00
   yy         0.606978D+02      0.899449D+01      0.100077D+02
   zx        -0.891345D-01     -0.132084D-01     -0.146963D-01
   zy         0.433540D-01      0.642440D-02      0.714811D-02
   zz         0.308204D+02      0.456711D+01      0.508159D+01

 ----------------------------------------------------------------------

 Dipole orientation:
     7          0.27682572         -1.23502274          1.50836999
     7          0.10747564         -0.48750708          3.87274744
     6         -0.45492233          1.99567177          3.99483927
     6         -0.62727133          2.75603373          1.50189446
     7         -0.16104177          0.69587282          0.07361728
     1         -0.68037163          2.99157970          5.76096101
     1         -1.04114770          4.58337862          0.69835937
     1          0.39118021         -1.73854417          5.30120136
     1          0.68574572         -3.03623450         -0.64592339
     6          0.21851653         -0.96693572         -3.55391239
     8          0.69373795         -3.06681043         -2.66043951
     8         -0.11226442          0.49733347         -5.10482142

 Electric dipole moment (dipole orientation):
 (Debye = 10**-18 statcoulomb cm , SI units = C m)
                  (au)            (Debye)         (10**-30 SI)
   Tot        0.193915D+01      0.492884D+01      0.164408D+02
   x          0.000000D+00      0.000000D+00      0.000000D+00
   y          0.000000D+00      0.000000D+00      0.000000D+00
   z          0.193915D+01      0.492884D+01      0.164408D+02

 Dipole polarizability, Alpha (dipole orientation).
 (esu units = cm**3 , SI units = C**2 m**2 J**-1)
 Alpha(0;0):
               (au)            (10**-24 esu)      (10**-40 SI)
   iso        0.565466D+02      0.837934D+01      0.932327D+01
   aniso      0.414544D+02      0.614291D+01      0.683491D+01
   xx         0.323052D+02      0.478714D+01      0.532641D+01
   yx        -0.655569D+01     -0.971453D+00     -0.108089D+01
   yy         0.597591D+02      0.885539D+01      0.985295D+01
   zx        -0.701861D+00     -0.104005D+00     -0.115721D+00
   zy         0.304384D+01      0.451051D+00      0.501862D+00
   zz         0.775754D+02      0.114955D+02      0.127905D+02

 ----------------------------------------------------------------------
 1\1\GINC-NODE5\Freq\RM062X\6-31+G(d,p)\C3H4N3O2(1+)\GONGKE2021\15-Jul-
 2023\0\\#N Geom=AllCheck Guess=TCheck SCRF=Check GenChk RM062X/6-31+G(
 d,p) Freq\\2-H-1-H-Tz\\1,1\N,-0.628957041,-0.8307274186,-0.0013425462\
 N,-1.9390389107,-0.7140228383,0.0016383981\C,-2.3021333126,0.585055902
 9,0.0043240933\C,-1.1079686685,1.2811152589,0.002684352\N,-0.122172235
 2,0.3597967552,-0.0009839403\H,-3.3336019409,0.9036472731,0.0070783049
 \H,-0.9142877519,2.3424010043,0.0038098433\H,-2.5247450046,-1.54417402
 26,0.0018813743\H,0.7001180635,-1.5296509566,-0.0047382659\C,1.9502447
 446,-0.0924909212,-0.0046042474\O,1.7430934628,-1.3084883941,-0.006122
 072\O,2.5733855946,0.864743357,-0.004114294\\Version=ES64L-G16RevA.03\
 State=1-A\HF=-430.950964\RMSD=1.815e-09\RMSF=3.195e-05\ZeroPoint=0.084
 5218\Thermal=0.0906594\Dipole=-1.8904314,-0.4319438,0.0034612\DipoleDe
 riv=-0.3590677,0.3546849,0.0009565,0.507874,-0.5015349,-0.0017885,0.00
 10744,-0.0013552,-0.0558653,-0.3015552,-0.3523863,-0.0000856,-0.350304
 1,-0.1059541,0.0007658,-0.0000197,0.0007177,-0.0836457,0.1121931,-0.08
 18172,-0.0003873,0.3459256,0.0586375,-0.0006469,0.00037,0.0002282,0.01
 369,-0.2700899,0.2294494,0.0008074,-0.1392689,0.1747836,0.0004862,0.00
 0275,-0.0002392,-0.0023774,-0.7365149,-0.0233599,0.0009849,-0.0355065,
 0.0227717,0.0005311,0.0006743,0.0003548,-0.1359657,0.2001401,-0.027479
 9,-0.0000332,-0.0531969,0.1530568,0.0000318,-0.0000555,-0.0000169,0.20
 26742,0.1225881,-0.0080119,0.0001456,0.0066108,0.1883125,-0.0000248,0.
 0001549,0.0000127,0.1908666,0.3307296,0.1256024,0.0002082,0.1472227,0.
 3852056,-0.0002489,0.0002594,-0.0002134,0.3446167,1.4250607,-0.0819464
 ,-0.0020441,-0.1017082,0.4334983,0.0003651,-0.0020239,0.000348,0.33377
 29,2.7341649,0.2265099,-0.0031023,0.4747173,1.9059518,0.001198,-0.0023
 152,0.0015761,0.6044026,-1.2313236,-0.1218051,0.0015257,-0.1809076,-1.
 0679287,-0.000944,0.001269,-0.0010774,-0.2379592,-1.0263252,-0.2394399
 ,0.0010242,-0.621458,-0.6468002,0.0002749,0.0003373,-0.0003353,-0.1742
 096\Polar=78.1215509,0.7327208,60.6978063,-0.0891345,0.043354,30.82035
 37\Quadrupole=9.9423732,-0.9040866,-9.0382866,-0.0567229,-0.0382873,0.
 0110816\PG=C01 [X(C3H4N3O2)]\NImag=1\\0.66251629,-0.01842580,0.6726593
 1,-0.00118579,0.00075295,0.12375942,-0.35463096,0.00978743,0.00063172,
 0.80038753,0.07628060,-0.12137490,-0.00022426,0.16990077,0.94786236,0.
 00073240,-0.00008083,-0.06792826,-0.00129788,0.00074242,0.11614369,-0.
 07258264,0.01526363,0.00022684,-0.14988251,0.06844449,0.00029281,0.938
 97598,0.08329318,-0.06331304,-0.00029913,0.04895137,-0.34203009,-0.000
 49648,-0.08474282,0.63039955,0.00031247,-0.00014736,0.01749339,0.00026
 747,-0.00055115,-0.06385493,-0.00190854,0.00089954,0.13460466,-0.00802
 349,0.07077145,0.00015730,0.01592820,-0.09585482,-0.00015654,-0.304268
 43,-0.09063748,0.00038513,0.60784288,-0.00296076,-0.11504576,-0.000185
 51,-0.00329031,-0.06606268,-0.00009805,-0.13251863,-0.19059018,0.00012
 189,0.08645497,0.93734441,0.00006051,-0.00034062,0.01859923,-0.0000193
 8,0.00010726,0.01071486,0.00032677,0.00002288,-0.07106003,-0.00093360,
 0.00097260,0.13837337,-0.14368727,-0.06854855,0.00001728,-0.12079370,-
 0.04343895,0.00027314,-0.08048479,-0.02739968,0.00018542,-0.24600693,0
 .10211772,0.00054443,0.62282692,-0.13898939,-0.35984970,-0.00001944,-0
 .06894876,-0.08052773,0.00000169,0.07102579,0.05702893,-0.00010192,0.0
 9784552,-0.21025527,-0.00043791,0.01386577,0.65236511,-0.00007198,-0.0
 0019250,-0.09116358,0.00021854,-0.00005954,0.02185668,0.00030986,0.000
 12567,0.01616461,0.00054557,-0.00044822,-0.07099648,-0.00110168,0.0007
 0688,0.12142752,0.00319569,-0.00310629,0.00000492,0.00281178,-0.001608
 47,-0.00001518,-0.35359445,0.09041105,0.00084218,-0.00466607,0.0087874
 5,0.00002624,-0.00315043,0.00011541,0.00002005,0.35598397,0.00136580,-
 0.00673333,-0.00002255,0.03299391,-0.00427388,-0.00007465,0.07919003,-
 0.08334253,-0.00025197,-0.01149624,0.01353724,0.00004412,-0.00754439,-
 0.00044185,0.00000635,-0.09524717,0.08072204,0.00000815,-0.00001318,0.
 00708271,0.00003601,0.00000016,-0.00285568,0.00082466,-0.00027596,-0.0
 3270715,-0.00000021,-0.00000169,0.00130399,0.00000952,-0.00000699,0.00
 600426,-0.00087348,0.00029437,0.02424063,-0.00424905,0.00629331,0.0000
 3863,-0.00599179,-0.00367581,0.00002047,0.00536190,-0.02124159,-0.0000
 4087,-0.07011451,-0.06680294,-0.00001155,0.01010790,0.02674199,-0.0000
 0022,-0.00002446,0.00039793,-0.00000406,0.06296951,0.00253575,0.001211
 40,-0.00001786,0.00021656,0.00128916,-0.00000678,0.00171117,-0.0002257
 0,-0.00000427,-0.05962832,-0.36484443,-0.00035407,-0.00396653,-0.01307
 365,0.00000109,-0.00029884,-0.00016582,0.00000342,0.05889924,0.3761834
 7,0.00003480,-0.00002191,0.00877856,0.00002381,0.00000412,0.00545252,-
 0.00000889,0.00004390,0.00059589,-0.00000248,-0.00033409,-0.03277876,-
 0.00004248,-0.00007412,-0.00646472,-0.00000488,0.00000183,-0.00201521,
 0.00000003,0.00038173,0.02524599,-0.01351606,-0.03312156,-0.00003356,-
 0.19271482,-0.17107623,0.00016790,0.01542826,0.00692376,-0.00003441,0.
 00073165,0.00579475,0.00001778,-0.00752113,0.00366540,0.00003833,0.000
 04596,-0.00023028,-0.00000460,0.00104092,-0.00016639,0.00000022,0.1979
 1989,0.00308397,0.01260172,0.00002293,-0.18288050,-0.33809411,-0.00000
 973,-0.01718364,-0.00698981,0.00003599,0.00255577,-0.00507970,-0.00001
 906,0.00808244,0.00406884,-0.00002201,0.00051184,0.00020066,0.00000135
 ,-0.00075262,0.00009908,0.,0.18838031,0.33164389,0.00000978,0.00009797
 ,-0.01027549,0.00015715,-0.00002488,-0.01734725,-0.00006846,-0.0000257
 8,-0.00363024,0.00001447,-0.00002751,0.00468851,0.00004482,-0.00001018
 ,0.00809568,-0.00000330,0.00000337,-0.00176680,-0.00000084,-0.00000145
 ,0.00119083,-0.00015475,-0.00001395,0.01881373,0.03540679,0.01997822,-
 0.00006321,-0.01308519,-0.01805073,-0.00000096,0.00246409,-0.00858248,
 -0.00001445,0.00907661,-0.01259345,-0.00004050,-0.01512668,0.02316831,
 0.00005173,-0.00132935,-0.00187038,0.00000232,0.00116777,-0.00000736,-
 0.00000258,-0.00269357,-0.00079435,0.00000542,0.14006936,0.00522244,-0
 .02427285,-0.00002291,-0.00319821,0.00478527,0.00001741,-0.00261671,0.
 00031089,0.00000484,-0.00111088,-0.00307777,-0.00000363,0.01060351,-0.
 01631471,-0.00004167,0.00014233,0.00020563,-0.00000092,0.00029844,-0.0
 0023666,-0.00000149,0.00001554,0.00094588,0.00000105,0.05098074,0.1066
 0750,-0.00007244,-0.00004852,-0.01202199,0.00000938,0.00004050,-0.0050
 7920,-0.00000240,0.00001505,0.00146140,-0.00001500,0.00001596,0.001685
 11,0.00003696,-0.00005980,0.00018676,0.00000481,0.00000179,0.00102417,
 -0.00000118,-0.00000072,0.00024396,0.00000479,0.00000258,0.00002579,-0
 .00008522,0.00002326,0.03169846,-0.02132700,-0.00498776,0.00003525,0.0
 2103629,0.00723568,-0.00003810,0.00600764,-0.00250588,-0.00002041,0.01
 011860,0.02287778,0.00001940,0.01733451,-0.04367950,-0.00008688,0.0000
 5771,0.00243145,0.00000297,0.00069782,0.00119083,0.00000205,-0.0001758
 3,-0.00338412,-0.00000393,0.02849374,-0.04369224,-0.00012112,0.4230006
 4,0.02877001,0.00783873,-0.00003991,-0.01378161,-0.01468242,0.00001095
 ,0.00200003,-0.00504915,-0.00001328,0.00710745,-0.00544940,-0.00002086
 ,-0.00831940,-0.01612894,-0.00000178,-0.00047541,-0.00113516,-0.000001
 27,0.00135838,-0.00032004,-0.00000325,-0.00179160,0.00114416,0.0000057
 5,-0.08843643,-0.03195038,0.00010872,0.68437926,1.48171106,0.00008086,
 0.00002463,-0.00197405,-0.00004679,-0.00003171,0.00195551,-0.00000048,
 -0.00000981,0.00179611,-0.00000227,-0.00003530,-0.00210703,-0.00007012
 ,0.00005685,-0.01611690,0.00000037,-0.00000533,0.00036878,0.00000003,-
 0.00000184,-0.00030747,-0.00000044,0.00000575,0.00066758,-0.00018104,0
 .00002825,-0.00420399,0.00058416,0.00096726,0.14600917,-0.07832031,0.0
 0622852,0.00016465,0.00482822,0.01476059,0.00000617,-0.00539924,0.0046
 9300,0.00001844,-0.00651956,-0.00055545,0.00001447,-0.01063995,0.01396
 180,0.00004698,0.00061593,0.00075353,-0.00000030,-0.00063564,-0.000197
 64,0.00000093,0.00158093,0.00104606,-0.00000280,-0.18159046,-0.0208681
 7,0.00022275,-0.12570279,-0.09376851,-0.00003318,0.39133075,-0.0289076
 0,-0.00054367,0.00004228,0.01070203,0.00997153,-0.00001279,0.00113833,
 0.00195188,-0.00000062,-0.00123421,0.01225753,0.00002508,0.02669843,-0
 .02832726,-0.00008183,0.00059122,0.00151712,0.00000106,-0.00085244,0.0
 0030482,0.00000279,0.00108503,-0.00093465,-0.00000387,0.00761064,-0.03
 826061,-0.00004471,-0.13878520,-0.57619480,-0.00057473,0.13765531,0.69
 189622,0.00010263,-0.00002507,0.00687676,0.00000949,-0.00001161,0.0013
 6060,0.00000884,-0.00000288,-0.00043763,0.00000993,0.00001385,0.001487
 56,0.00006223,-0.00005995,0.00494065,-0.00000181,0.00000175,-0.0006540
 6,-0.00000019,0.00000077,-0.00002271,-0.00000155,-0.00000272,-0.000256
 31,0.00027337,0.00000769,-0.01974519,-0.00009741,-0.00064491,-0.057323
 33,-0.00036009,0.00076971,0.04010408,-0.00478198,-0.00013261,0.0000059
 6,-0.00789305,-0.00291711,0.00001576,-0.00202580,0.00083757,0.00000757
 ,-0.00409895,-0.00731115,-0.00000458,-0.02285843,0.00122766,0.00002972
 ,0.00005372,-0.00074419,-0.00000097,-0.00033039,-0.00028846,-0.0000005
 3,-0.00012619,0.00133485,0.00000244,-0.00285309,0.00422321,0.00001868,
 -0.35954133,-0.51704217,-0.00033109,0.01045213,-0.01570152,-0.00000543
 ,0.39400336,-0.01126819,-0.00317789,0.00001341,-0.00045268,0.00313749,
 0.00000683,-0.00171166,0.00184924,0.00000831,-0.00477321,-0.00273398,0
 .00000421,-0.00215036,0.01145622,0.00000756,0.00017689,-0.00009011,-0.
 00000035,-0.00066390,-0.00022163,0.00000049,0.00052126,0.00039405,-0.0
 0000052,0.02859727,0.00125782,-0.00005411,-0.48108030,-0.83978365,-0.0
 0042402,-0.06370904,-0.07363810,-0.00004661,0.53651391,0.90155054,-0.0
 0001138,-0.00000557,0.00077329,0.00001049,0.00000870,-0.00041854,-0.00
 000101,0.00000299,-0.00042607,-0.00000230,0.00000609,0.00008967,0.0000
 4047,0.00000489,0.00606551,0.00000008,0.00000092,-0.00002566,-0.000000
 25,-0.00000002,0.00008111,0.00000030,-0.00000113,-0.00020603,0.0000551
 2,-0.00001188,0.00472471,-0.00027598,-0.00036741,-0.06876438,-0.000078
 02,-0.00012237,0.02366959,0.00026248,0.00048480,0.03443682\\0.00002137
 ,0.00003984,0.00004364,0.00000237,-0.00002539,-0.00002176,0.00000049,0
 .00000128,0.00000141,0.00002092,0.00001334,0.00002337,-0.00000268,-0.0
 0000773,-0.00005850,-0.00000037,-0.00000070,-0.00000012,-0.00000078,0.
 00000004,0.00000424,-0.00000223,0.00000008,0.00000173,0.00009281,0.000
 00508,-0.00000453,-0.00009119,-0.00004608,0.00001541,-0.00007150,-0.00
 001603,-0.00000114,0.00003079,0.00003627,-0.00000373\\\@


 ALMOST ALL THE CHEMICAL PROCESSES WHICH OCCUR IN NATURE,
 WHETHER IN ANIMAL OR VEGETABLE ORGANISMS,
 OR IN THE NON-LIVING SURFACE OF THE EARTH ... 
 TAKE PLACE BETWEEN SUBSTANCES IN SOLUTION

                                    -- W. OSTWALD, 1890
 Job cpu time:       0 days  0 hours 13 minutes 57.8 seconds.
 Elapsed time:       0 days  0 hours  0 minutes 35.6 seconds.
 File lengths (MBytes):  RWF=     43 Int=      0 D2E=      0 Chk=      4 Scr=      1
 Normal termination of Gaussian 16 at Sat Jul 15 12:45:56 2023.
