 Entering Gaussian System, Link 0=/opt/soft/g16b/g16/g16
 Initial command:
 /opt/soft/g16b/g16/l1.exe "/scratch/gongke2021/1-H-Tz-PC/Gau-3603.inp" -scrdir="/scratch/gongke2021/1-H-Tz-PC/"
 Entering Link 1 = /opt/soft/g16b/g16/l1.exe PID=      3604.
  
 Copyright (c) 1988,1990,1992,1993,1995,1998,2003,2009,2016,
            Gaussian, Inc.  All Rights Reserved.
  
 This is part of the Gaussian(R) 16 program.  It is based on
 the Gaussian(R) 09 system (copyright 2009, Gaussian, Inc.),
 the Gaussian(R) 03 system (copyright 2003, Gaussian, Inc.),
 the Gaussian(R) 98 system (copyright 1998, Gaussian, Inc.),
 the Gaussian(R) 94 system (copyright 1995, Gaussian, Inc.),
 the Gaussian 92(TM) system (copyright 1992, Gaussian, Inc.),
 the Gaussian 90(TM) system (copyright 1990, Gaussian, Inc.),
 the Gaussian 88(TM) system (copyright 1988, Gaussian, Inc.),
 the Gaussian 86(TM) system (copyright 1986, Carnegie Mellon
 University), and the Gaussian 82(TM) system (copyright 1983,
 Carnegie Mellon University). Gaussian is a federally registered
 trademark of Gaussian, Inc.
  
 This software contains proprietary and confidential information,
 including trade secrets, belonging to Gaussian, Inc.
  
 This software is provided under written license and may be
 used, copied, transmitted, or stored only in accord with that
 written license.
  
 The following legend is applicable only to US Government
 contracts under FAR:
  
                    RESTRICTED RIGHTS LEGEND
  
 Use, reproduction and disclosure by the US Government is
 subject to restrictions as set forth in subparagraphs (a)
 and (c) of the Commercial Computer Software - Restricted
 Rights clause in FAR 52.227-19.
  
 Gaussian, Inc.
 340 Quinnipiac St., Bldg. 40, Wallingford CT 06492
  
  
 ---------------------------------------------------------------
 Warning -- This program may not be used in any manner that
 competes with the business of Gaussian, Inc. or will provide
 assistance to any competitor of Gaussian, Inc.  The licensee
 of this program is prohibited from giving any competitor of
 Gaussian, Inc. access to this program.  By using this program,
 the user acknowledges that Gaussian, Inc. is engaged in the
 business of creating and licensing software in the field of
 computational chemistry and represents and warrants to the
 licensee that it is not a competitor of Gaussian, Inc. and that
 it will not use this program in any manner prohibited above.
 ---------------------------------------------------------------
  

 Cite this work as:
 Gaussian 16, Revision A.03,
 M. J. Frisch, G. W. Trucks, H. B. Schlegel, G. E. Scuseria, 
 M. A. Robb, J. R. Cheeseman, G. Scalmani, V. Barone, 
 G. A. Petersson, H. Nakatsuji, X. Li, M. Caricato, A. V. Marenich, 
 J. Bloino, B. G. Janesko, R. Gomperts, B. Mennucci, H. P. Hratchian, 
 J. V. Ortiz, A. F. Izmaylov, J. L. Sonnenberg, D. Williams-Young, 
 F. Ding, F. Lipparini, F. Egidi, J. Goings, B. Peng, A. Petrone, 
 T. Henderson, D. Ranasinghe, V. G. Zakrzewski, J. Gao, N. Rega, 
 G. Zheng, W. Liang, M. Hada, M. Ehara, K. Toyota, R. Fukuda, 
 J. Hasegawa, M. Ishida, T. Nakajima, Y. Honda, O. Kitao, H. Nakai, 
 T. Vreven, K. Throssell, J. A. Montgomery, Jr., J. E. Peralta, 
 F. Ogliaro, M. J. Bearpark, J. J. Heyd, E. N. Brothers, K. N. Kudin, 
 V. N. Staroverov, T. A. Keith, R. Kobayashi, J. Normand, 
 K. Raghavachari, A. P. Rendell, J. C. Burant, S. S. Iyengar, 
 J. Tomasi, M. Cossi, J. M. Millam, M. Klene, C. Adamo, R. Cammi, 
 J. W. Ochterski, R. L. Martin, K. Morokuma, O. Farkas, 
 J. B. Foresman, and D. J. Fox, Gaussian, Inc., Wallingford CT, 2016.
 
 ******************************************
 Gaussian 16:  ES64L-G16RevA.03 25-Dec-2016
                10-Mar-2023 
 ******************************************
 %mem=10GB
 %nprocshared=20
 Will use up to   20 processors via shared memory.
 ----------------------------
 # opt freq 6-31+g(d,p) m062x
 ----------------------------
 1/18=20,19=15,26=3,38=1/1,3;
 2/9=110,12=2,17=6,18=5,40=1/2;
 3/5=1,6=6,7=111,11=2,25=1,30=1,71=1,74=-55/1,2,3;
 4//1;
 5/5=2,38=5/2;
 6/7=2,8=2,9=2,10=2,28=1/1;
 7//1,2,3,16;
 1/18=20,19=15,26=3/3(2);
 2/9=110/2;
 99//99;
 2/9=110/2;
 3/5=1,6=6,7=111,11=2,25=1,30=1,71=1,74=-55/1,2,3;
 4/5=5,16=3,69=1/1;
 5/5=2,38=5/2;
 7//1,2,3,16;
 1/18=20,19=15,26=3/3(-5);
 2/9=110/2;
 6/7=2,8=2,9=2,10=2,19=2,28=1/1;
 99/9=1/99;
 ----------
 "Sketch 2"
 ----------
 Symbolic Z-matrix:
 Charge =  0 Multiplicity = 1
 N                    -0.03294  -0.21268  -0.00039 
 N                    -0.61813   0.96836  -0.00049 
 C                    -1.92709   0.75152   0.00015 
 C                    -2.07067  -0.64556   0.00037 
 N                    -0.85864  -1.21633  -0.00009 
 H                    -2.65338   1.54756   0.00051 
 H                    -2.97278  -1.23631   0.00008 
 H                     0.93918   1.86533  -0.06281 
 C                     1.49077  -0.05996   0.00002 
 O                     1.69561   1.18647   0.00024 
 O                     2.15987  -1.05645   0.00009 
 

 GradGradGradGradGradGradGradGradGradGradGradGradGradGradGradGradGradGrad
 Berny optimization.
 Initialization pass.
                           ----------------------------
                           !    Initial Parameters    !
                           ! (Angstroms and Degrees)  !
 --------------------------                            --------------------------
 ! Name  Definition              Value          Derivative Info.                !
 --------------------------------------------------------------------------------
 ! R1    R(1,2)                  1.3181         estimate D2E/DX2                !
 ! R2    R(1,5)                  1.2997         estimate D2E/DX2                !
 ! R3    R(1,9)                  1.5313         estimate D2E/DX2                !
 ! R4    R(2,3)                  1.3268         estimate D2E/DX2                !
 ! R5    R(3,4)                  1.4044         estimate D2E/DX2                !
 ! R6    R(3,6)                  1.0776         estimate D2E/DX2                !
 ! R7    R(4,5)                  1.3397         estimate D2E/DX2                !
 ! R8    R(4,7)                  1.0783         estimate D2E/DX2                !
 ! R9    R(8,10)                 1.0183         estimate D2E/DX2                !
 ! R10   R(9,10)                 1.2631         estimate D2E/DX2                !
 ! R11   R(9,11)                 1.2003         estimate D2E/DX2                !
 ! A1    A(2,1,5)              114.1978         estimate D2E/DX2                !
 ! A2    A(2,1,9)              110.6347         estimate D2E/DX2                !
 ! A3    A(5,1,9)              135.1675         estimate D2E/DX2                !
 ! A4    A(1,2,3)              106.9517         estimate D2E/DX2                !
 ! A5    A(2,3,4)              105.2743         estimate D2E/DX2                !
 ! A6    A(2,3,6)              122.9697         estimate D2E/DX2                !
 ! A7    A(4,3,6)              131.756          estimate D2E/DX2                !
 ! A8    A(3,4,5)              109.349          estimate D2E/DX2                !
 ! A9    A(3,4,7)              129.0868         estimate D2E/DX2                !
 ! A10   A(5,4,7)              121.5642         estimate D2E/DX2                !
 ! A11   A(1,5,4)              104.2271         estimate D2E/DX2                !
 ! A12   A(1,9,10)             105.0564         estimate D2E/DX2                !
 ! A13   A(1,9,11)             118.1562         estimate D2E/DX2                !
 ! A14   A(10,9,11)            136.7873         estimate D2E/DX2                !
 ! A15   A(8,10,9)             122.5023         estimate D2E/DX2                !
 ! D1    D(5,1,2,3)              0.0175         estimate D2E/DX2                !
 ! D2    D(9,1,2,3)           -179.955          estimate D2E/DX2                !
 ! D3    D(2,1,5,4)             -0.0157         estimate D2E/DX2                !
 ! D4    D(9,1,5,4)            179.9477         estimate D2E/DX2                !
 ! D5    D(2,1,9,10)             0.0049         estimate D2E/DX2                !
 ! D6    D(2,1,9,11)          -179.9965         estimate D2E/DX2                !
 ! D7    D(5,1,9,10)          -179.9594         estimate D2E/DX2                !
 ! D8    D(5,1,9,11)             0.0392         estimate D2E/DX2                !
 ! D9    D(1,2,3,4)             -0.011          estimate D2E/DX2                !
 ! D10   D(1,2,3,6)            179.9825         estimate D2E/DX2                !
 ! D11   D(2,3,4,5)              0.002          estimate D2E/DX2                !
 ! D12   D(2,3,4,7)           -179.9464         estimate D2E/DX2                !
 ! D13   D(6,3,4,5)           -179.9906         estimate D2E/DX2                !
 ! D14   D(6,3,4,7)              0.0609         estimate D2E/DX2                !
 ! D15   D(3,4,5,1)              0.0078         estimate D2E/DX2                !
 ! D16   D(7,4,5,1)            179.9609         estimate D2E/DX2                !
 ! D17   D(1,9,10,8)            -4.2035         estimate D2E/DX2                !
 ! D18   D(11,9,10,8)          175.7982         estimate D2E/DX2                !
 --------------------------------------------------------------------------------
 Trust Radius=3.00D-01 FncErr=1.00D-07 GrdErr=1.00D-06 EigMax=2.50D+02 EigMin=1.00D-04
 Number of steps in this run=     54 maximum allowed number of steps=    100.
 GradGradGradGradGradGradGradGradGradGradGradGradGradGradGradGradGradGrad

                          Input orientation:                          
 ---------------------------------------------------------------------
 Center     Atomic      Atomic             Coordinates (Angstroms)
 Number     Number       Type             X           Y           Z
 ---------------------------------------------------------------------
      1          7           0       -0.032936   -0.212676   -0.000391
      2          7           0       -0.618134    0.968363   -0.000489
      3          6           0       -1.927089    0.751515    0.000149
      4          6           0       -2.070670   -0.645561    0.000371
      5          7           0       -0.858642   -1.216334   -0.000090
      6          1           0       -2.653375    1.547564    0.000505
      7          1           0       -2.972779   -1.236311    0.000077
      8          1           0        0.939176    1.865329   -0.062814
      9          6           0        1.490766   -0.059960    0.000023
     10          8           0        1.695613    1.186469    0.000243
     11          8           0        2.159867   -1.056450    0.000088
 ---------------------------------------------------------------------
                    Distance matrix (angstroms):
                    1          2          3          4          5
     1  N    0.000000
     2  N    1.318070   0.000000
     3  C    2.125436   1.326796   0.000000
     4  C    2.083207   2.171316   1.404435   0.000000
     5  N    1.299661   2.197896   2.239198   1.339699   0.000000
     6  H    3.156762   2.116053   1.077583   2.269216   3.295482
     7  H    3.112958   3.225669   2.246090   1.078326   2.114231
     8  H    2.294996   1.798235   3.075715   3.920171   3.568296
     9  C    1.531336   2.346254   3.512866   3.609260   2.618572
    10  O    2.223845   2.324004   3.648720   4.188224   3.506805
    11  O    2.349540   3.437609   4.468998   4.250444   3.022740
                    6          7          8          9         10
     6  H    0.000000
     7  H    2.802138   0.000000
     8  H    3.607133   4.992747   0.000000
     9  C    4.445001   4.615954   2.003731   0.000000
    10  O    4.363953   5.259634   1.018344   1.263150   0.000000
    11  O    5.472494   5.135796   3.167149   1.200287   2.290462
                   11
    11  O    0.000000
 Stoichiometry    C3H3N3O2
 Framework group  C1[X(C3H3N3O2)]
 Deg. of freedom    27
 Full point group                 C1      NOp   1
 Largest Abelian subgroup         C1      NOp   1
 Largest concise Abelian subgroup C1      NOp   1
                         Standard orientation:                         
 ---------------------------------------------------------------------
 Center     Atomic      Atomic             Coordinates (Angstroms)
 Number     Number       Type             X           Y           Z
 ---------------------------------------------------------------------
      1          7           0        0.044917   -0.216788   -0.000180
      2          7           0        0.616194    0.971045   -0.002580
      3          6           0        1.927607    0.769597   -0.002218
      4          6           0        2.087598   -0.625692    0.000835
      5          7           0        0.882362   -1.210669    0.002148
      6          1           0        2.644487    1.574124   -0.004131
      7          1           0        2.996588   -1.205796    0.002836
      8          1           0       -0.951576    1.849786    0.057082
      9          6           0       -1.480474   -0.081993   -0.001529
     10          8           0       -1.699956    1.161938   -0.004700
     11          8           0       -2.137817   -1.086276    0.000447
 ---------------------------------------------------------------------
 Rotational constants (GHZ):           5.3702920           1.8338128           1.3670417
 Standard basis: 6-31+G(d,p) (6D, 7F)
 There are   167 symmetry adapted cartesian basis functions of A   symmetry.
 There are   167 symmetry adapted basis functions of A   symmetry.
   167 basis functions,   277 primitive gaussians,   167 cartesian basis functions
    29 alpha electrons       29 beta electrons
       nuclear repulsion energy       364.7875895867 Hartrees.
 NAtoms=   11 NActive=   11 NUniq=   11 SFac= 1.00D+00 NAtFMM=   60 NAOKFM=F Big=F
 Integral buffers will be    131072 words long.
 Raffenetti 2 integral format.
 Two-electron integral symmetry is turned on.
 One-electron integrals computed using PRISM.
 NBasis=   167 RedAO= T EigKep=  2.37D-05  NBF=   167
 NBsUse=   167 1.00D-06 EigRej= -1.00D+00 NBFU=   167
 ExpMin= 4.38D-02 ExpMax= 5.48D+03 ExpMxC= 8.25D+02 IAcc=3 IRadAn=         5 AccDes= 0.00D+00
 Harris functional with IExCor= 1009 and IRadAn=       5 diagonalized for initial guess.
 HarFok:  IExCor= 1009 AccDes= 0.00D+00 IRadAn=         5 IDoV= 1 UseB2=F ITyADJ=14
 ICtDFT=  3500011 ScaDFX=  1.000000  1.000000  1.000000  1.000000
 FoFCou: FMM=F IPFlag=           0 FMFlag=      100000 FMFlg1=           0
         NFxFlg=           0 DoJE=T BraDBF=F KetDBF=T FulRan=T
         wScrn=  0.000000 ICntrl=       500 IOpCl=  0 I1Cent=   200000004 NGrid=           0
         NMat0=    1 NMatS0=      1 NMatT0=    0 NMatD0=    1 NMtDS0=    0 NMtDT0=    0
 Petite list used in FoFCou.
 Keep R1 ints in memory in canonical form, NReq=118249495.
 Requested convergence on RMS density matrix=1.00D-08 within 128 cycles.
 Requested convergence on MAX density matrix=1.00D-06.
 Requested convergence on             energy=1.00D-06.
 No special actions if energy rises.
 SCF Done:  E(RM062X) =  -430.628789096     A.U. after   14 cycles
            NFock= 14  Conv=0.86D-08     -V/T= 2.0081

 **********************************************************************

            Population analysis using the SCF density.

 **********************************************************************

 Orbital symmetries:
       Occupied  (A) (A) (A) (A) (A) (A) (A) (A) (A) (A) (A) (A)
                 (A) (A) (A) (A) (A) (A) (A) (A) (A) (A) (A) (A)
                 (A) (A) (A) (A) (A)
       Virtual   (A) (A) (A) (A) (A) (A) (A) (A) (A) (A) (A) (A)
                 (A) (A) (A) (A) (A) (A) (A) (A) (A) (A) (A) (A)
                 (A) (A) (A) (A) (A) (A) (A) (A) (A) (A) (A) (A)
                 (A) (A) (A) (A) (A) (A) (A) (A) (A) (A) (A) (A)
                 (A) (A) (A) (A) (A) (A) (A) (A) (A) (A) (A) (A)
                 (A) (A) (A) (A) (A) (A) (A) (A) (A) (A) (A) (A)
                 (A) (A) (A) (A) (A) (A) (A) (A) (A) (A) (A) (A)
                 (A) (A) (A) (A) (A) (A) (A) (A) (A) (A) (A) (A)
                 (A) (A) (A) (A) (A) (A) (A) (A) (A) (A) (A) (A)
                 (A) (A) (A) (A) (A) (A) (A) (A) (A) (A) (A) (A)
                 (A) (A) (A) (A) (A) (A) (A) (A) (A) (A) (A) (A)
                 (A) (A) (A) (A) (A) (A)
 The electronic state is 1-A.
 Alpha  occ. eigenvalues --  -19.72770 -19.67477 -14.90519 -14.83350 -14.83190
 Alpha  occ. eigenvalues --  -10.76472 -10.61260 -10.60665  -1.30607  -1.25049
 Alpha  occ. eigenvalues --   -1.19463  -1.03110  -0.95939  -0.79202  -0.75403
 Alpha  occ. eigenvalues --   -0.73898  -0.66392  -0.61875  -0.58663  -0.57030
 Alpha  occ. eigenvalues --   -0.55356  -0.54735  -0.50302  -0.43064  -0.42980
 Alpha  occ. eigenvalues --   -0.39984  -0.39341  -0.38180  -0.35718
 Alpha virt. eigenvalues --   -0.02048   0.00091   0.02414   0.02864   0.04187
 Alpha virt. eigenvalues --    0.04871   0.05399   0.05796   0.07396   0.07477
 Alpha virt. eigenvalues --    0.08973   0.09917   0.10171   0.10883   0.12228
 Alpha virt. eigenvalues --    0.14384   0.17473   0.18166   0.18475   0.19219
 Alpha virt. eigenvalues --    0.20744   0.21150   0.21594   0.23037   0.23292
 Alpha virt. eigenvalues --    0.24252   0.25912   0.26736   0.27311   0.27845
 Alpha virt. eigenvalues --    0.29364   0.29900   0.30213   0.31129   0.32074
 Alpha virt. eigenvalues --    0.32799   0.34290   0.34497   0.38256   0.39745
 Alpha virt. eigenvalues --    0.41166   0.44609   0.47108   0.47511   0.54413
 Alpha virt. eigenvalues --    0.66177   0.69659   0.70545   0.73682   0.76686
 Alpha virt. eigenvalues --    0.79604   0.84871   0.87243   0.89772   0.91927
 Alpha virt. eigenvalues --    0.92453   0.93597   0.94483   0.97973   0.99800
 Alpha virt. eigenvalues --    1.00472   1.02086   1.06324   1.11515   1.13231
 Alpha virt. eigenvalues --    1.17209   1.19484   1.19679   1.23636   1.25457
 Alpha virt. eigenvalues --    1.27290   1.29899   1.30980   1.34436   1.35343
 Alpha virt. eigenvalues --    1.37991   1.38691   1.40362   1.41252   1.43864
 Alpha virt. eigenvalues --    1.45036   1.47647   1.54229   1.55830   1.57669
 Alpha virt. eigenvalues --    1.63236   1.67472   1.71717   1.77543   1.82048
 Alpha virt. eigenvalues --    1.87911   1.91499   1.95987   1.97866   1.98925
 Alpha virt. eigenvalues --    2.02617   2.05248   2.07195   2.11939   2.22013
 Alpha virt. eigenvalues --    2.23074   2.24575   2.27205   2.29453   2.31839
 Alpha virt. eigenvalues --    2.37107   2.37693   2.45616   2.48143   2.50002
 Alpha virt. eigenvalues --    2.52702   2.59542   2.60726   2.64970   2.67706
 Alpha virt. eigenvalues --    2.70041   2.79233   2.80317   2.80893   2.86430
 Alpha virt. eigenvalues --    2.89398   2.98417   3.09138   3.13786   3.16041
 Alpha virt. eigenvalues --    3.24451   3.25567   3.30391   3.55243   3.70486
 Alpha virt. eigenvalues --    4.02587   4.16844   4.22572   4.29574   4.39240
 Alpha virt. eigenvalues --    4.56116   4.64598   4.79184
          Condensed to atoms (all electrons):
               1          2          3          4          5          6
     1  N    7.233130  -0.005147   0.043275  -0.173220   0.226783  -0.003769
     2  N   -0.005147   7.080669   0.272827   0.052502  -0.236930  -0.044965
     3  C    0.043275   0.272827   5.409451   0.101509  -0.032376   0.390686
     4  C   -0.173220   0.052502   0.101509   5.419568   0.375793  -0.012409
     5  N    0.226783  -0.236930  -0.032376   0.375793   6.853170   0.004045
     6  H   -0.003769  -0.044965   0.390686  -0.012409   0.004045   0.475450
     7  H   -0.006165  -0.007678  -0.006879   0.378961  -0.033985   0.000566
     8  H    0.012903   0.040490   0.018419  -0.009953   0.005083  -0.000097
     9  C    0.059730   0.027940  -0.010553  -0.005988   0.012550  -0.000841
    10  O   -0.143177  -0.040076  -0.016569   0.004905  -0.033772  -0.000205
    11  O   -0.029660   0.024614   0.000046  -0.004939  -0.054604   0.000010
               7          8          9         10         11
     1  N   -0.006165   0.012903   0.059730  -0.143177  -0.029660
     2  N   -0.007678   0.040490   0.027940  -0.040076   0.024614
     3  C   -0.006879   0.018419  -0.010553  -0.016569   0.000046
     4  C    0.378961  -0.009953  -0.005988   0.004905  -0.004939
     5  N   -0.033985   0.005083   0.012550  -0.033772  -0.054604
     6  H    0.000566  -0.000097  -0.000841  -0.000205   0.000010
     7  H    0.489075  -0.000004   0.000063   0.000014  -0.000011
     8  H   -0.000004   0.258120  -0.013633   0.224815   0.004670
     9  C    0.000063  -0.013633   4.386995   0.281103   0.487519
    10  O    0.000014   0.224815   0.281103   8.241299  -0.082879
    11  O   -0.000011   0.004670   0.487519  -0.082879   8.070403
 Mulliken charges:
               1
     1  N   -0.214682
     2  N   -0.164245
     3  C   -0.169836
     4  C   -0.126729
     5  N   -0.085757
     6  H    0.191528
     7  H    0.186043
     8  H    0.459187
     9  C    0.775115
    10  O   -0.435457
    11  O   -0.415168
 Sum of Mulliken charges =  -0.00000
 Mulliken charges with hydrogens summed into heavy atoms:
               1
     1  N   -0.214682
     2  N   -0.164245
     3  C    0.021692
     4  C    0.059314
     5  N   -0.085757
     9  C    0.775115
    10  O    0.023730
    11  O   -0.415168
 Electronic spatial extent (au):  <R**2>=            804.2778
 Charge=             -0.0000 electrons
 Dipole moment (field-independent basis, Debye):
    X=              3.6750    Y=              3.3069    Z=              0.1035  Tot=              4.9449
 Quadrupole moment (field-independent basis, Debye-Ang):
   XX=            -43.9763   YY=            -46.1149   ZZ=            -45.4358
   XY=             -2.2539   XZ=             -0.1146   YZ=              0.2497
 Traceless Quadrupole moment (field-independent basis, Debye-Ang):
   XX=              1.1994   YY=             -0.9392   ZZ=             -0.2602
   XY=             -2.2539   XZ=             -0.1146   YZ=              0.2497
 Octapole moment (field-independent basis, Debye-Ang**2):
  XXX=             32.3269  YYY=             19.5821  ZZZ=              0.0222  XYY=              2.9675
  XXY=              5.8562  XXZ=              0.0513  XZZ=             -7.8581  YZZ=              0.1768
  YYZ=              0.5100  XYZ=             -0.2780
 Hexadecapole moment (field-independent basis, Debye-Ang**3):
 XXXX=           -687.2303 YYYY=           -258.7187 ZZZZ=            -43.8320 XXXY=            -10.2130
 XXXZ=             -0.0191 YYYX=             -5.8021 YYYZ=              1.0572 ZZZX=             -0.0411
 ZZZY=              0.1156 XXYY=           -156.0412 XXZZ=           -131.2617 YYZZ=            -54.5273
 XXYZ=              0.1576 YYXZ=             -0.5558 ZZXY=              0.0286
 N-N= 3.647875895867D+02 E-N=-1.735144996830D+03  KE= 4.271680114540D+02
 Calling FoFJK, ICntrl=      2127 FMM=F ISym2X=0 I1Cent= 0 IOpClX= 0 NMat=1 NMatS=1 NMatT=0.
 ***** Axes restored to original set *****
 -------------------------------------------------------------------
 Center     Atomic                   Forces (Hartrees/Bohr)
 Number     Number              X              Y              Z
 -------------------------------------------------------------------
      1        7           0.009619111    0.031091489   -0.000063846
      2        7          -0.024710979    0.026000073   -0.000752123
      3        6           0.013047262   -0.013307599   -0.000107320
      4        6           0.000267527   -0.007403304    0.000067135
      5        7          -0.008751606   -0.016003933    0.000081937
      6        1           0.000428444    0.000686751   -0.000051112
      7        1           0.001040092   -0.002761026    0.000068511
      8        1           0.008027437   -0.041121769    0.003793869
      9        6          -0.051063975   -0.066891845   -0.001620960
     10        8           0.051629954    0.058107469   -0.002229315
     11        8           0.000466733    0.031603692    0.000813224
 -------------------------------------------------------------------
 Cartesian Forces:  Max     0.066891845 RMS     0.023989901

 GradGradGradGradGradGradGradGradGradGradGradGradGradGradGradGradGradGrad
 Berny optimization.
 FormGI is forming the generalized inverse of G from B-inverse, IUseBI=4.
 Internal  Forces:  Max     0.050655107 RMS     0.018481058
 Search for a local minimum.
 Step number   1 out of a maximum of   54
 All quantities printed in internal units (Hartrees-Bohrs-Radians)
 Mixed Optimization -- RFO/linear search
 Second derivative matrix not updated -- first step.
 ITU=  0
     Eigenvalues ---    0.00230   0.01380   0.01713   0.02137   0.02253
     Eigenvalues ---    0.02330   0.02518   0.03502   0.16000   0.16000
     Eigenvalues ---    0.16000   0.22633   0.24757   0.25000   0.25000
     Eigenvalues ---    0.25000   0.29300   0.36197   0.36288   0.41888
     Eigenvalues ---    0.44603   0.52776   0.57657   0.59829   0.65011
     Eigenvalues ---    0.78561   1.04679
 RFO step:  Lambda=-4.76797348D-02 EMin= 2.30000000D-03
 Linear search not attempted -- first point.
 Maximum step size (   0.300) exceeded in Quadratic search.
    -- Step size scaled by   0.733
 Iteration  1 RMS(Cart)=  0.11985214 RMS(Int)=  0.00595984
 Iteration  2 RMS(Cart)=  0.00810827 RMS(Int)=  0.00009228
 Iteration  3 RMS(Cart)=  0.00002644 RMS(Int)=  0.00009096
 Iteration  4 RMS(Cart)=  0.00000000 RMS(Int)=  0.00009096
 Variable       Old X    -DE/DX   Delta X   Delta X   Delta X     New X
                                 (Linear)    (Quad)   (Total)
    R1        2.49079   0.01978   0.00000   0.02391   0.02392   2.51471
    R2        2.45600   0.01625   0.00000   0.01819   0.01814   2.47414
    R3        2.89381   0.00719   0.00000   0.01548   0.01548   2.90928
    R4        2.50728  -0.00009   0.00000  -0.00030  -0.00023   2.50705
    R5        2.65400   0.00338   0.00000   0.00169   0.00172   2.65571
    R6        2.03634   0.00022   0.00000   0.00039   0.00039   2.03673
    R7        2.53166  -0.01441   0.00000  -0.01840  -0.01845   2.51321
    R8        2.03774   0.00064   0.00000   0.00115   0.00115   2.03889
    R9        1.92439  -0.03361   0.00000  -0.04993  -0.04993   1.87446
   R10        2.38701   0.02644   0.00000   0.02327   0.02327   2.41028
   R11        2.26821  -0.02598   0.00000  -0.01741  -0.01741   2.25080
    A1        1.99313  -0.00140   0.00000   0.00327   0.00324   1.99637
    A2        1.93094   0.05066   0.00000   0.12145   0.12146   2.05240
    A3        2.35912  -0.04926   0.00000  -0.12473  -0.12471   2.23440
    A4        1.86666  -0.01489   0.00000  -0.03170  -0.03158   1.83507
    A5        1.83738   0.01482   0.00000   0.03391   0.03399   1.87137
    A6        2.14623  -0.00820   0.00000  -0.01975  -0.01979   2.12643
    A7        2.29958  -0.00662   0.00000  -0.01416  -0.01420   2.28538
    A8        1.90850  -0.00254   0.00000  -0.01576  -0.01579   1.89271
    A9        2.25299   0.00421   0.00000   0.01825   0.01826   2.27125
   A10        2.12169  -0.00167   0.00000  -0.00249  -0.00247   2.11922
   A11        1.81911   0.00401   0.00000   0.01028   0.01014   1.82924
   A12        1.83358   0.04336   0.00000   0.10683   0.10683   1.94041
   A13        2.06222  -0.00126   0.00000  -0.00310  -0.00310   2.05912
   A14        2.38739  -0.04210   0.00000  -0.10373  -0.10373   2.28366
   A15        2.13807  -0.04841   0.00000  -0.17096  -0.17096   1.96711
    D1        0.00030   0.00012   0.00000   0.00150   0.00154   0.00185
    D2       -3.14081  -0.00020   0.00000  -0.00251  -0.00292   3.13946
    D3       -0.00027  -0.00018   0.00000  -0.00215  -0.00217  -0.00244
    D4        3.14068   0.00028   0.00000   0.00328   0.00295  -3.13956
    D5        0.00009   0.00080   0.00000   0.01123   0.01121   0.01130
    D6       -3.14153   0.00082   0.00000   0.01145   0.01144  -3.13009
    D7       -3.14088   0.00036   0.00000   0.00597   0.00598  -3.13490
    D8        0.00068   0.00038   0.00000   0.00619   0.00621   0.00690
    D9       -0.00019  -0.00000   0.00000  -0.00018  -0.00026  -0.00045
   D10        3.14129  -0.00002   0.00000  -0.00025  -0.00026   3.14102
   D11        0.00004  -0.00011   0.00000  -0.00110  -0.00102  -0.00098
   D12       -3.14066  -0.00002   0.00000  -0.00011  -0.00008  -3.14073
   D13       -3.14143  -0.00009   0.00000  -0.00103  -0.00101   3.14074
   D14        0.00106  -0.00000   0.00000  -0.00004  -0.00007   0.00099
   D15        0.00014   0.00017   0.00000   0.00192   0.00186   0.00200
   D16        3.14091   0.00009   0.00000   0.00103   0.00103  -3.14124
   D17       -0.07337   0.00222   0.00000   0.01970   0.01970  -0.05367
   D18        3.06826   0.00219   0.00000   0.01942   0.01943   3.08768
         Item               Value     Threshold  Converged?
 Maximum Force            0.050655     0.000450     NO 
 RMS     Force            0.018481     0.000300     NO 
 Maximum Displacement     0.409200     0.001800     NO 
 RMS     Displacement     0.119702     0.001200     NO 
 Predicted change in Energy=-2.431840D-02
 GradGradGradGradGradGradGradGradGradGradGradGradGradGradGradGradGradGrad

                          Input orientation:                          
 ---------------------------------------------------------------------
 Center     Atomic      Atomic             Coordinates (Angstroms)
 Number     Number       Type             X           Y           Z
 ---------------------------------------------------------------------
      1          7           0       -0.066795   -0.095666   -0.000056
      2          7           0       -0.722609    1.062221   -0.007000
      3          6           0       -2.007691    0.732656   -0.004183
      4          6           0       -2.077261   -0.670940    0.004119
      5          7           0       -0.838023   -1.153656    0.004870
      6          1           0       -2.785856    1.478361   -0.007929
      7          1           0       -2.935576   -1.324683    0.007843
      8          1           0        1.155716    1.823260   -0.045065
      9          6           0        1.471852   -0.043784   -0.004178
     10          8           0        1.892286    1.160388   -0.000644
     11          8           0        2.065755   -1.076209   -0.010104
 ---------------------------------------------------------------------
                    Distance matrix (angstroms):
                    1          2          3          4          5
     1  N    0.000000
     2  N    1.330730   0.000000
     3  C    2.110263   1.326671   0.000000
     4  C    2.091156   2.199784   1.405343   0.000000
     5  N    1.309260   2.218913   2.219545   1.329935   0.000000
     6  H    3.141801   2.104794   1.077789   2.263127   3.274405
     7  H    3.120970   3.254959   2.256936   1.078935   2.104516
     8  H    2.275705   2.027001   3.346376   4.083576   3.583227
     9  C    1.539527   2.457420   3.565120   3.604109   2.562698
    10  O    2.327160   2.616745   3.923365   4.371624   3.579025
    11  O    2.347197   3.513953   4.457016   4.162815   2.904849
                    6          7          8          9         10
     6  H    0.000000
     7  H    2.807084   0.000000
     8  H    3.956807   5.162462   0.000000
     9  C    4.521616   4.589801   1.894061   0.000000
    10  O    4.688942   5.429909   0.991921   1.275464   0.000000
    11  O    5.483061   5.007532   3.039131   1.191074   2.243334
                   11
    11  O    0.000000
 Stoichiometry    C3H3N3O2
 Framework group  C1[X(C3H3N3O2)]
 Deg. of freedom    27
 Full point group                 C1      NOp   1
 Largest Abelian subgroup         C1      NOp   1
 Largest concise Abelian subgroup C1      NOp   1
                         Standard orientation:                         
 ---------------------------------------------------------------------
 Center     Atomic      Atomic             Coordinates (Angstroms)
 Number     Number       Type             X           Y           Z
 ---------------------------------------------------------------------
      1          7           0        0.069930   -0.119128   -0.002459
      2          7           0        0.700007    1.052974    0.002360
      3          6           0        1.992055    0.751861    0.002608
      4          6           0        2.092612   -0.649873   -0.001673
      5          7           0        0.864337   -1.159839   -0.003153
      6          1           0        2.753558    1.514576    0.005580
      7          1           0        2.965157   -1.284510   -0.002143
      8          1           0       -1.194726    1.772449    0.035167
      9          6           0       -1.469492   -0.101226   -0.001055
     10          8           0       -1.916404    1.093353   -0.008641
     11          8           0       -2.040465   -1.146495    0.006752
 ---------------------------------------------------------------------
 Rotational constants (GHZ):           5.3891582           1.7634071           1.3286782
 Standard basis: 6-31+G(d,p) (6D, 7F)
 There are   167 symmetry adapted cartesian basis functions of A   symmetry.
 There are   167 symmetry adapted basis functions of A   symmetry.
   167 basis functions,   277 primitive gaussians,   167 cartesian basis functions
    29 alpha electrons       29 beta electrons
       nuclear repulsion energy       361.6020946016 Hartrees.
 NAtoms=   11 NActive=   11 NUniq=   11 SFac= 1.00D+00 NAtFMM=   60 NAOKFM=F Big=F
 Integral buffers will be    131072 words long.
 Raffenetti 2 integral format.
 Two-electron integral symmetry is turned on.
 One-electron integrals computed using PRISM.
 NBasis=   167 RedAO= T EigKep=  2.36D-05  NBF=   167
 NBsUse=   167 1.00D-06 EigRej= -1.00D+00 NBFU=   167
 Initial guess from the checkpoint file:  "/scratch/gongke2021/1-H-Tz-PC/Gau-3604.chk"
 B after Tr=     0.000000    0.000000    0.000000
         Rot=    0.999946   -0.000050   -0.000020   -0.010389 Ang=  -1.19 deg.
 ExpMin= 4.38D-02 ExpMax= 5.48D+03 ExpMxC= 8.25D+02 IAcc=2 IRadAn=         4 AccDes= 0.00D+00
 Harris functional with IExCor= 1009 and IRadAn=       4 diagonalized for initial guess.
 HarFok:  IExCor= 1009 AccDes= 0.00D+00 IRadAn=         4 IDoV= 1 UseB2=F ITyADJ=14
 ICtDFT=  3500011 ScaDFX=  1.000000  1.000000  1.000000  1.000000
 FoFCou: FMM=F IPFlag=           0 FMFlag=      100000 FMFlg1=           0
         NFxFlg=           0 DoJE=T BraDBF=F KetDBF=T FulRan=T
         wScrn=  0.000000 ICntrl=       500 IOpCl=  0 I1Cent=   200000004 NGrid=           0
         NMat0=    1 NMatS0=      1 NMatT0=    0 NMatD0=    1 NMtDS0=    0 NMtDT0=    0
 Petite list used in FoFCou.
 Keep R1 ints in memory in canonical form, NReq=118249495.
 Requested convergence on RMS density matrix=1.00D-08 within 128 cycles.
 Requested convergence on MAX density matrix=1.00D-06.
 Requested convergence on             energy=1.00D-06.
 No special actions if energy rises.
 SCF Done:  E(RM062X) =  -430.647568684     A.U. after   13 cycles
            NFock= 13  Conv=0.75D-08     -V/T= 2.0083
 Calling FoFJK, ICntrl=      2127 FMM=F ISym2X=0 I1Cent= 0 IOpClX= 0 NMat=1 NMatS=1 NMatT=0.
 ***** Axes restored to original set *****
 -------------------------------------------------------------------
 Center     Atomic                   Forces (Hartrees/Bohr)
 Number     Number              X              Y              Z
 -------------------------------------------------------------------
      1        7           0.016786528    0.023207978   -0.000404237
      2        7           0.001908699    0.009478610   -0.000072498
      3        6           0.007216459   -0.000653869   -0.000025454
      4        6           0.004262594   -0.002147257   -0.000148421
      5        7           0.002483846   -0.014965235    0.000268591
      6        1          -0.000069134    0.000856873   -0.000025775
      7        1           0.000881913   -0.000858908    0.000043949
      8        1           0.005801602   -0.012155778    0.001809196
      9        6          -0.048456147   -0.058299033   -0.000678891
     10        8           0.007128813    0.042893945   -0.001488062
     11        8           0.002054827    0.012642671    0.000721603
 -------------------------------------------------------------------
 Cartesian Forces:  Max     0.058299033 RMS     0.016707152

 GradGradGradGradGradGradGradGradGradGradGradGradGradGradGradGradGradGrad
 Berny optimization.
 Using GEDIIS/GDIIS optimizer.
 FormGI is forming the generalized inverse of G from B-inverse, IUseBI=4.
 Internal  Forces:  Max     0.033955415 RMS     0.009055387
 Search for a local minimum.
 Step number   2 out of a maximum of   54
 All quantities printed in internal units (Hartrees-Bohrs-Radians)
 Mixed Optimization -- RFO/linear search
 Update second derivatives using D2CorX and points    1    2
 DE= -1.88D-02 DEPred=-2.43D-02 R= 7.72D-01
 TightC=F SS=  1.41D+00  RLast= 3.02D-01 DXNew= 5.0454D-01 9.0556D-01
 Trust test= 7.72D-01 RLast= 3.02D-01 DXMaxT set to 5.05D-01
 ITU=  1  0
 Use linear search instead of GDIIS.
     Eigenvalues ---    0.00230   0.01380   0.01556   0.02135   0.02252
     Eigenvalues ---    0.02327   0.02520   0.03503   0.15352   0.16000
     Eigenvalues ---    0.16014   0.20668   0.22766   0.24879   0.25000
     Eigenvalues ---    0.26853   0.36196   0.36286   0.41062   0.43249
     Eigenvalues ---    0.48438   0.53617   0.57348   0.61061   0.64954
     Eigenvalues ---    0.79474   1.04222
 RFO step:  Lambda=-1.30196053D-02 EMin= 2.30218943D-03
 Quartic linear search produced a step of  0.22998.
 Iteration  1 RMS(Cart)=  0.05814175 RMS(Int)=  0.00177571
 Iteration  2 RMS(Cart)=  0.00197831 RMS(Int)=  0.00009955
 Iteration  3 RMS(Cart)=  0.00000468 RMS(Int)=  0.00009952
 Iteration  4 RMS(Cart)=  0.00000000 RMS(Int)=  0.00009952
 Variable       Old X    -DE/DX   Delta X   Delta X   Delta X     New X
                                 (Linear)    (Quad)   (Total)
    R1        2.51471  -0.00043   0.00550   0.00083   0.00643   2.52114
    R2        2.47414   0.00398   0.00417   0.00849   0.01271   2.48685
    R3        2.90928  -0.03396   0.00356  -0.13398  -0.13042   2.77887
    R4        2.50705  -0.00363  -0.00005  -0.00746  -0.00749   2.49956
    R5        2.65571   0.00619   0.00039   0.01573   0.01604   2.67176
    R6        2.03673   0.00064   0.00009   0.00210   0.00219   2.03892
    R7        2.51321  -0.00542  -0.00424  -0.01231  -0.01663   2.49658
    R8        2.03889  -0.00018   0.00026  -0.00052  -0.00025   2.03864
    R9        1.87446  -0.01251  -0.01148  -0.03607  -0.04755   1.82691
   R10        2.41028   0.03328   0.00535   0.05192   0.05727   2.46755
   R11        2.25080  -0.00994  -0.00400  -0.01229  -0.01629   2.23451
    A1        1.99637   0.01240   0.00075   0.05852   0.05936   2.05573
    A2        2.05240   0.00242   0.02793   0.01906   0.04694   2.09934
    A3        2.23440  -0.01482  -0.02868  -0.07759  -0.10633   2.12807
    A4        1.83507  -0.01015  -0.00726  -0.05009  -0.05719   1.77789
    A5        1.87137   0.00459   0.00782   0.02370   0.03147   1.90284
    A6        2.12643  -0.00288  -0.00455  -0.01617  -0.02070   2.10574
    A7        2.28538  -0.00171  -0.00327  -0.00753  -0.01078   2.27460
    A8        1.89271   0.00224  -0.00363   0.00861   0.00483   1.89754
    A9        2.27125   0.00012   0.00420   0.00527   0.00954   2.28079
   A10        2.11922  -0.00236  -0.00057  -0.01387  -0.01437   2.10485
   A11        1.82924  -0.00908   0.00233  -0.04073  -0.03847   1.79077
   A12        1.94041  -0.00916   0.02457  -0.03506  -0.01050   1.92991
   A13        2.05912   0.01368  -0.00071   0.06307   0.06235   2.12147
   A14        2.28366  -0.00452  -0.02386  -0.02800  -0.05186   2.23180
   A15        1.96711  -0.00961  -0.03932  -0.08143  -0.12075   1.84636
    D1        0.00185  -0.00003   0.00035  -0.00068  -0.00025   0.00159
    D2        3.13946  -0.00014  -0.00067  -0.00475  -0.00582   3.13364
    D3       -0.00244   0.00004  -0.00050   0.00074   0.00021  -0.00224
    D4       -3.13956   0.00010   0.00068   0.00500   0.00544  -3.13412
    D5        0.01130   0.00021   0.00258   0.01841   0.02099   0.03228
    D6       -3.13009   0.00008   0.00263   0.01326   0.01574  -3.11435
    D7       -3.13490   0.00016   0.00138   0.01411   0.01564  -3.11926
    D8        0.00690   0.00004   0.00143   0.00896   0.01039   0.01729
    D9       -0.00045   0.00002  -0.00006   0.00036   0.00021  -0.00025
   D10        3.14102   0.00001  -0.00006   0.00032   0.00023   3.14125
   D11       -0.00098   0.00001  -0.00023   0.00009  -0.00008  -0.00106
   D12       -3.14073  -0.00004  -0.00002  -0.00105  -0.00103   3.14142
   D13        3.14074   0.00001  -0.00023   0.00013  -0.00010   3.14064
   D14        0.00099  -0.00003  -0.00002  -0.00101  -0.00106  -0.00007
   D15        0.00200  -0.00005   0.00043  -0.00056  -0.00015   0.00185
   D16       -3.14124  -0.00000   0.00024   0.00048   0.00072  -3.14053
   D17       -0.05367   0.00111   0.00453   0.03029   0.03496  -0.01871
   D18        3.08768   0.00125   0.00447   0.03631   0.04064   3.12832
         Item               Value     Threshold  Converged?
 Maximum Force            0.033955     0.000450     NO 
 RMS     Force            0.009055     0.000300     NO 
 Maximum Displacement     0.160924     0.001800     NO 
 RMS     Displacement     0.058536     0.001200     NO 
 Predicted change in Energy=-6.563071D-03
 GradGradGradGradGradGradGradGradGradGradGradGradGradGradGradGradGradGrad

                          Input orientation:                          
 ---------------------------------------------------------------------
 Center     Atomic      Atomic             Coordinates (Angstroms)
 Number     Number       Type             X           Y           Z
 ---------------------------------------------------------------------
      1          7           0       -0.071349   -0.032784   -0.002403
      2          7           0       -0.719699    1.133067   -0.020931
      3          6           0       -1.983181    0.741772   -0.013042
      4          6           0       -2.027943   -0.671164    0.010020
      5          7           0       -0.790763   -1.134583    0.014756
      6          1           0       -2.783238    1.465601   -0.023780
      7          1           0       -2.867921   -1.347995    0.022193
      8          1           0        1.117549    1.738102   -0.007547
      9          6           0        1.398790   -0.063973   -0.013651
     10          8           0        1.883615    1.148407   -0.002819
     11          8           0        1.995938   -1.084502   -0.025124
 ---------------------------------------------------------------------
                    Distance matrix (angstroms):
                    1          2          3          4          5
     1  N    0.000000
     2  N    1.334132   0.000000
     3  C    2.062802   1.322709   0.000000
     4  C    2.058141   2.228835   1.413832   0.000000
     5  N    1.315984   2.269044   2.223362   1.321133   0.000000
     6  H    3.098380   2.090162   1.078951   2.266578   3.276033
     7  H    3.090502   3.282130   2.269610   1.078801   2.088105
     8  H    2.132966   1.934355   3.256875   3.962195   3.448837
     9  C    1.470512   2.433301   3.476629   3.480192   2.437448
    10  O    2.284096   2.603422   3.888132   4.314079   3.516340
    11  O    2.319548   3.506040   4.378220   4.045207   2.787437
                    6          7          8          9         10
     6  H    0.000000
     7  H    2.815245   0.000000
     8  H    3.910328   5.040719   0.000000
     9  C    4.452983   4.455874   1.823900   0.000000
    10  O    4.677667   5.367470   0.966757   1.305771   0.000000
    11  O    5.416969   4.871221   2.956175   1.182454   2.235844
                   11
    11  O    0.000000
 Stoichiometry    C3H3N3O2
 Framework group  C1[X(C3H3N3O2)]
 Deg. of freedom    27
 Full point group                 C1      NOp   1
 Largest Abelian subgroup         C1      NOp   1
 Largest concise Abelian subgroup C1      NOp   1
                         Standard orientation:                         
 ---------------------------------------------------------------------
 Center     Atomic      Atomic             Coordinates (Angstroms)
 Number     Number       Type             X           Y           Z
 ---------------------------------------------------------------------
      1          7           0        0.067984   -0.069360   -0.003802
      2          7           0        0.702433    1.104161    0.011395
      3          6           0        1.970474    0.727823    0.009735
      4          6           0        2.032021   -0.684577   -0.006423
      5          7           0        0.800433   -1.162631   -0.013215
      6          1           0        2.761873    1.461118    0.019776
      7          1           0        2.879982   -1.351463   -0.012465
      8          1           0       -1.141783    1.687328   -0.011220
      9          6           0       -1.401713   -0.117903    0.002521
     10          8           0       -1.900800    1.088586   -0.015775
     11          8           0       -1.986789   -1.145366    0.016808
 ---------------------------------------------------------------------
 Rotational constants (GHZ):           5.3206131           1.8457217           1.3704618
 Standard basis: 6-31+G(d,p) (6D, 7F)
 There are   167 symmetry adapted cartesian basis functions of A   symmetry.
 There are   167 symmetry adapted basis functions of A   symmetry.
   167 basis functions,   277 primitive gaussians,   167 cartesian basis functions
    29 alpha electrons       29 beta electrons
       nuclear repulsion energy       364.8913255002 Hartrees.
 NAtoms=   11 NActive=   11 NUniq=   11 SFac= 1.00D+00 NAtFMM=   60 NAOKFM=F Big=F
 Integral buffers will be    131072 words long.
 Raffenetti 2 integral format.
 Two-electron integral symmetry is turned on.
 One-electron integrals computed using PRISM.
 NBasis=   167 RedAO= T EigKep=  2.13D-05  NBF=   167
 NBsUse=   167 1.00D-06 EigRej= -1.00D+00 NBFU=   167
 Initial guess from the checkpoint file:  "/scratch/gongke2021/1-H-Tz-PC/Gau-3604.chk"
 B after Tr=     0.000000   -0.000000    0.000000
         Rot=    0.999997    0.000015   -0.000065    0.002515 Ang=   0.29 deg.
 ExpMin= 4.38D-02 ExpMax= 5.48D+03 ExpMxC= 8.25D+02 IAcc=2 IRadAn=         4 AccDes= 0.00D+00
 Harris functional with IExCor= 1009 and IRadAn=       4 diagonalized for initial guess.
 HarFok:  IExCor= 1009 AccDes= 0.00D+00 IRadAn=         4 IDoV= 1 UseB2=F ITyADJ=14
 ICtDFT=  3500011 ScaDFX=  1.000000  1.000000  1.000000  1.000000
 FoFCou: FMM=F IPFlag=           0 FMFlag=      100000 FMFlg1=           0
         NFxFlg=           0 DoJE=T BraDBF=F KetDBF=T FulRan=T
         wScrn=  0.000000 ICntrl=       500 IOpCl=  0 I1Cent=   200000004 NGrid=           0
         NMat0=    1 NMatS0=      1 NMatT0=    0 NMatD0=    1 NMtDS0=    0 NMtDT0=    0
 Petite list used in FoFCou.
 Keep R1 ints in memory in canonical form, NReq=118249495.
 Requested convergence on RMS density matrix=1.00D-08 within 128 cycles.
 Requested convergence on MAX density matrix=1.00D-06.
 Requested convergence on             energy=1.00D-06.
 No special actions if energy rises.
 SCF Done:  E(RM062X) =  -430.652493466     A.U. after   13 cycles
            NFock= 13  Conv=0.73D-08     -V/T= 2.0079
 Calling FoFJK, ICntrl=      2127 FMM=F ISym2X=0 I1Cent= 0 IOpClX= 0 NMat=1 NMatS=1 NMatT=0.
 ***** Axes restored to original set *****
 -------------------------------------------------------------------
 Center     Atomic                   Forces (Hartrees/Bohr)
 Number     Number              X              Y              Z
 -------------------------------------------------------------------
      1        7           0.031730094   -0.001489504   -0.000587726
      2        7          -0.005641836   -0.015789276    0.000448378
      3        6          -0.009087662    0.006164797    0.000005174
      4        6          -0.005442643   -0.000056267   -0.000108076
      5        7          -0.002438233    0.006172367   -0.000135734
      6        1          -0.001044780   -0.000461838    0.000013213
      7        1          -0.001249456    0.001282741    0.000000619
      8        1          -0.001813695    0.015586085    0.000194299
      9        6          -0.017639130   -0.010296660    0.000752371
     10        8           0.006856137    0.007818877   -0.000485769
     11        8           0.005771204   -0.008931323   -0.000096749
 -------------------------------------------------------------------
 Cartesian Forces:  Max     0.031730094 RMS     0.008483384

 GradGradGradGradGradGradGradGradGradGradGradGradGradGradGradGradGradGrad
 Berny optimization.
 Using GEDIIS/GDIIS optimizer.
 FormGI is forming the generalized inverse of G from B-inverse, IUseBI=4.
 Internal  Forces:  Max     0.023600167 RMS     0.006982822
 Search for a local minimum.
 Step number   3 out of a maximum of   54
 All quantities printed in internal units (Hartrees-Bohrs-Radians)
 Mixed Optimization -- RFO/linear search
 Update second derivatives using D2CorX and points    1    2    3
 DE= -4.92D-03 DEPred=-6.56D-03 R= 7.50D-01
 TightC=F SS=  1.41D+00  RLast= 2.69D-01 DXNew= 8.4853D-01 8.0778D-01
 Trust test= 7.50D-01 RLast= 2.69D-01 DXMaxT set to 8.08D-01
 ITU=  1  1  0
 Use linear search instead of GDIIS.
     Eigenvalues ---    0.00230   0.01424   0.01435   0.02134   0.02252
     Eigenvalues ---    0.02316   0.02520   0.03487   0.15291   0.16003
     Eigenvalues ---    0.16013   0.18756   0.22841   0.24991   0.25484
     Eigenvalues ---    0.33402   0.36196   0.36289   0.40881   0.46196
     Eigenvalues ---    0.47629   0.53936   0.56982   0.61347   0.65010
     Eigenvalues ---    0.78903   1.07095
 RFO step:  Lambda=-3.51576139D-03 EMin= 2.30427779D-03
 Quartic linear search produced a step of -0.21937.
 Iteration  1 RMS(Cart)=  0.03872792 RMS(Int)=  0.00130629
 Iteration  2 RMS(Cart)=  0.00152438 RMS(Int)=  0.00003882
 Iteration  3 RMS(Cart)=  0.00000253 RMS(Int)=  0.00003879
 Iteration  4 RMS(Cart)=  0.00000000 RMS(Int)=  0.00003879
 Variable       Old X    -DE/DX   Delta X   Delta X   Delta X     New X
                                 (Linear)    (Quad)   (Total)
    R1        2.52114  -0.00030  -0.00141   0.00349   0.00212   2.52326
    R2        2.48685   0.00293  -0.00279   0.00918   0.00642   2.49327
    R3        2.77887  -0.00691   0.02861  -0.06469  -0.03607   2.74279
    R4        2.49956   0.00403   0.00164   0.00208   0.00372   2.50328
    R5        2.67176  -0.00290  -0.00352   0.00139  -0.00217   2.66959
    R6        2.03892   0.00046  -0.00048   0.00179   0.00131   2.04023
    R7        2.49658   0.00879   0.00365   0.00436   0.00799   2.50457
    R8        2.03864   0.00017   0.00006   0.00034   0.00040   2.03903
    R9        1.82691   0.01094   0.01043  -0.00282   0.00762   1.83452
   R10        2.46755   0.02360  -0.01256   0.04483   0.03226   2.49981
   R11        2.23451   0.01062   0.00357   0.00048   0.00405   2.23857
    A1        2.05573  -0.01517  -0.01302  -0.02263  -0.03560   2.02014
    A2        2.09934   0.00680  -0.01030   0.04713   0.03681   2.13615
    A3        2.12807   0.00838   0.02333  -0.02452  -0.00122   2.12685
    A4        1.77789   0.01450   0.01255   0.01847   0.03105   1.80894
    A5        1.90284  -0.00653  -0.00690  -0.00694  -0.01389   1.88896
    A6        2.10574   0.00433   0.00454   0.00623   0.01079   2.11653
    A7        2.27460   0.00220   0.00236   0.00071   0.00310   2.27770
    A8        1.89754  -0.00135  -0.00106  -0.00233  -0.00344   1.89410
    A9        2.28079  -0.00114  -0.00209  -0.00177  -0.00383   2.27696
   A10        2.10485   0.00249   0.00315   0.00409   0.00727   2.11213
   A11        1.79077   0.00855   0.00844   0.01343   0.02187   1.81264
   A12        1.92991   0.00676   0.00230   0.02443   0.02671   1.95662
   A13        2.12147  -0.00285  -0.01368   0.01460   0.00090   2.12237
   A14        2.23180  -0.00390   0.01138  -0.03898  -0.02762   2.20418
   A15        1.84636   0.02055   0.02649   0.03433   0.06082   1.90718
    D1        0.00159  -0.00003   0.00006  -0.00029  -0.00025   0.00135
    D2        3.13364   0.00010   0.00128  -0.00163  -0.00029   3.13335
    D3       -0.00224   0.00007  -0.00005   0.00106   0.00102  -0.00122
    D4       -3.13412  -0.00006  -0.00119   0.00201   0.00084  -3.13327
    D5        0.03228  -0.00035  -0.00460  -0.00647  -0.01112   0.02117
    D6       -3.11435  -0.00003  -0.00345   0.00337  -0.00001  -3.11436
    D7       -3.11926  -0.00034  -0.00343  -0.00783  -0.01133  -3.13060
    D8        0.01729  -0.00002  -0.00228   0.00201  -0.00023   0.01706
    D9       -0.00025  -0.00002  -0.00005  -0.00060  -0.00063  -0.00087
   D10        3.14125   0.00000  -0.00005  -0.00004  -0.00009   3.14116
   D11       -0.00106   0.00005   0.00002   0.00127   0.00127   0.00021
   D12        3.14142  -0.00000   0.00023  -0.00077  -0.00055   3.14086
   D13        3.14064   0.00003   0.00002   0.00065   0.00067   3.14131
   D14       -0.00007  -0.00002   0.00023  -0.00139  -0.00115  -0.00122
   D15        0.00185  -0.00005   0.00003  -0.00130  -0.00128   0.00056
   D16       -3.14053   0.00000  -0.00016   0.00049   0.00033  -3.14020
   D17       -0.01871   0.00029  -0.00767   0.02813   0.02034   0.00163
   D18        3.12832  -0.00006  -0.00891   0.01729   0.00849   3.13681
         Item               Value     Threshold  Converged?
 Maximum Force            0.023600     0.000450     NO 
 RMS     Force            0.006983     0.000300     NO 
 Maximum Displacement     0.178597     0.001800     NO 
 RMS     Displacement     0.039557     0.001200     NO 
 Predicted change in Energy=-2.220907D-03
 GradGradGradGradGradGradGradGradGradGradGradGradGradGradGradGradGradGrad

                          Input orientation:                          
 ---------------------------------------------------------------------
 Center     Atomic      Atomic             Coordinates (Angstroms)
 Number     Number       Type             X           Y           Z
 ---------------------------------------------------------------------
      1          7           0       -0.063403   -0.026274   -0.000889
      2          7           0       -0.745230    1.121637   -0.018461
      3          6           0       -2.011610    0.733029   -0.012272
      4          6           0       -2.040403   -0.679213    0.008315
      5          7           0       -0.792551   -1.125761    0.014564
      6          1           0       -2.818082    1.450749   -0.022795
      7          1           0       -2.875476   -1.362440    0.019215
      8          1           0        1.212059    1.804162   -0.005015
      9          6           0        1.387353   -0.069165   -0.010568
     10          8           0        1.921172    1.141188   -0.012233
     11          8           0        1.977968   -1.095963   -0.022190
 ---------------------------------------------------------------------
                    Distance matrix (angstroms):
                    1          2          3          4          5
     1  N    0.000000
     2  N    1.335252   0.000000
     3  C    2.090977   1.324679   0.000000
     4  C    2.082052   2.218390   1.412686   0.000000
     5  N    1.319381   2.248139   2.223045   1.325360   0.000000
     6  H    3.125754   2.098821   1.079643   2.267706   3.277587
     7  H    3.113438   3.272614   2.266770   1.079011   2.096334
     8  H    2.230990   2.072921   3.396972   4.092168   3.550112
     9  C    1.451422   2.442536   3.492345   3.481670   2.422604
    10  O    2.302528   2.666481   3.953906   4.359857   3.536109
    11  O    2.304752   3.511918   4.388855   4.040038   2.770922
                    6          7          8          9         10
     6  H    0.000000
     7  H    2.814087   0.000000
     8  H    4.045646   5.170676   0.000000
     9  C    4.471686   4.454790   1.881519   0.000000
    10  O    4.749365   5.410819   0.970788   1.322845   0.000000
    11  O    5.430271   4.860929   2.999607   1.184599   2.237894
                   11
    11  O    0.000000
 Stoichiometry    C3H3N3O2
 Framework group  C1[X(C3H3N3O2)]
 Deg. of freedom    27
 Full point group                 C1      NOp   1
 Largest Abelian subgroup         C1      NOp   1
 Largest concise Abelian subgroup C1      NOp   1
                         Standard orientation:                         
 ---------------------------------------------------------------------
 Center     Atomic      Atomic             Coordinates (Angstroms)
 Number     Number       Type             X           Y           Z
 ---------------------------------------------------------------------
      1          7           0        0.056010   -0.059042   -0.005516
      2          7           0        0.719545    1.099598    0.007650
      3          6           0        1.991921    0.731043    0.008592
      4          6           0        2.043098   -0.680666   -0.003306
      5          7           0        0.802489   -1.146929   -0.011542
      6          1           0        2.786908    1.461481    0.017793
      7          1           0        2.888895   -1.350649   -0.006909
      8          1           0       -1.248215    1.750980   -0.017315
      9          6           0       -1.393915   -0.124819   -0.001042
     10          8           0       -1.946789    1.076925   -0.008741
     11          8           0       -1.968275   -1.160744    0.014593
 ---------------------------------------------------------------------
 Rotational constants (GHZ):           5.3365782           1.8206080           1.3575599
 Standard basis: 6-31+G(d,p) (6D, 7F)
 There are   167 symmetry adapted cartesian basis functions of A   symmetry.
 There are   167 symmetry adapted basis functions of A   symmetry.
   167 basis functions,   277 primitive gaussians,   167 cartesian basis functions
    29 alpha electrons       29 beta electrons
       nuclear repulsion energy       363.6108641003 Hartrees.
 NAtoms=   11 NActive=   11 NUniq=   11 SFac= 1.00D+00 NAtFMM=   60 NAOKFM=F Big=F
 Integral buffers will be    131072 words long.
 Raffenetti 2 integral format.
 Two-electron integral symmetry is turned on.
 One-electron integrals computed using PRISM.
 NBasis=   167 RedAO= T EigKep=  2.24D-05  NBF=   167
 NBsUse=   167 1.00D-06 EigRej= -1.00D+00 NBFU=   167
 Initial guess from the checkpoint file:  "/scratch/gongke2021/1-H-Tz-PC/Gau-3604.chk"
 B after Tr=    -0.000000    0.000000    0.000000
         Rot=    0.999996   -0.000072   -0.000075   -0.002857 Ang=  -0.33 deg.
 ExpMin= 4.38D-02 ExpMax= 5.48D+03 ExpMxC= 8.25D+02 IAcc=2 IRadAn=         4 AccDes= 0.00D+00
 Harris functional with IExCor= 1009 and IRadAn=       4 diagonalized for initial guess.
 HarFok:  IExCor= 1009 AccDes= 0.00D+00 IRadAn=         4 IDoV= 1 UseB2=F ITyADJ=14
 ICtDFT=  3500011 ScaDFX=  1.000000  1.000000  1.000000  1.000000
 FoFCou: FMM=F IPFlag=           0 FMFlag=      100000 FMFlg1=           0
         NFxFlg=           0 DoJE=T BraDBF=F KetDBF=T FulRan=T
         wScrn=  0.000000 ICntrl=       500 IOpCl=  0 I1Cent=   200000004 NGrid=           0
         NMat0=    1 NMatS0=      1 NMatT0=    0 NMatD0=    1 NMtDS0=    0 NMtDT0=    0
 Petite list used in FoFCou.
 Keep R1 ints in memory in canonical form, NReq=118249495.
 Requested convergence on RMS density matrix=1.00D-08 within 128 cycles.
 Requested convergence on MAX density matrix=1.00D-06.
 Requested convergence on             energy=1.00D-06.
 No special actions if energy rises.
 SCF Done:  E(RM062X) =  -430.654708733     A.U. after   12 cycles
            NFock= 12  Conv=0.61D-08     -V/T= 2.0081
 Calling FoFJK, ICntrl=      2127 FMM=F ISym2X=0 I1Cent= 0 IOpClX= 0 NMat=1 NMatS=1 NMatT=0.
 ***** Axes restored to original set *****
 -------------------------------------------------------------------
 Center     Atomic                   Forces (Hartrees/Bohr)
 Number     Number              X              Y              Z
 -------------------------------------------------------------------
      1        7           0.002588664    0.000635441   -0.000079329
      2        7           0.000398898   -0.001487075    0.000295509
      3        6           0.002248823    0.002274761   -0.000042758
      4        6           0.003970831   -0.001166375    0.000113192
      5        7          -0.005040305   -0.002303451   -0.000042215
      6        1           0.000436946   -0.000089137   -0.000013080
      7        1          -0.000089038    0.000311330   -0.000028527
      8        1          -0.000992276    0.004421615   -0.000057731
      9        6          -0.005826797    0.001558835   -0.000832739
     10        8          -0.001159023    0.001163986    0.000240683
     11        8           0.003463276   -0.005319930    0.000446996
 -------------------------------------------------------------------
 Cartesian Forces:  Max     0.005826797 RMS     0.002261844

 GradGradGradGradGradGradGradGradGradGradGradGradGradGradGradGradGradGrad
 Berny optimization.
 Using GEDIIS/GDIIS optimizer.
 FormGI is forming the generalized inverse of G from B-inverse, IUseBI=4.
 Internal  Forces:  Max     0.006334642 RMS     0.002384296
 Search for a local minimum.
 Step number   4 out of a maximum of   54
 All quantities printed in internal units (Hartrees-Bohrs-Radians)
 Mixed Optimization -- RFO/linear search
 Update second derivatives using D2CorX and points    1    2    3    4
 DE= -2.22D-03 DEPred=-2.22D-03 R= 9.97D-01
 TightC=F SS=  1.41D+00  RLast= 1.14D-01 DXNew= 1.3585D+00 3.4118D-01
 Trust test= 9.97D-01 RLast= 1.14D-01 DXMaxT set to 8.08D-01
 ITU=  1  1  1  0
 Use linear search instead of GDIIS.
     Eigenvalues ---    0.00230   0.01394   0.01409   0.02135   0.02252
     Eigenvalues ---    0.02321   0.02520   0.03479   0.15965   0.16004
     Eigenvalues ---    0.16473   0.18557   0.22838   0.25278   0.25559
     Eigenvalues ---    0.32267   0.36196   0.36311   0.41232   0.45520
     Eigenvalues ---    0.51846   0.53842   0.56755   0.64051   0.68081
     Eigenvalues ---    0.73387   1.05304
 RFO step:  Lambda=-4.82926138D-04 EMin= 2.30364248D-03
 Quartic linear search produced a step of  0.02759.
 Iteration  1 RMS(Cart)=  0.02416642 RMS(Int)=  0.00030139
 Iteration  2 RMS(Cart)=  0.00032952 RMS(Int)=  0.00003584
 Iteration  3 RMS(Cart)=  0.00000006 RMS(Int)=  0.00003584
 Variable       Old X    -DE/DX   Delta X   Delta X   Delta X     New X
                                 (Linear)    (Quad)   (Total)
    R1        2.52326  -0.00245   0.00006  -0.00196  -0.00190   2.52136
    R2        2.49327   0.00263   0.00018   0.00499   0.00517   2.49844
    R3        2.74279  -0.00456  -0.00100  -0.00706  -0.00806   2.73474
    R4        2.50328  -0.00356   0.00010  -0.00548  -0.00538   2.49790
    R5        2.66959   0.00125  -0.00006   0.00164   0.00158   2.67117
    R6        2.04023  -0.00039   0.00004  -0.00107  -0.00103   2.03920
    R7        2.50457  -0.00280   0.00022  -0.00503  -0.00481   2.49976
    R8        2.03903  -0.00013   0.00001  -0.00021  -0.00020   2.03883
    R9        1.83452   0.00374   0.00021   0.00625   0.00646   1.84098
   R10        2.49981   0.00424   0.00089   0.00471   0.00560   2.50541
   R11        2.23857   0.00633   0.00011   0.00530   0.00542   2.24398
    A1        2.02014   0.00128  -0.00098   0.00175   0.00076   2.02090
    A2        2.13615  -0.00627   0.00102  -0.01369  -0.01269   2.12347
    A3        2.12685   0.00499  -0.00003   0.01200   0.01196   2.13881
    A4        1.80894  -0.00005   0.00086  -0.00060   0.00026   1.80920
    A5        1.88896   0.00003  -0.00038   0.00031  -0.00007   1.88889
    A6        2.11653  -0.00025   0.00030  -0.00148  -0.00119   2.11534
    A7        2.27770   0.00022   0.00009   0.00117   0.00126   2.27896
    A8        1.89410   0.00106  -0.00009   0.00245   0.00235   1.89645
    A9        2.27696  -0.00084  -0.00011  -0.00265  -0.00275   2.27421
   A10        2.11213  -0.00023   0.00020   0.00020   0.00040   2.11253
   A11        1.81264  -0.00232   0.00060  -0.00391  -0.00330   1.80934
   A12        1.95662  -0.00417   0.00074  -0.00396  -0.00335   1.95327
   A13        2.12237   0.00247   0.00002   0.00578   0.00569   2.12806
   A14        2.20418   0.00170  -0.00076  -0.00166  -0.00254   2.20164
   A15        1.90718   0.00468   0.00168   0.01638   0.01806   1.92524
    D1        0.00135  -0.00004  -0.00001  -0.00230  -0.00230  -0.00096
    D2        3.13335   0.00012  -0.00001   0.00438   0.00432   3.13767
    D3       -0.00122   0.00003   0.00003   0.00156   0.00160   0.00038
    D4       -3.13327  -0.00006   0.00002  -0.00492  -0.00495  -3.13822
    D5        0.02117  -0.00003  -0.00031  -0.03425  -0.03453  -0.01337
    D6       -3.11436  -0.00047  -0.00000  -0.06178  -0.06180   3.10702
    D7       -3.13060   0.00011  -0.00031  -0.02724  -0.02753   3.12506
    D8        0.01706  -0.00032  -0.00001  -0.05477  -0.05480  -0.03774
    D9       -0.00087   0.00004  -0.00002   0.00198   0.00196   0.00108
   D10        3.14116   0.00003  -0.00000   0.00126   0.00125  -3.14077
   D11        0.00021  -0.00003   0.00003  -0.00120  -0.00115  -0.00094
   D12        3.14086  -0.00000  -0.00002  -0.00025  -0.00026   3.14060
   D13        3.14131  -0.00001   0.00002  -0.00038  -0.00036   3.14095
   D14       -0.00122   0.00002  -0.00003   0.00057   0.00053  -0.00069
   D15        0.00056   0.00000  -0.00004  -0.00018  -0.00022   0.00034
   D16       -3.14020  -0.00002   0.00001  -0.00102  -0.00101  -3.14121
   D17        0.00163  -0.00030   0.00056  -0.01344  -0.01283  -0.01120
   D18        3.13681   0.00017   0.00023   0.01567   0.01586  -3.13051
         Item               Value     Threshold  Converged?
 Maximum Force            0.006335     0.000450     NO 
 RMS     Force            0.002384     0.000300     NO 
 Maximum Displacement     0.082257     0.001800     NO 
 RMS     Displacement     0.024199     0.001200     NO 
 Predicted change in Energy=-2.448747D-04
 GradGradGradGradGradGradGradGradGradGradGradGradGradGradGradGradGradGrad

                          Input orientation:                          
 ---------------------------------------------------------------------
 Center     Atomic      Atomic             Coordinates (Angstroms)
 Number     Number       Type             X           Y           Z
 ---------------------------------------------------------------------
      1          7           0       -0.062741   -0.038530   -0.003171
      2          7           0       -0.736855    1.112887    0.001380
      3          6           0       -2.003014    0.733311    0.001229
      4          6           0       -2.040934   -0.679696   -0.002116
      5          7           0       -0.799450   -1.136369   -0.005122
      6          1           0       -2.803528    1.456930    0.003675
      7          1           0       -2.882175   -1.355233   -0.002411
      8          1           0        1.200710    1.817306   -0.041346
      9          6           0        1.384022   -0.071813   -0.009428
     10          8           0        1.906928    1.146403   -0.026358
     11          8           0        1.988835   -1.093248    0.021338
 ---------------------------------------------------------------------
                    Distance matrix (angstroms):
                    1          2          3          4          5
     1  N    0.000000
     2  N    1.334246   0.000000
     3  C    2.088161   1.321831   0.000000
     4  C    2.079506   2.216752   1.413520   0.000000
     5  N    1.322118   2.250137   2.223580   1.322816   0.000000
     6  H    3.122236   2.095115   1.079098   2.268646   3.277439
     7  H    3.111738   3.270173   2.266043   1.078905   2.094195
     8  H    2.245416   2.062084   3.382411   4.092043   3.567373
     9  C    1.447160   2.429352   3.481430   3.478491   2.429166
    10  O    2.298739   2.644141   3.931800   4.349809   3.540619
    11  O    2.306945   3.506682   4.389940   4.051001   2.788744
                    6          7          8          9         10
     6  H    0.000000
     7  H    2.813269   0.000000
     8  H    4.020674   5.170732   0.000000
     9  C    4.457892   4.455071   1.898260   0.000000
    10  O    4.720775   5.403172   0.974206   1.325808   0.000000
    11  O    5.428670   4.878108   3.016023   1.187466   2.241656
                   11
    11  O    0.000000
 Stoichiometry    C3H3N3O2
 Framework group  C1[X(C3H3N3O2)]
 Deg. of freedom    27
 Full point group                 C1      NOp   1
 Largest Abelian subgroup         C1      NOp   1
 Largest concise Abelian subgroup C1      NOp   1
                         Standard orientation:                         
 ---------------------------------------------------------------------
 Center     Atomic      Atomic             Coordinates (Angstroms)
 Number     Number       Type             X           Y           Z
 ---------------------------------------------------------------------
      1          7           0        0.055802   -0.068625    0.000509
      2          7           0        0.709916    1.094203   -0.012771
      3          6           0        1.982447    0.736595   -0.008248
      4          6           0        2.044782   -0.675471    0.006678
      5          7           0        0.811375   -1.153506    0.012169
      6          1           0        2.770335    1.473907   -0.015802
      7          1           0        2.897574   -1.336332    0.013336
      8          1           0       -1.239583    1.765332    0.022254
      9          6           0       -1.390176   -0.126872    0.005586
     10          8           0       -1.934081    1.082216    0.012038
     11          8           0       -1.977206   -1.158832   -0.017442
 ---------------------------------------------------------------------
 Rotational constants (GHZ):           5.3226686           1.8256818           1.3595083
 Standard basis: 6-31+G(d,p) (6D, 7F)
 There are   167 symmetry adapted cartesian basis functions of A   symmetry.
 There are   167 symmetry adapted basis functions of A   symmetry.
   167 basis functions,   277 primitive gaussians,   167 cartesian basis functions
    29 alpha electrons       29 beta electrons
       nuclear repulsion energy       363.6827506450 Hartrees.
 NAtoms=   11 NActive=   11 NUniq=   11 SFac= 1.00D+00 NAtFMM=   60 NAOKFM=F Big=F
 Integral buffers will be    131072 words long.
 Raffenetti 2 integral format.
 Two-electron integral symmetry is turned on.
 One-electron integrals computed using PRISM.
 NBasis=   167 RedAO= T EigKep=  2.25D-05  NBF=   167
 NBsUse=   167 1.00D-06 EigRej= -1.00D+00 NBFU=   167
 Initial guess from the checkpoint file:  "/scratch/gongke2021/1-H-Tz-PC/Gau-3604.chk"
 B after Tr=     0.000000   -0.000000   -0.000000
         Rot=    1.000000    0.000008   -0.000004   -0.000126 Ang=   0.01 deg.
 ExpMin= 4.38D-02 ExpMax= 5.48D+03 ExpMxC= 8.25D+02 IAcc=2 IRadAn=         4 AccDes= 0.00D+00
 Harris functional with IExCor= 1009 and IRadAn=       4 diagonalized for initial guess.
 HarFok:  IExCor= 1009 AccDes= 0.00D+00 IRadAn=         4 IDoV= 1 UseB2=F ITyADJ=14
 ICtDFT=  3500011 ScaDFX=  1.000000  1.000000  1.000000  1.000000
 FoFCou: FMM=F IPFlag=           0 FMFlag=      100000 FMFlg1=           0
         NFxFlg=           0 DoJE=T BraDBF=F KetDBF=T FulRan=T
         wScrn=  0.000000 ICntrl=       500 IOpCl=  0 I1Cent=   200000004 NGrid=           0
         NMat0=    1 NMatS0=      1 NMatT0=    0 NMatD0=    1 NMtDS0=    0 NMtDT0=    0
 Petite list used in FoFCou.
 Keep R1 ints in memory in canonical form, NReq=118249495.
 Requested convergence on RMS density matrix=1.00D-08 within 128 cycles.
 Requested convergence on MAX density matrix=1.00D-06.
 Requested convergence on             energy=1.00D-06.
 No special actions if energy rises.
 SCF Done:  E(RM062X) =  -430.654961530     A.U. after   12 cycles
            NFock= 12  Conv=0.52D-08     -V/T= 2.0081
 Calling FoFJK, ICntrl=      2127 FMM=F ISym2X=0 I1Cent= 0 IOpClX= 0 NMat=1 NMatS=1 NMatT=0.
 ***** Axes restored to original set *****
 -------------------------------------------------------------------
 Center     Atomic                   Forces (Hartrees/Bohr)
 Number     Number              X              Y              Z
 -------------------------------------------------------------------
      1        7           0.002822437   -0.000027759   -0.000560381
      2        7           0.000335463   -0.001063565   -0.000668365
      3        6           0.000113872    0.001784795    0.000159596
      4        6           0.001244945   -0.000899808    0.000019010
      5        7          -0.001757710   -0.000662804   -0.000018634
      6        1          -0.000087755   -0.000036370    0.000083952
      7        1          -0.000163697    0.000157830   -0.000017149
      8        1           0.000389284   -0.000011184    0.000063524
      9        6          -0.002298023    0.000805657    0.003244760
     10        8          -0.001336478    0.000986664   -0.000896032
     11        8           0.000737663   -0.001033455   -0.001410282
 -------------------------------------------------------------------
 Cartesian Forces:  Max     0.003244760 RMS     0.001140578

 GradGradGradGradGradGradGradGradGradGradGradGradGradGradGradGradGradGrad
 Berny optimization.
 Using GEDIIS/GDIIS optimizer.
 FormGI is forming the generalized inverse of G from B-inverse, IUseBI=4.
 Internal  Forces:  Max     0.002527726 RMS     0.000877406
 Search for a local minimum.
 Step number   5 out of a maximum of   54
 All quantities printed in internal units (Hartrees-Bohrs-Radians)
 Mixed Optimization -- En-DIIS/RFO-DIIS
 Update second derivatives using D2CorX and points    1    2    3    4    5
 DE= -2.53D-04 DEPred=-2.45D-04 R= 1.03D+00
 TightC=F SS=  1.41D+00  RLast= 1.01D-01 DXNew= 1.3585D+00 3.0313D-01
 Trust test= 1.03D+00 RLast= 1.01D-01 DXMaxT set to 8.08D-01
 ITU=  1  1  1  1  0
 Use linear search instead of GDIIS.
     Eigenvalues ---    0.00274   0.01390   0.01985   0.02135   0.02251
     Eigenvalues ---    0.02334   0.02518   0.03465   0.15477   0.16038
     Eigenvalues ---    0.16279   0.18998   0.21112   0.22940   0.25504
     Eigenvalues ---    0.28726   0.36196   0.36320   0.40925   0.44643
     Eigenvalues ---    0.48838   0.53350   0.56609   0.61100   0.65481
     Eigenvalues ---    0.74374   1.03392
 RFO step:  Lambda=-4.38498931D-04 EMin= 2.74093334D-03
 Quartic linear search produced a step of  0.04152.
 Iteration  1 RMS(Cart)=  0.03020055 RMS(Int)=  0.00084413
 Iteration  2 RMS(Cart)=  0.00092195 RMS(Int)=  0.00030830
 Iteration  3 RMS(Cart)=  0.00000050 RMS(Int)=  0.00030830
 Variable       Old X    -DE/DX   Delta X   Delta X   Delta X     New X
                                 (Linear)    (Quad)   (Total)
    R1        2.52136  -0.00068  -0.00008  -0.00196  -0.00204   2.51932
    R2        2.49844   0.00107   0.00021   0.00772   0.00793   2.50637
    R3        2.73474  -0.00253  -0.00033  -0.01899  -0.01932   2.71541
    R4        2.49790  -0.00079  -0.00022  -0.00607  -0.00629   2.49161
    R5        2.67117   0.00092   0.00007   0.00336   0.00343   2.67459
    R6        2.03920   0.00004  -0.00004  -0.00070  -0.00074   2.03846
    R7        2.49976  -0.00043  -0.00020  -0.00492  -0.00512   2.49464
    R8        2.03883   0.00003  -0.00001  -0.00002  -0.00003   2.03880
    R9        1.84098  -0.00029   0.00027   0.00455   0.00482   1.84581
   R10        2.50541   0.00053   0.00023   0.00974   0.00997   2.51538
   R11        2.24398   0.00123   0.00022   0.00618   0.00641   2.25039
    A1        2.02090  -0.00003   0.00003  -0.00308  -0.00306   2.01784
    A2        2.12347  -0.00237  -0.00053  -0.01345  -0.01397   2.10950
    A3        2.13881   0.00241   0.00050   0.01653   0.01703   2.15584
    A4        1.80920   0.00066   0.00001   0.00477   0.00478   1.81397
    A5        1.88889  -0.00052  -0.00000  -0.00292  -0.00292   1.88596
    A6        2.11534   0.00035  -0.00005   0.00117   0.00112   2.11646
    A7        2.27896   0.00017   0.00005   0.00175   0.00180   2.28076
    A8        1.89645   0.00041   0.00010   0.00329   0.00338   1.89983
    A9        2.27421  -0.00044  -0.00011  -0.00476  -0.00487   2.26933
   A10        2.11253   0.00002   0.00002   0.00147   0.00149   2.11402
   A11        1.80934  -0.00053  -0.00014  -0.00205  -0.00220   1.80715
   A12        1.95327  -0.00187  -0.00014  -0.00337  -0.00466   1.94862
   A13        2.12806   0.00109   0.00024   0.01006   0.00915   2.13720
   A14        2.20164   0.00081  -0.00011  -0.00494  -0.00617   2.19546
   A15        1.92524   0.00048   0.00075   0.01893   0.01968   1.94492
    D1       -0.00096   0.00019  -0.00010   0.00715   0.00706   0.00610
    D2        3.13767   0.00011   0.00018   0.00628   0.00647  -3.13905
    D3        0.00038  -0.00015   0.00007  -0.00576  -0.00568  -0.00530
    D4       -3.13822  -0.00006  -0.00021  -0.00482  -0.00501   3.13995
    D5       -0.01337  -0.00048  -0.00143   0.01560   0.01404   0.00067
    D6        3.10702   0.00102  -0.00257   0.10041   0.09797  -3.07820
    D7        3.12506  -0.00057  -0.00114   0.01462   0.01336   3.13841
    D8       -0.03774   0.00093  -0.00228   0.09943   0.09728   0.05955
    D9        0.00108  -0.00015   0.00008  -0.00531  -0.00523  -0.00415
   D10       -3.14077  -0.00011   0.00005  -0.00352  -0.00348   3.13893
   D11       -0.00094   0.00007  -0.00005   0.00226   0.00220   0.00126
   D12        3.14060   0.00006  -0.00001   0.00291   0.00290  -3.13968
   D13        3.14095   0.00002  -0.00001   0.00025   0.00022   3.14118
   D14       -0.00069   0.00001   0.00002   0.00090   0.00093   0.00024
   D15        0.00034   0.00004  -0.00001   0.00191   0.00191   0.00225
   D16       -3.14121   0.00005  -0.00004   0.00133   0.00128  -3.13992
   D17       -0.01120   0.00084  -0.00053   0.05056   0.04971   0.03851
   D18       -3.13051  -0.00074   0.00066  -0.03880  -0.03783   3.11485
         Item               Value     Threshold  Converged?
 Maximum Force            0.002528     0.000450     NO 
 RMS     Force            0.000877     0.000300     NO 
 Maximum Displacement     0.109686     0.001800     NO 
 RMS     Displacement     0.030334     0.001200     NO 
 Predicted change in Energy=-2.264325D-04
 GradGradGradGradGradGradGradGradGradGradGradGradGradGradGradGradGradGrad

                          Input orientation:                          
 ---------------------------------------------------------------------
 Center     Atomic      Atomic             Coordinates (Angstroms)
 Number     Number       Type             X           Y           Z
 ---------------------------------------------------------------------
      1          7           0       -0.058529   -0.054492    0.001750
      2          7           0       -0.725459    1.099600   -0.023027
      3          6           0       -1.992350    0.734399   -0.014973
      4          6           0       -2.041097   -0.679875    0.009932
      5          7           0       -0.807241   -1.149147    0.018149
      6          1           0       -2.785722    1.465144   -0.028151
      7          1           0       -2.890699   -1.344745    0.021133
      8          1           0        1.184643    1.831828    0.002345
      9          6           0        1.378244   -0.075693    0.005138
     10          8           0        1.887529    1.153892   -0.017918
     11          8           0        2.002478   -1.088965   -0.036705
 ---------------------------------------------------------------------
                    Distance matrix (angstroms):
                    1          2          3          4          5
     1  N    0.000000
     2  N    1.333168   0.000000
     3  C    2.088610   1.318503   0.000000
     4  C    2.078881   2.213261   1.415333   0.000000
     5  N    1.326314   2.250610   2.225606   1.320108   0.000000
[...]
    R6        2.03922  -0.00000   0.00000  -0.00001  -0.00001   2.03921
    R7        2.49766  -0.00004   0.00000  -0.00017  -0.00017   2.49749
    R8        2.03904  -0.00000   0.00000  -0.00000  -0.00000   2.03904
    R9        1.84008   0.00007   0.00000   0.00012   0.00012   1.84021
   R10        2.50679  -0.00008   0.00000  -0.00010  -0.00010   2.50669
   R11        2.24569   0.00005   0.00000   0.00008   0.00008   2.24578
    A1        2.01919  -0.00002   0.00000  -0.00013  -0.00013   2.01905
    A2        2.11483   0.00004   0.00000   0.00021   0.00021   2.11504
    A3        2.14916  -0.00001   0.00000  -0.00007  -0.00007   2.14909
    A4        1.81234   0.00002   0.00000   0.00008   0.00008   1.81243
    A5        1.88635  -0.00001   0.00000  -0.00001  -0.00001   1.88633
    A6        2.11771   0.00003   0.00000   0.00025   0.00025   2.11796
    A7        2.27913  -0.00002   0.00000  -0.00023  -0.00023   2.27890
    A8        1.89831   0.00000   0.00000  -0.00000  -0.00000   1.89831
    A9        2.27116  -0.00002   0.00000  -0.00017  -0.00017   2.27098
   A10        2.11372   0.00001   0.00000   0.00018   0.00018   2.11389
   A11        1.80859   0.00001   0.00000   0.00007   0.00007   1.80866
   A12        1.95074  -0.00009   0.00000  -0.00015  -0.00015   1.95059
   A13        2.13102   0.00004   0.00000   0.00014   0.00014   2.13117
   A14        2.20142   0.00004   0.00000   0.00000   0.00000   2.20143
   A15        1.92740   0.00001   0.00000   0.00010   0.00010   1.92750
    D1        0.00066  -0.00004   0.00000  -0.00066  -0.00066   0.00000
    D2       -3.14153  -0.00002   0.00000  -0.00006  -0.00006   3.14159
    D3       -0.00077   0.00004   0.00000   0.00077   0.00077  -0.00000
    D4        3.14143   0.00002   0.00000   0.00016   0.00016  -3.14159
    D5       -0.00002  -0.00001   0.00000   0.00002   0.00002  -0.00000
    D6        3.14158  -0.00001   0.00000   0.00001   0.00001   3.14159
    D7        3.14093   0.00001   0.00000   0.00066   0.00066   3.14159
    D8       -0.00065   0.00001   0.00000   0.00065   0.00065  -0.00000
    D9       -0.00026   0.00001   0.00000   0.00026   0.00026  -0.00000
   D10        3.14134   0.00001   0.00000   0.00025   0.00025  -3.14159
   D11       -0.00019   0.00001   0.00000   0.00019   0.00019  -0.00000
   D12       -3.14152  -0.00000   0.00000  -0.00008  -0.00008  -3.14159
   D13        3.14140   0.00001   0.00000   0.00019   0.00019   3.14159
   D14        0.00007  -0.00000   0.00000  -0.00007  -0.00007   0.00000
   D15        0.00054  -0.00003   0.00000  -0.00054  -0.00054   0.00000
   D16       -3.14128  -0.00002   0.00000  -0.00031  -0.00031   3.14159
   D17        0.00034  -0.00001   0.00000  -0.00034  -0.00034   0.00000
   D18       -3.14126  -0.00000   0.00000  -0.00033  -0.00033  -3.14159
         Item               Value     Threshold  Converged?
 Maximum Force            0.000166     0.000450     YES
 RMS     Force            0.000040     0.000300     YES
 Maximum Displacement     0.000762     0.001800     YES
 RMS     Displacement     0.000218     0.001200     YES
 Predicted change in Energy=-1.520962D-07
 Optimization completed.
    -- Stationary point found.
                           ----------------------------
                           !   Optimized Parameters   !
                           ! (Angstroms and Degrees)  !
 --------------------------                            --------------------------
 ! Name  Definition              Value          Derivative Info.                !
 --------------------------------------------------------------------------------
 ! R1    R(1,2)                  1.3339         -DE/DX =    0.0                 !
 ! R2    R(1,5)                  1.324          -DE/DX =    0.0                 !
 ! R3    R(1,9)                  1.4434         -DE/DX =   -0.0002              !
 ! R4    R(2,3)                  1.3206         -DE/DX =   -0.0001              !
 ! R5    R(3,4)                  1.4152         -DE/DX =    0.0                 !
 ! R6    R(3,6)                  1.0791         -DE/DX =    0.0                 !
 ! R7    R(4,5)                  1.3217         -DE/DX =    0.0                 !
 ! R8    R(4,7)                  1.079          -DE/DX =    0.0                 !
 ! R9    R(8,10)                 0.9737         -DE/DX =    0.0001              !
 ! R10   R(9,10)                 1.3265         -DE/DX =   -0.0001              !
 ! R11   R(9,11)                 1.1884         -DE/DX =    0.0                 !
 ! A1    A(2,1,5)              115.6908         -DE/DX =    0.0                 !
 ! A2    A(2,1,9)              121.1711         -DE/DX =    0.0                 !
 ! A3    A(5,1,9)              123.138          -DE/DX =    0.0                 !
 ! A4    A(1,2,3)              103.8397         -DE/DX =    0.0                 !
 ! A5    A(2,3,4)              108.0796         -DE/DX =    0.0                 !
 ! A6    A(2,3,6)              121.3359         -DE/DX =    0.0                 !
 ! A7    A(4,3,6)              130.5845         -DE/DX =    0.0                 !
 ! A8    A(3,4,5)              108.7654         -DE/DX =    0.0                 !
 ! A9    A(3,4,7)              130.1276         -DE/DX =    0.0                 !
 ! A10   A(5,4,7)              121.107          -DE/DX =    0.0                 !
 ! A11   A(1,5,4)              103.6245         -DE/DX =    0.0                 !
 ! A12   A(1,9,10)             111.769          -DE/DX =   -0.0001              !
 ! A13   A(1,9,11)             122.0987         -DE/DX =    0.0                 !
 ! A14   A(10,9,11)            126.1323         -DE/DX =    0.0                 !
 ! A15   A(8,10,9)             110.432          -DE/DX =    0.0                 !
 ! D1    D(5,1,2,3)              0.0377         -DE/DX =    0.0                 !
 ! D2    D(9,1,2,3)            180.0035         -DE/DX =    0.0                 !
 ! D3    D(2,1,5,4)             -0.0441         -DE/DX =    0.0                 !
 ! D4    D(9,1,5,4)           -180.0092         -DE/DX =    0.0                 !
 ! D5    D(2,1,9,10)            -0.0013         -DE/DX =    0.0                 !
 ! D6    D(2,1,9,11)           179.9993         -DE/DX =    0.0                 !
 ! D7    D(5,1,9,10)           179.9619         -DE/DX =    0.0                 !
 ! D8    D(5,1,9,11)            -0.0375         -DE/DX =    0.0                 !
 ! D9    D(1,2,3,4)             -0.0148         -DE/DX =    0.0                 !
 ! D10   D(1,2,3,6)           -180.0145         -DE/DX =    0.0                 !
 ! D11   D(2,3,4,5)             -0.0107         -DE/DX =    0.0                 !
 ! D12   D(2,3,4,7)           -179.9956         -DE/DX =    0.0                 !
 ! D13   D(6,3,4,5)            179.989          -DE/DX =    0.0                 !
 ! D14   D(6,3,4,7)              0.004          -DE/DX =    0.0                 !
 ! D15   D(3,4,5,1)              0.0311         -DE/DX =    0.0                 !
 ! D16   D(7,4,5,1)            180.0177         -DE/DX =    0.0                 !
 ! D17   D(1,9,10,8)             0.0198         -DE/DX =    0.0                 !
 ! D18   D(11,9,10,8)         -179.9809         -DE/DX =    0.0                 !
 --------------------------------------------------------------------------------
 GradGradGradGradGradGradGradGradGradGradGradGradGradGradGradGradGradGrad


 ----------------------------------------------------------------------

 Electric dipole moment (input orientation):
 (Debye = 10**-18 statcoulomb cm , SI units = C m)
                  (au)            (Debye)         (10**-30 SI)
   Tot        0.201405D+01      0.511921D+01      0.170758D+02
   x         -0.173003D+01     -0.439730D+01     -0.146678D+02
   y          0.103121D+01      0.262106D+01      0.874293D+01
   z         -0.340594D-02     -0.865703D-02     -0.288768D-01

 Dipole polarizability, Alpha (input orientation).
 (esu units = cm**3 , SI units = C**2 m**2 J**-1)
 Alpha(0;0):
               (au)            (10**-24 esu)      (10**-40 SI)
   iso        0.586760D+02      0.869489D+01      0.967437D+01
   aniso      0.398945D+02      0.591176D+01      0.657772D+01
   xx         0.791682D+02      0.117315D+02      0.130531D+02
   yx        -0.273042D+01     -0.404606D+00     -0.450185D+00
   yy         0.628547D+02      0.931411D+01      0.103633D+02
   zx        -0.803433D-01     -0.119056D-01     -0.132468D-01
   zy        -0.203177D+00     -0.301077D-01     -0.334993D-01
   zz         0.340052D+02      0.503905D+01      0.560670D+01

 ----------------------------------------------------------------------

 Dipole orientation:
     7         -0.07635155         -0.11043476          0.05173401
     7          0.54179153          0.94547416          2.25563192
     6         -0.38289454         -0.63230374          3.95369147
     6         -1.56512202         -2.64944967          2.65538699
     7         -1.34019733         -2.26475167          0.19779896
     1         -0.17658337         -0.28030683          5.95167809
     1         -2.52885422         -4.29359560          3.38044252
     1          2.06401020          3.54146496         -0.16851696
     6          0.60918033          1.05860395         -2.31544907
     8          1.86393724          3.20037654         -1.96560932
     8          0.07465267          0.14545023         -4.29624867

 Electric dipole moment (dipole orientation):
 (Debye = 10**-18 statcoulomb cm , SI units = C m)
                  (au)            (Debye)         (10**-30 SI)
   Tot        0.201405D+01      0.511921D+01      0.170758D+02
   x          0.000000D+00      0.000000D+00      0.000000D+00
   y          0.000000D+00      0.000000D+00      0.000000D+00
   z          0.201405D+01      0.511921D+01      0.170758D+02

 Dipole polarizability, Alpha (dipole orientation).
 (esu units = cm**3 , SI units = C**2 m**2 J**-1)
 Alpha(0;0):
               (au)            (10**-24 esu)      (10**-40 SI)
   iso        0.586760D+02      0.869489D+01      0.967437D+01
   aniso      0.398945D+02      0.591176D+01      0.657772D+01
   xx         0.418612D+02      0.620319D+01      0.690198D+01
   yx         0.134054D+02      0.198648D+01      0.221025D+01
   yy         0.568736D+02      0.842780D+01      0.937719D+01
   zx        -0.297550D+01     -0.440924D+00     -0.490594D+00
   zy        -0.506652D+01     -0.750781D+00     -0.835357D+00
   zz         0.772933D+02      0.114537D+02      0.127439D+02

 ----------------------------------------------------------------------
 1\1\GINC-NODE1\Freq\RM062X\6-31+G(d,p)\C3H3N3O2\GONGKE2021\10-Mar-2023
 \0\\#N Geom=AllCheck Guess=TCheck SCRF=Check GenChk RM062X/6-31+G(d,p)
  Freq\\"Sketch 2"\\0,1\N,-0.059802645,-0.0468764619,-0.0048307308\N,-0
 .730085836,1.1063929931,-0.0119140038\C,-1.997433314,0.735219829,-0.00
 62664699\C,-2.0407609679,-0.679282918,0.0040393992\N,-0.8029194859,-1.
 1425934743,0.0042480924\H,-2.7950794952,1.4620103117,-0.0096457402\H,-
 2.8866897648,-1.3490842181,0.0107909949\H,1.1871790326,1.8174653464,-0
 .0211779365\C,1.3833898404,-0.072247881,-0.007843214\O,1.8969125014,1.
 1508164876,-0.0180984115\O,1.9970875243,-1.0898718946,-0.0016302999\\V
 ersion=ES64L-G16RevA.03\State=1-A\HF=-430.6550453\RMSD=3.835e-09\RMSF=
 6.485e-05\ZeroPoint=0.0755173\Thermal=0.0815244\Dipole=-1.7300312,1.03
 12059,-0.0034059\DipoleDeriv=-1.5317492,0.055023,0.0031084,0.01071,0.0
 176605,0.0002322,0.0028571,0.0000829,0.0424453,0.1210107,-0.1801424,0.
 0006443,-0.4721612,-0.4366164,0.0027398,0.0029246,0.0022436,-0.1819085
 ,-0.1881753,-0.0049687,0.0003376,-0.4162106,0.2854601,-0.0013474,0.003
 3061,-0.0022199,-0.0323289,-0.1861041,0.1245965,-0.0006286,0.4393496,0
 .1606779,-0.0024708,-0.0028691,-0.0018001,-0.0451476,0.3244081,-0.0128
 618,-0.000978,0.3737179,-0.3509649,0.0006676,-0.0035162,0.0014293,-0.1
 583418,0.0748283,0.0190515,0.0000588,0.0411171,0.0680518,0.0005804,-0.
 000066,0.0006177,0.1603265,0.0684557,-0.0190469,0.0003541,-0.0415767,0
 .0744105,0.0007002,0.0005221,0.0006442,0.1613835,0.4549478,0.0444744,-
 0.0005196,0.0646796,0.4136792,-0.0006041,-0.0006452,-0.0006219,0.34768
 9,2.6259579,-0.0702355,-0.0041972,-0.1765085,1.9274767,-0.0106121,-0.0
 032677,-0.010827,0.4558017,-0.7379171,-0.2835039,0.0028084,-0.2946692,
 -1.2186311,0.0068117,0.0028298,0.0068769,-0.3891353,-1.0256629,0.32761
 36,-0.0009883,0.4715519,-0.9412044,0.0033024,-0.0020753,0.0035744,-0.3
 60784\Polar=79.1682307,-2.7304168,62.8547015,-0.0803433,-0.2031765,34.
 005191\Quadrupole=1.2665693,-1.2358842,-0.0306851,2.3122115,-0.0204587
 ,0.0041578\PG=C01 [X(C3H3N3O2)]\NImag=0\\0.82923213,0.01295157,0.69181
 999,-0.00165109,-0.00418491,0.11208762,-0.12112089,0.11251891,-0.00068
 534,0.64005316,0.02822607,-0.25634327,0.00128169,0.06561941,0.52520398
 ,-0.00008675,0.00112977,-0.07042965,-0.00169706,-0.00318032,0.10681091
 ,-0.14124848,0.05969308,-0.00010497,-0.39578552,-0.08786858,0.00139708
 ,0.84720496,-0.00125488,-0.02283771,0.00022048,-0.09559344,-0.14501722
 ,0.00076734,-0.15184618,0.70662104,0.00033216,0.00012616,0.01206309,0.
 00145639,0.00073086,-0.07208960,-0.00054226,-0.00374130,0.14070678,-0.
 14732538,-0.05821272,0.00075584,0.00043212,-0.01737469,0.00017864,-0.1
 1896705,-0.02975732,0.00031318,0.86304661,0.01004113,-0.01332542,0.000
 17913,-0.11417522,-0.02870232,0.00059916,0.01676145,-0.28862340,0.0015
 2964,0.14498510,0.68675996,0.00025892,0.00029219,0.01003079,0.00086517
 ,0.00039243,0.02069633,-0.00001347,0.00163218,-0.07198706,-0.00274452,
 -0.00420756,0.14135911,-0.13527493,-0.12215354,0.00100478,-0.05389409,
 -0.01912304,0.00030320,0.00991520,0.11061282,-0.00075441,-0.37624160,0
 .10877771,-0.00000751,0.61341156,-0.04307989,-0.25710356,0.00141192,0.
 00759852,-0.10871577,0.00092201,0.01723606,-0.03303235,0.00034357,0.10
 315277,-0.15908542,0.00036288,-0.05491109,0.54030824,0.00044163,0.0015
 5244,-0.06927711,0.00012163,0.00102640,0.02623942,-0.00009402,0.000149
 81,0.02156918,0.00002191,0.00032681,-0.07179573,-0.00080241,-0.0029070
 8,0.10509461,-0.00588776,-0.00186792,0.00005090,-0.01802652,0.02159295
 ,-0.00013377,-0.22073028,0.15146783,-0.00065070,0.00892993,-0.00373045
 ,0.00000450,0.00081572,-0.00366313,0.00003709,0.23533887,-0.00645235,-
 0.00016664,0.00008279,-0.00939714,0.01252905,-0.00012095,0.16099210,-0
 .20801644,0.00089225,0.01853521,-0.00192885,-0.00003157,0.00209995,-0.
 00558710,0.00007603,-0.16566553,0.20233692,0.00008222,0.00007392,0.009
 37896,0.00008968,-0.00019360,-0.00713514,-0.00071789,0.00091581,-0.032
 96831,-0.00015336,0.00001671,-0.00036690,-0.00000592,0.00008987,0.0057
 4843,0.00070478,-0.00089300,0.02530302,-0.00571198,0.00154080,0.000027
 80,0.00098669,0.00331289,-0.00001207,0.00797414,0.00360641,-0.00004698
 ,-0.24159590,-0.14915808,0.00155454,-0.01899756,-0.01875882,0.00015363
 ,-0.00040112,-0.00041554,0.00000129,0.25791081,0.00684587,0.00028952,0
 .00004999,-0.00227031,-0.00581325,0.00009088,-0.01940426,-0.00210212,0
 .00005202,-0.15796723,-0.18604911,0.00145505,0.01122253,0.01291880,-0.
 00017062,0.00039422,-0.00035678,-0.00000620,0.16123590,0.17983786,-0.0
 0001248,0.00005953,0.00948640,0.00002469,0.00007727,0.00604681,0.00012
 172,0.00000509,-0.00075716,0.00161357,0.00142850,-0.03301380,-0.000053
 72,-0.00009704,-0.00769113,-0.00000449,-0.00000465,-0.00112321,-0.0016
 9129,-0.00147139,0.02576984,-0.00728103,-0.00947890,0.00008576,0.00122
 266,-0.00595007,0.00003586,-0.00463004,0.00140692,-0.00000165,-0.00105
 364,0.00214649,-0.00001169,0.00258388,0.00547280,-0.00004559,-0.000079
 81,-0.00005253,0.00000039,-0.00027439,0.00045297,-0.00000188,0.2754809
 4,-0.00047277,-0.00168122,0.00001806,-0.00050559,-0.00010821,-0.000012
 58,0.00129103,0.00132668,-0.00001856,0.00177408,-0.00028377,0.00000353
 ,0.00004697,-0.00246656,0.00001366,0.00016937,0.00009149,-0.00000217,0
 .00015217,-0.00002645,0.00000158,-0.22264077,0.28796230,0.00002091,0.0
 0003607,0.00029932,-0.00000441,-0.00000062,-0.00195702,-0.00000051,-0.
 00001811,-0.00083732,-0.00000859,0.00000223,0.00071801,-0.00000697,0.0
 0000337,-0.00038281,-0.00000142,-0.00000162,-0.00014398,0.00000013,0.0
 0000107,0.00025056,0.00096266,-0.00145377,0.01235508,-0.16881374,-0.00
 129479,0.00029605,-0.04208847,0.02477354,-0.00012563,0.02397016,0.0159
 7335,-0.00015652,0.02152129,-0.01975196,0.00010642,-0.04542369,-0.0265
 2085,0.00024964,0.00097005,0.00076967,-0.00000410,0.00082849,-0.000788
 55,0.00000740,0.02840193,0.02956079,-0.00029505,0.64501935,-0.01528799
 ,-0.10948197,0.00051371,0.02099925,0.00395522,-0.00019281,0.00807464,-
 0.01008529,0.00008414,-0.00633538,-0.01079102,0.00012306,-0.03355987,0
 .00560400,-0.00006919,0.00136707,0.00082036,0.00000889,-0.00132218,0.0
 0075080,0.00001395,-0.00034049,-0.03964539,0.00025651,-0.24606175,1.10
 888547,0.00040100,0.00047959,-0.04245019,-0.00010384,-0.00019298,-0.01
 562436,-0.00009648,0.00006999,0.00394404,0.00001668,0.00015160,0.00511
 439,0.00028895,-0.00009011,-0.01582087,-0.00000665,0.00001017,0.002457
 20,0.00001294,0.00001280,0.00227256,-0.00008003,0.00017446,-0.00569994
 ,0.00085228,-0.00616087,0.20440271,-0.03972041,-0.04810589,0.00046734,
 -0.00944874,-0.00364538,0.00005205,-0.00042068,-0.00441292,0.00003518,
 -0.00487676,-0.00174247,0.00002087,-0.00401520,0.00703297,-0.00002439,
 -0.00009206,0.00006340,-0.00000077,-0.00057880,0.00026189,-0.00000325,
 -0.29233725,0.19491873,-0.00071838,-0.16258267,-0.06221526,0.00071452,
 0.48359726,-0.03330218,-0.01958345,0.00031301,0.01347044,-0.00332094,0
 .00001011,-0.00774351,-0.00180943,0.00003685,-0.00391941,0.00418682,-0
 .00002608,0.00400470,0.00988797,-0.00004157,-0.00029884,-0.00010017,-0
 .00000010,-0.00040365,0.00060211,-0.00001074,0.24053794,-0.24287657,0.
 00108118,-0.10680272,-0.30365055,0.00207071,-0.10790488,0.65504367,0.0
 0036155,0.00035027,0.01298453,-0.00007093,0.00004532,0.00205121,0.0000
 5795,0.00002869,0.00099255,0.00003612,-0.00002881,-0.00055545,-0.00000
 673,-0.00005583,0.00473273,0.00000188,-0.00000111,-0.00023335,0.000001
 77,-0.00001216,-0.00100478,-0.00105064,0.00120091,-0.01107650,0.001038
 46,0.00195993,-0.05740553,-0.00031837,-0.00428841,0.03213660,-0.056847
 54,0.05440940,-0.00024707,-0.00233041,-0.00956311,0.00008845,-0.007282
 40,-0.00020260,0.00001560,-0.00386961,0.00584629,-0.00003321,0.0071207
 0,0.00644067,-0.00005911,-0.00083702,-0.00047722,0.00000369,-0.0001403
 8,0.00001697,-0.00000027,-0.00203326,-0.00429402,0.00005162,-0.3018027
 1,0.33468196,-0.00199937,0.03047532,0.00236213,-0.00005106,0.33754730,
 0.04178541,-0.01158627,0.00011414,0.00173517,0.00633273,-0.00001261,0.
 00281417,0.00357623,-0.00003565,0.00511959,-0.00215747,0.00000389,-0.0
 0701713,-0.00272824,0.00004332,0.00023442,0.00037816,-0.00001011,0.000
 21010,-0.00005137,-0.00000210,-0.01155435,-0.00229231,0.00009370,0.330
 14327,-0.64636163,0.00347465,0.02574982,-0.09837946,0.00080121,-0.3892
 2046,0.75326965,-0.00014805,0.00008497,0.01582624,0.00000401,0.0000135
 6,0.00539108,-0.00000715,-0.00002996,-0.00063619,-0.00002948,0.0000026
 0,-0.00019970,0.00004073,0.00001644,0.00158328,-0.00000211,-0.00000835
 ,-0.00091671,-0.00000176,-0.00000142,-0.00023609,0.00010681,0.00007487
 ,0.00647459,-0.00196894,0.00346268,-0.08119000,-0.00022481,0.00085504,
 0.01737799,0.00223075,-0.00447043,0.03652552\\-0.00021579,-0.00005915,
 0.00009139,0.00009025,0.00003057,-0.00006424,-0.00006311,-0.00008842,0
 .00000223,-0.00004782,0.00006915,0.00004632,0.00004926,-0.00002048,-0.
 00009982,0.00001284,0.00002122,0.00000381,0.00000713,-0.00001298,0.000
 00793,0.00004617,-0.00005165,0.00000731,0.00011335,-0.00002753,0.00001
 801,0.00003449,0.00010017,-0.00001342,-0.00002676,0.00003909,0.0000004
 9\\\@


 YOU KNOW YOU'VE SPOKEN TOO LONG WHEN THE AUDIENCE STOPS LOOKING AT
 THEIR WATCHES AND STARTS SHAKING THEM.
 Job cpu time:       0 days  0 hours 21 minutes 32.1 seconds.
 Elapsed time:       0 days  0 hours  1 minutes  5.3 seconds.
 File lengths (MBytes):  RWF=     39 Int=      0 D2E=      0 Chk=      3 Scr=      1
 Normal termination of Gaussian 16 at Fri Mar 10 14:51:04 2023.
