 Entering Gaussian System, Link 0=/opt/soft/g16/g16
 Initial command:
 /opt/soft/g16/l1.exe "/scratch/gongke2021/PC/Gau-29521.inp" -scrdir="/scratch/gongke2021/PC/"
 Entering Link 1 = /opt/soft/g16/l1.exe PID=     29522.
  
 Copyright (c) 1988,1990,1992,1993,1995,1998,2003,2009,2016,
            Gaussian, Inc.  All Rights Reserved.
  
 This is part of the Gaussian(R) 16 program.  It is based on
 the Gaussian(R) 09 system (copyright 2009, Gaussian, Inc.),
 the Gaussian(R) 03 system (copyright 2003, Gaussian, Inc.),
 the Gaussian(R) 98 system (copyright 1998, Gaussian, Inc.),
 the Gaussian(R) 94 system (copyright 1995, Gaussian, Inc.),
 the Gaussian 92(TM) system (copyright 1992, Gaussian, Inc.),
 the Gaussian 90(TM) system (copyright 1990, Gaussian, Inc.),
 the Gaussian 88(TM) system (copyright 1988, Gaussian, Inc.),
 the Gaussian 86(TM) system (copyright 1986, Carnegie Mellon
 University), and the Gaussian 82(TM) system (copyright 1983,
 Carnegie Mellon University). Gaussian is a federally registered
 trademark of Gaussian, Inc.
  
 This software contains proprietary and confidential information,
 including trade secrets, belonging to Gaussian, Inc.
  
 This software is provided under written license and may be
 used, copied, transmitted, or stored only in accord with that
 written license.
  
 The following legend is applicable only to US Government
 contracts under FAR:
  
                    RESTRICTED RIGHTS LEGEND
  
 Use, reproduction and disclosure by the US Government is
 subject to restrictions as set forth in subparagraphs (a)
 and (c) of the Commercial Computer Software - Restricted
 Rights clause in FAR 52.227-19.
  
 Gaussian, Inc.
 340 Quinnipiac St., Bldg. 40, Wallingford CT 06492
  
  
 ---------------------------------------------------------------
 Warning -- This program may not be used in any manner that
 competes with the business of Gaussian, Inc. or will provide
 assistance to any competitor of Gaussian, Inc.  The licensee
 of this program is prohibited from giving any competitor of
 Gaussian, Inc. access to this program.  By using this program,
 the user acknowledges that Gaussian, Inc. is engaged in the
 business of creating and licensing software in the field of
 computational chemistry and represents and warrants to the
 licensee that it is not a competitor of Gaussian, Inc. and that
 it will not use this program in any manner prohibited above.
 ---------------------------------------------------------------
  

 Cite this work as:
 Gaussian 16, Revision A.03,
 M. J. Frisch, G. W. Trucks, H. B. Schlegel, G. E. Scuseria, 
 M. A. Robb, J. R. Cheeseman, G. Scalmani, V. Barone, 
 G. A. Petersson, H. Nakatsuji, X. Li, M. Caricato, A. V. Marenich, 
 J. Bloino, B. G. Janesko, R. Gomperts, B. Mennucci, H. P. Hratchian, 
 J. V. Ortiz, A. F. Izmaylov, J. L. Sonnenberg, D. Williams-Young, 
 F. Ding, F. Lipparini, F. Egidi, J. Goings, B. Peng, A. Petrone, 
 T. Henderson, D. Ranasinghe, V. G. Zakrzewski, J. Gao, N. Rega, 
 G. Zheng, W. Liang, M. Hada, M. Ehara, K. Toyota, R. Fukuda, 
 J. Hasegawa, M. Ishida, T. Nakajima, Y. Honda, O. Kitao, H. Nakai, 
 T. Vreven, K. Throssell, J. A. Montgomery, Jr., J. E. Peralta, 
 F. Ogliaro, M. J. Bearpark, J. J. Heyd, E. N. Brothers, K. N. Kudin, 
 V. N. Staroverov, T. A. Keith, R. Kobayashi, J. Normand, 
 K. Raghavachari, A. P. Rendell, J. C. Burant, S. S. Iyengar, 
 J. Tomasi, M. Cossi, J. M. Millam, M. Klene, C. Adamo, R. Cammi, 
 J. W. Ochterski, R. L. Martin, K. Morokuma, O. Farkas, 
 J. B. Foresman, and D. J. Fox, Gaussian, Inc., Wallingford CT, 2016.
 
 ******************************************
 Gaussian 16:  ES64L-G16RevA.03 25-Dec-2016
                25-May-2023 
 ******************************************
 %mem=10GB
 %nprocshared=24
 Will use up to   24 processors via shared memory.
 ----------------------------
 # opt freq 6-31+g(d,p) m062x
 ----------------------------
 1/18=20,19=15,26=3,38=1/1,3;
 2/9=110,12=2,17=6,18=5,40=1/2;
 3/5=1,6=6,7=111,11=2,25=1,30=1,71=1,74=-55/1,2,3;
 4//1;
 5/5=2,38=5/2;
 6/7=2,8=2,9=2,10=2,28=1/1;
 7//1,2,3,16;
 1/18=20,19=15,26=3/3(2);
 2/9=110/2;
 99//99;
 2/9=110/2;
 3/5=1,6=6,7=111,11=2,25=1,30=1,71=1,74=-55/1,2,3;
 4/5=5,16=3,69=1/1;
 5/5=2,38=5/2;
 7//1,2,3,16;
 1/18=20,19=15,26=3/3(-5);
 2/9=110/2;
 6/7=2,8=2,9=2,10=2,19=2,28=1/1;
 99/9=1/99;
 -----------
 "1-H-Tz-TS"
 -----------
 Symbolic Z-matrix:
 Charge =  0 Multiplicity = 1
 N                    -0.34297  -0.37698   0.00684 
 N                    -0.52889   0.94241   0.00145 
 C                    -1.84676   1.13973  -0.00549 
 C                    -2.43231  -0.1262   -0.00383 
 N                    -1.46052  -1.04347   0.00325 
 H                    -2.27325   2.13081  -0.01333 
 H                    -3.47243  -0.4103   -0.00919 
 H                     0.72718   1.82409   0.0128 
 C                     1.08218  -1.09498  -0.00252 
 O                     2.00875  -0.25844  -0.04792 
 O                     0.99015  -2.2841    0.03595 
 O                     1.6101    2.12762  -0.06636 
 H                     1.94535   2.60487   0.70174 
 H                     1.75355   0.77718  -0.05279 
 
 Add virtual bond connecting atoms H14        and H8         Dist= 2.77D+00.
 Add virtual bond connecting atoms H14        and O12        Dist= 2.57D+00.

 GradGradGradGradGradGradGradGradGradGradGradGradGradGradGradGradGradGrad
 Berny optimization.
 Initialization pass.
                           ----------------------------
                           !    Initial Parameters    !
                           ! (Angstroms and Degrees)  !
 --------------------------                            --------------------------
 ! Name  Definition              Value          Derivative Info.                !
 --------------------------------------------------------------------------------
 ! R1    R(1,2)                  1.3324         estimate D2E/DX2                !
 ! R2    R(1,5)                  1.3012         estimate D2E/DX2                !
 ! R3    R(1,9)                  1.5958         estimate D2E/DX2                !
 ! R4    R(2,3)                  1.3326         estimate D2E/DX2                !
 ! R5    R(3,4)                  1.3948         estimate D2E/DX2                !
 ! R6    R(3,6)                  1.079          estimate D2E/DX2                !
 ! R7    R(4,5)                  1.3364         estimate D2E/DX2                !
 ! R8    R(4,7)                  1.0782         estimate D2E/DX2                !
 ! R9    R(8,12)                 0.937          estimate D2E/DX2                !
 ! R10   R(8,14)                 1.4676         estimate D2E/DX2                !
 ! R11   R(9,10)                 1.2492         estimate D2E/DX2                !
 ! R12   R(9,11)                 1.1933         estimate D2E/DX2                !
 ! R13   R(10,14)                1.0666         estimate D2E/DX2                !
 ! R14   R(12,13)                0.9644         estimate D2E/DX2                !
 ! R15   R(12,14)                1.3581         estimate D2E/DX2                !
 ! A1    A(2,1,5)              112.7894         estimate D2E/DX2                !
 ! A2    A(2,1,9)              124.7578         estimate D2E/DX2                !
 ! A3    A(5,1,9)              122.4473         estimate D2E/DX2                !
 ! A4    A(1,2,3)              106.5375         estimate D2E/DX2                !
 ! A5    A(2,3,4)              106.3067         estimate D2E/DX2                !
 ! A6    A(2,3,6)              121.8002         estimate D2E/DX2                !
 ! A7    A(4,3,6)              131.8929         estimate D2E/DX2                !
 ! A8    A(3,4,5)              108.5244         estimate D2E/DX2                !
 ! A9    A(3,4,7)              130.099          estimate D2E/DX2                !
 ! A10   A(5,4,7)              121.3765         estimate D2E/DX2                !
 ! A11   A(1,5,4)              105.8421         estimate D2E/DX2                !
 ! A12   A(1,9,10)             111.1818         estimate D2E/DX2                !
 ! A13   A(1,9,11)             112.2898         estimate D2E/DX2                !
 ! A14   A(10,9,11)            136.5283         estimate D2E/DX2                !
 ! A15   A(9,10,14)            118.2239         estimate D2E/DX2                !
 ! A16   A(8,12,13)            114.8707         estimate D2E/DX2                !
 ! A17   A(13,12,14)           116.576          estimate D2E/DX2                !
 ! A18   A(8,14,10)            149.29           estimate D2E/DX2                !
 ! A19   L(10,14,12,2,-1)      187.785          estimate D2E/DX2                !
 ! A20   L(10,14,12,2,-2)      180.1099         estimate D2E/DX2                !
 ! D1    D(5,1,2,3)              0.0267         estimate D2E/DX2                !
 ! D2    D(9,1,2,3)            179.1876         estimate D2E/DX2                !
 ! D3    D(2,1,5,4)             -0.0477         estimate D2E/DX2                !
 ! D4    D(9,1,5,4)           -179.2307         estimate D2E/DX2                !
 ! D5    D(2,1,9,10)            -1.588          estimate D2E/DX2                !
 ! D6    D(2,1,9,11)           178.3808         estimate D2E/DX2                !
 ! D7    D(5,1,9,10)           177.4952         estimate D2E/DX2                !
 ! D8    D(5,1,9,11)            -2.536          estimate D2E/DX2                !
 ! D9    D(1,2,3,4)              0.0051         estimate D2E/DX2                !
 ! D10   D(1,2,3,6)           -179.8482         estimate D2E/DX2                !
 ! D11   D(2,3,4,5)             -0.0338         estimate D2E/DX2                !
 ! D12   D(2,3,4,7)           -179.9011         estimate D2E/DX2                !
 ! D13   D(6,3,4,5)            179.7987         estimate D2E/DX2                !
 ! D14   D(6,3,4,7)             -0.0685         estimate D2E/DX2                !
 ! D15   D(3,4,5,1)              0.0489         estimate D2E/DX2                !
 ! D16   D(7,4,5,1)            179.9299         estimate D2E/DX2                !
 ! D17   D(1,9,10,14)            1.2679         estimate D2E/DX2                !
 ! D18   D(11,9,10,14)        -178.6902         estimate D2E/DX2                !
 ! D19   D(9,10,12,13)         115.7626         estimate D2E/DX2                !
 ! D20   D(9,10,14,8)            3.2397         estimate D2E/DX2                !
 ! D21   D(12,10,14,8)        -176.8478         estimate D2E/DX2                !
 ! D22   D(8,12,13,14)          87.5086         estimate D2E/DX2                !
 --------------------------------------------------------------------------------
 Trust Radius=3.00D-01 FncErr=1.00D-07 GrdErr=1.00D-06 EigMax=2.50D+02 EigMin=1.00D-04
 Number of steps in this run=     67 maximum allowed number of steps=    100.
 GradGradGradGradGradGradGradGradGradGradGradGradGradGradGradGradGradGrad

                          Input orientation:                          
 ---------------------------------------------------------------------
 Center     Atomic      Atomic             Coordinates (Angstroms)
 Number     Number       Type             X           Y           Z
 ---------------------------------------------------------------------
      1          7           0       -0.342970   -0.376980    0.006842
      2          7           0       -0.528893    0.942406    0.001450
      3          6           0       -1.846761    1.139727   -0.005489
      4          6           0       -2.432311   -0.126195   -0.003827
      5          7           0       -1.460518   -1.043475    0.003247
      6          1           0       -2.273253    2.130811   -0.013332
      7          1           0       -3.472425   -0.410295   -0.009186
      8          1           0        0.727177    1.824088    0.012796
      9          6           0        1.082175   -1.094980   -0.002519
     10          8           0        2.008746   -0.258438   -0.047918
     11          8           0        0.990151   -2.284103    0.035953
     12          8           0        1.610100    2.127617   -0.066359
     13          1           0        1.945345    2.604865    0.701740
     14          1           0        1.753547    0.777182   -0.052792
 ---------------------------------------------------------------------
                    Distance matrix (angstroms):
                    1          2          3          4          5
     1  N    0.000000
     2  N    1.332432   0.000000
     3  C    2.135870   1.332576   0.000000
     4  C    2.104365   2.182873   1.394787   0.000000
     5  N    1.301208   2.193548   2.217122   1.336351   0.000000
     6  H    3.164714   2.110762   1.078983   2.262624   3.276722
     7  H    3.129673   3.239490   2.246189   1.078229   2.109228
     8  H    2.447438   1.534667   2.663427   3.712983   3.606802
     9  C    1.595823   2.597402   3.684100   3.645567   2.543221
    10  O    2.355338   2.807860   4.101414   4.443244   3.557344
    11  O    2.327053   3.566377   4.446617   4.046158   2.746999
    12  O    3.176924   2.446347   3.595764   4.628679   4.414676
    13  H    3.822390   3.062030   4.126363   5.207724   5.039661
    14  H    2.393957   2.289055   3.618825   4.282510   3.694340
                    6          7          8          9         10
     6  H    0.000000
     7  H    2.809849   0.000000
     8  H    3.016180   4.757059   0.000000
     9  C    4.654540   4.605781   2.940615   0.000000
    10  O    4.903593   5.483411   2.446021   1.249159   0.000000
    11  O    5.490328   4.840225   4.116664   1.193299   2.268896
    12  O    3.883716   5.681226   0.936989   3.266177   2.419198
    13  H    4.304953   6.240900   1.602557   3.863922   2.960492
    14  H    4.248410   5.359364   1.467565   1.989537   1.066611
                   11         12         13         14
    11  O    0.000000
    12  O    4.456240   0.000000
    13  H    5.025702   0.964433   0.000000
    14  H    3.156282   1.358100   1.986588   0.000000
 Stoichiometry    C3H5N3O3
 Framework group  C1[X(C3H5N3O3)]
 Deg. of freedom    36
 Full point group                 C1      NOp   1
 Largest Abelian subgroup         C1      NOp   1
 Largest concise Abelian subgroup C1      NOp   1
                         Standard orientation:                         
 ---------------------------------------------------------------------
 Center     Atomic      Atomic             Coordinates (Angstroms)
 Number     Number       Type             X           Y           Z
 ---------------------------------------------------------------------
      1          7           0       -0.340825   -0.376179    0.006761
      2          7           0       -0.536579    0.941783    0.000910
      3          6           0       -1.855883    1.129273   -0.005712
      4          6           0       -2.431981   -0.140978   -0.003381
      5          7           0       -1.453375   -1.050986    0.003760
      6          1           0       -2.289753    2.117147   -0.013815
      7          1           0       -3.469950   -0.432825   -0.008319
      8          1           0        0.712888    1.832807    0.011536
      9          6           0        1.089629   -1.083540   -0.002746
     10          8           0        2.009925   -0.240133   -0.048748
     11          8           0        1.006482   -2.273301    0.036218
     12          8           0        1.593500    2.142877   -0.068001
     13          1           0        1.925406    2.622912    0.699812
     14          1           0        1.747013    0.793554   -0.053950
 ---------------------------------------------------------------------
 Rotational constants (GHZ):           2.1763864           1.6365446           0.9362303
 Standard basis: 6-31+G(d,p) (6D, 7F)
 There are   196 symmetry adapted cartesian basis functions of A   symmetry.
 There are   196 symmetry adapted basis functions of A   symmetry.
   196 basis functions,   323 primitive gaussians,   196 cartesian basis functions
    34 alpha electrons       34 beta electrons
       nuclear repulsion energy       462.9357761620 Hartrees.
 NAtoms=   14 NActive=   14 NUniq=   14 SFac= 1.00D+00 NAtFMM=   60 NAOKFM=F Big=F
 Integral buffers will be    131072 words long.
 Raffenetti 2 integral format.
 Two-electron integral symmetry is turned on.
 One-electron integrals computed using PRISM.
 NBasis=   196 RedAO= T EigKep=  2.30D-05  NBF=   196
 NBsUse=   196 1.00D-06 EigRej= -1.00D+00 NBFU=   196
 ExpMin= 4.38D-02 ExpMax= 5.48D+03 ExpMxC= 8.25D+02 IAcc=3 IRadAn=         5 AccDes= 0.00D+00
 Harris functional with IExCor= 1009 and IRadAn=       5 diagonalized for initial guess.
 HarFok:  IExCor= 1009 AccDes= 0.00D+00 IRadAn=         5 IDoV= 1 UseB2=F ITyADJ=14
 ICtDFT=  3500011 ScaDFX=  1.000000  1.000000  1.000000  1.000000
 FoFCou: FMM=F IPFlag=           0 FMFlag=      100000 FMFlg1=           0
         NFxFlg=           0 DoJE=T BraDBF=F KetDBF=T FulRan=T
         wScrn=  0.000000 ICntrl=       500 IOpCl=  0 I1Cent=   200000004 NGrid=           0
         NMat0=    1 NMatS0=      1 NMatT0=    0 NMatD0=    1 NMtDS0=    0 NMtDT0=    0
 Petite list used in FoFCou.
 Requested convergence on RMS density matrix=1.00D-08 within 128 cycles.
 Requested convergence on MAX density matrix=1.00D-06.
 Requested convergence on             energy=1.00D-06.
 No special actions if energy rises.
 SCF Done:  E(RM062X) =  -507.040156431     A.U. after   14 cycles
            NFock= 14  Conv=0.75D-08     -V/T= 2.0076

 **********************************************************************

            Population analysis using the SCF density.

 **********************************************************************

 Orbital symmetries:
       Occupied  (A) (A) (A) (A) (A) (A) (A) (A) (A) (A) (A) (A)
                 (A) (A) (A) (A) (A) (A) (A) (A) (A) (A) (A) (A)
                 (A) (A) (A) (A) (A) (A) (A) (A) (A) (A)
       Virtual   (A) (A) (A) (A) (A) (A) (A) (A) (A) (A) (A) (A)
                 (A) (A) (A) (A) (A) (A) (A) (A) (A) (A) (A) (A)
                 (A) (A) (A) (A) (A) (A) (A) (A) (A) (A) (A) (A)
                 (A) (A) (A) (A) (A) (A) (A) (A) (A) (A) (A) (A)
                 (A) (A) (A) (A) (A) (A) (A) (A) (A) (A) (A) (A)
                 (A) (A) (A) (A) (A) (A) (A) (A) (A) (A) (A) (A)
                 (A) (A) (A) (A) (A) (A) (A) (A) (A) (A) (A) (A)
                 (A) (A) (A) (A) (A) (A) (A) (A) (A) (A) (A) (A)
                 (A) (A) (A) (A) (A) (A) (A) (A) (A) (A) (A) (A)
                 (A) (A) (A) (A) (A) (A) (A) (A) (A) (A) (A) (A)
                 (A) (A) (A) (A) (A) (A) (A) (A) (A) (A) (A) (A)
                 (A) (A) (A) (A) (A) (A) (A) (A) (A) (A) (A) (A)
                 (A) (A) (A) (A) (A) (A) (A) (A) (A) (A) (A) (A)
                 (A) (A) (A) (A) (A) (A)
 The electronic state is 1-A.
 Alpha  occ. eigenvalues --  -19.70660 -19.68226 -19.66112 -14.90162 -14.83882
 Alpha  occ. eigenvalues --  -14.82505 -10.75092 -10.61527 -10.60258  -1.28685
 Alpha  occ. eigenvalues --   -1.24704  -1.20212  -1.17671  -1.02721  -0.95102
 Alpha  occ. eigenvalues --   -0.76706  -0.74675  -0.73871  -0.70463  -0.64465
 Alpha  occ. eigenvalues --   -0.60442  -0.58924  -0.56679  -0.55039  -0.54686
 Alpha  occ. eigenvalues --   -0.52238  -0.49518  -0.44088  -0.42803  -0.41270
 Alpha  occ. eigenvalues --   -0.39376  -0.38710  -0.38180  -0.35571
 Alpha virt. eigenvalues --   -0.01324   0.00162   0.02576   0.02807   0.04295
 Alpha virt. eigenvalues --    0.04885   0.05438   0.05995   0.07126   0.07660
 Alpha virt. eigenvalues --    0.09036   0.09934   0.10208   0.10917   0.11287
 Alpha virt. eigenvalues --    0.14095   0.15854   0.16963   0.17302   0.18632
 Alpha virt. eigenvalues --    0.19724   0.20130   0.20942   0.21331   0.22956
 Alpha virt. eigenvalues --    0.23169   0.23750   0.24442   0.25122   0.26312
 Alpha virt. eigenvalues --    0.27051   0.27958   0.28551   0.29381   0.30031
 Alpha virt. eigenvalues --    0.30916   0.31403   0.32423   0.32885   0.34996
 Alpha virt. eigenvalues --    0.35398   0.37271   0.38799   0.39608   0.40261
 Alpha virt. eigenvalues --    0.43356   0.46146   0.46398   0.49001   0.49730
 Alpha virt. eigenvalues --    0.54628   0.66830   0.70285   0.72258   0.74198
 Alpha virt. eigenvalues --    0.77580   0.80352   0.86640   0.88281   0.89590
 Alpha virt. eigenvalues --    0.91441   0.93258   0.94513   0.95801   0.96582
 Alpha virt. eigenvalues --    0.98900   1.00662   1.03294   1.04890   1.07677
 Alpha virt. eigenvalues --    1.09412   1.14705   1.15872   1.16220   1.18640
 Alpha virt. eigenvalues --    1.21854   1.24267   1.25010   1.27147   1.29460
 Alpha virt. eigenvalues --    1.31910   1.32184   1.35438   1.36030   1.37976
 Alpha virt. eigenvalues --    1.38855   1.39850   1.40480   1.42082   1.43047
 Alpha virt. eigenvalues --    1.46083   1.47025   1.47801   1.53583   1.56905
 Alpha virt. eigenvalues --    1.59010   1.59466   1.62692   1.65430   1.68697
 Alpha virt. eigenvalues --    1.70191   1.72423   1.77855   1.82177   1.87002
 Alpha virt. eigenvalues --    1.87641   1.91637   1.95946   1.98863   1.99510
 Alpha virt. eigenvalues --    2.03094   2.07325   2.08790   2.13493   2.20664
 Alpha virt. eigenvalues --    2.22444   2.24538   2.26661   2.28026   2.29911
 Alpha virt. eigenvalues --    2.34941   2.36330   2.41690   2.42834   2.44789
 Alpha virt. eigenvalues --    2.50352   2.51583   2.54752   2.56547   2.60845
 Alpha virt. eigenvalues --    2.65646   2.70056   2.70637   2.72503   2.80229
 Alpha virt. eigenvalues --    2.80794   2.83609   2.85229   2.88253   2.95439
 Alpha virt. eigenvalues --    2.97895   3.00951   3.07960   3.11918   3.18797
 Alpha virt. eigenvalues --    3.21034   3.22084   3.28618   3.33311   3.44417
 Alpha virt. eigenvalues --    3.66747   3.78922   3.81874   4.04766   4.22775
 Alpha virt. eigenvalues --    4.28835   4.36035   4.40220   4.53810   4.57025
 Alpha virt. eigenvalues --    4.68754   4.97141
          Condensed to atoms (all electrons):
               1          2          3          4          5          6
     1  N    8.041931  -0.403762   0.077162  -0.093333  -0.266939   0.013300
     2  N   -0.403762   7.739291   0.151026   0.135745  -0.371867  -0.049970
     3  C    0.077162   0.151026   5.437425   0.040872   0.093651   0.384267
     4  C   -0.093333   0.135745   0.040872   5.532402   0.151664  -0.004020
     5  N   -0.266939  -0.371867   0.093651   0.151664   7.512748  -0.010395
     6  H    0.013300  -0.049970   0.384267  -0.004020  -0.010395   0.475081
     7  H    0.006215  -0.002435  -0.018949   0.394976  -0.057250   0.000605
     8  H    0.023512   0.028042   0.002578  -0.003006   0.007953  -0.000205
     9  C   -0.006361   0.054597  -0.007519  -0.005398   0.009561   0.000181
    10  O   -0.007113  -0.095323  -0.010976   0.003555   0.006418   0.000114
    11  O   -0.009881  -0.001612   0.000557  -0.005021  -0.044287   0.000019
    12  O   -0.091781   0.006708  -0.014946   0.005151   0.008443  -0.000427
    13  H    0.001257   0.001284   0.001230   0.000203  -0.000718  -0.000009
    14  H    0.024957  -0.004548   0.012632  -0.008799   0.016574   0.000001
               7          8          9         10         11         12
     1  N    0.006215   0.023512  -0.006361  -0.007113  -0.009881  -0.091781
     2  N   -0.002435   0.028042   0.054597  -0.095323  -0.001612   0.006708
     3  C   -0.018949   0.002578  -0.007519  -0.010976   0.000557  -0.014946
     4  C    0.394976  -0.003006  -0.005398   0.003555  -0.005021   0.005151
     5  N   -0.057250   0.007953   0.009561   0.006418  -0.044287   0.008443
     6  H    0.000605  -0.000205   0.000181   0.000114   0.000019  -0.000427
     7  H    0.489012  -0.000017   0.000396   0.000028  -0.000124   0.000026
     8  H   -0.000017   0.273877  -0.000473   0.001067   0.000696   0.206968
     9  C    0.000396  -0.000473   4.462952   0.252336   0.498564  -0.002791
    10  O    0.000028   0.001067   0.252336   8.366457  -0.093123  -0.076676
    11  O   -0.000124   0.000696   0.498564  -0.093123   8.043665  -0.005812
    12  O    0.000026   0.206968  -0.002791  -0.076676  -0.005812   8.389181
    13  H   -0.000000  -0.017841  -0.000285   0.001642   0.000071   0.301816
    14  H   -0.000002  -0.001288  -0.007107   0.134191   0.005787   0.070999
              13         14
     1  N    0.001257   0.024957
     2  N    0.001284  -0.004548
     3  C    0.001230   0.012632
     4  C    0.000203  -0.008799
     5  N   -0.000718   0.016574
     6  H   -0.000009   0.000001
     7  H   -0.000000  -0.000002
     8  H   -0.017841  -0.001288
     9  C   -0.000285  -0.007107
    10  O    0.001642   0.134191
    11  O    0.000071   0.005787
    12  O    0.301816   0.070999
    13  H    0.303804  -0.007372
    14  H   -0.007372   0.272501
 Mulliken charges:
               1
     1  N   -0.309165
     2  N   -0.187176
     3  C   -0.149008
     4  C   -0.144992
     5  N   -0.055555
     6  H    0.191456
     7  H    0.187518
     8  H    0.478138
     9  C    0.751346
    10  O   -0.482598
    11  O   -0.389500
    12  O   -0.796858
    13  H    0.414919
    14  H    0.491474
 Sum of Mulliken charges =  -0.00000
 Mulliken charges with hydrogens summed into heavy atoms:
               1
     1  N   -0.309165
     2  N   -0.187176
     3  C    0.042448
     4  C    0.042527
     5  N   -0.055555
     9  C    0.751346
    10  O    0.008876
    11  O   -0.389500
    12  O    0.096199
 Electronic spatial extent (au):  <R**2>=           1152.3322
 Charge=             -0.0000 electrons
 Dipole moment (field-independent basis, Debye):
    X=             -2.0905    Y=              5.2996    Z=              1.4707  Tot=              5.8837
 Quadrupole moment (field-independent basis, Debye-Ang):
   XX=            -46.8547   YY=            -55.8547   ZZ=            -51.5809
   XY=              1.5492   XZ=              3.3021   YZ=              4.6176
 Traceless Quadrupole moment (field-independent basis, Debye-Ang):
   XX=              4.5754   YY=             -4.4246   ZZ=             -0.1508
   XY=              1.5492   XZ=              3.3021   YZ=              4.6176
 Octapole moment (field-independent basis, Debye-Ang**2):
  XXX=            -16.8144  YYY=             42.8695  ZZZ=              1.3448  XYY=              3.7909
  XXY=             17.0058  XXZ=              6.4209  XZZ=             10.5348  YZZ=              1.3075
  YYZ=             11.9401  XYZ=              9.0364
 Hexadecapole moment (field-independent basis, Debye-Ang**3):
 XXXX=           -723.9464 YYYY=           -590.1676 ZZZZ=            -50.8424 XXXY=             26.1168
 XXXZ=             14.9199 YYYX=             28.2362 YYYZ=             36.0797 ZZZX=              3.0455
 ZZZY=              4.3067 XXYY=           -209.1503 XXZZ=           -146.8535 YYZZ=           -100.9094
 XXYZ=             17.8062 YYXZ=             24.1684 ZZXY=              7.2475
 N-N= 4.629357761620D+02 E-N=-2.111894975545D+03  KE= 5.032038050657D+02
 Calling FoFJK, ICntrl=      2127 FMM=F ISym2X=0 I1Cent= 0 IOpClX= 0 NMat=1 NMatS=1 NMatT=0.
 ***** Axes restored to original set *****
 -------------------------------------------------------------------
 Center     Atomic                   Forces (Hartrees/Bohr)
 Number     Number              X              Y              Z
 -------------------------------------------------------------------
      1        7           0.005682233    0.007713451   -0.000111285
      2        7          -0.003950361   -0.001777802    0.000049973
      3        6           0.009807761   -0.005467676    0.000075654
      4        6           0.001258521   -0.007681719    0.000055452
      5        7          -0.009764720   -0.011701970   -0.000136594
      6        1           0.000434259    0.000011951    0.000010480
      7        1           0.000119185   -0.001166388    0.000001866
      8        1          -0.071227412    0.003025374    0.010447315
      9        6          -0.067472170   -0.028072758    0.002277386
     10        8           0.023557540    0.015643525   -0.000817380
     11        8           0.015014397    0.012761277   -0.000844887
     12        8           0.075714379    0.024731777   -0.008922592
     13        1          -0.004184158   -0.002269075   -0.000808217
     14        1           0.025010546   -0.005749969   -0.001277171
 -------------------------------------------------------------------
 Cartesian Forces:  Max     0.075714379 RMS     0.021472762

 GradGradGradGradGradGradGradGradGradGradGradGradGradGradGradGradGradGrad
 Berny optimization.
 FormGI is forming the generalized inverse of G from B-inverse, IUseBI=4.
 Internal  Forces:  Max     0.110285752 RMS     0.023817684
 Search for a local minimum.
 Step number   1 out of a maximum of   67
 All quantities printed in internal units (Hartrees-Bohrs-Radians)
 Mixed Optimization -- RFO/linear search
 Second derivative matrix not updated -- first step.
 ITU=  0
     Eigenvalues ---    0.00230   0.00230   0.00230   0.01308   0.01867
     Eigenvalues ---    0.02235   0.02291   0.02354   0.02469   0.03642
     Eigenvalues ---    0.04067   0.07778   0.10268   0.13724   0.15986
     Eigenvalues ---    0.16000   0.16000   0.16000   0.22628   0.24095
     Eigenvalues ---    0.24747   0.24998   0.25000   0.25000   0.36117
     Eigenvalues ---    0.36209   0.37661   0.43158   0.52519   0.54531
     Eigenvalues ---    0.55150   0.56108   0.58445   0.64327   0.83548
     Eigenvalues ---    1.08264
 RFO step:  Lambda=-9.76615793D-02 EMin= 2.30000000D-03
 Linear search not attempted -- first point.
 Maximum step size (   0.300) exceeded in Quadratic search.
    -- Step size scaled by   0.515
 Iteration  1 RMS(Cart)=  0.21452220 RMS(Int)=  0.01933275
 Iteration  2 RMS(Cart)=  0.17272464 RMS(Int)=  0.00712007
 Iteration  3 RMS(Cart)=  0.00888375 RMS(Int)=  0.00012932
 Iteration  4 RMS(Cart)=  0.00001326 RMS(Int)=  0.00012919
 Iteration  5 RMS(Cart)=  0.00000000 RMS(Int)=  0.00012919
 Variable       Old X    -DE/DX   Delta X   Delta X   Delta X     New X
                                 (Linear)    (Quad)   (Total)
    R1        2.51793  -0.00918   0.00000  -0.00687  -0.00687   2.51106
    R2        2.45893   0.01074   0.00000   0.00747   0.00747   2.46640
    R3        3.01567  -0.01224   0.00000  -0.01861  -0.01861   2.99705
    R4        2.51820  -0.00445   0.00000  -0.00362  -0.00363   2.51458
    R5        2.63576   0.00480   0.00000   0.00419   0.00419   2.63995
    R6        2.03898  -0.00016   0.00000  -0.00018  -0.00018   2.03880
    R7        2.52534  -0.01063   0.00000  -0.00789  -0.00789   2.51745
    R8        2.03756   0.00019   0.00000   0.00022   0.00022   2.03777
    R9        1.77065   0.06070   0.00000   0.05153   0.05149   1.82215
   R10        2.77330   0.02650   0.00000   0.05944   0.05964   2.83294
   R11        2.36057   0.06000   0.00000   0.03312   0.03312   2.39368
   R12        2.25501  -0.01390   0.00000  -0.00607  -0.00607   2.24894
   R13        2.01560   0.01311   0.00000   0.01424   0.01424   2.02984
   R14        1.82251  -0.00322   0.00000  -0.00258  -0.00258   1.81993
   R15        2.56644   0.00103   0.00000   0.00569   0.00549   2.57193
    A1        1.96855   0.00698   0.00000   0.01071   0.01071   1.97926
    A2        2.17743   0.01895   0.00000   0.02789   0.02789   2.20532
    A3        2.13711  -0.02592   0.00000  -0.03860  -0.03860   2.09851
    A4        1.85943  -0.00723   0.00000  -0.01164  -0.01165   1.84778
    A5        1.85540   0.00664   0.00000   0.00974   0.00973   1.86514
    A6        2.12581  -0.00373   0.00000  -0.00569  -0.00569   2.12013
    A7        2.30196  -0.00291   0.00000  -0.00405  -0.00405   2.29792
    A8        1.89411  -0.00225   0.00000  -0.00375  -0.00375   1.89036
    A9        2.27066   0.00231   0.00000   0.00423   0.00423   2.27489
   A10        2.11842  -0.00005   0.00000  -0.00048  -0.00048   2.11793
   A11        1.84729  -0.00414   0.00000  -0.00505  -0.00505   1.84225
   A12        1.94049   0.07319   0.00000   0.10844   0.10844   2.04893
   A13        1.95983  -0.02082   0.00000  -0.03085  -0.03085   1.92897
   A14        2.38287  -0.05237   0.00000  -0.07759  -0.07760   2.30527
   A15        2.06340   0.11029   0.00000   0.22047   0.22047   2.28386
   A16        2.00487  -0.00541   0.00000  -0.01782  -0.01759   1.98728
   A17        2.03463   0.00071   0.00000  -0.00374  -0.00361   2.03102
   A18        2.60560   0.01572   0.00000   0.07072   0.07091   2.67651
   A19        3.27747   0.03535   0.00000   0.08060   0.08041   3.35787
   A20        3.14351   0.00071   0.00000   0.00242   0.00315   3.14666
    D1        0.00047   0.00004   0.00000   0.00007   0.00006   0.00053
    D2        3.12741  -0.00018   0.00000  -0.00015  -0.00014   3.12728
    D3       -0.00083  -0.00001   0.00000  -0.00003  -0.00002  -0.00085
    D4       -3.12817  -0.00022   0.00000  -0.00044  -0.00044  -3.12861
    D5       -0.02772  -0.00058   0.00000  -0.00250  -0.00257  -0.03029
    D6        3.11333   0.00055   0.00000   0.00253   0.00257   3.11590
    D7        3.09788  -0.00050   0.00000  -0.00227  -0.00234   3.09554
    D8       -0.04426   0.00063   0.00000   0.00276   0.00280  -0.04146
    D9        0.00009  -0.00005   0.00000  -0.00008  -0.00007   0.00002
   D10       -3.13894  -0.00002   0.00000  -0.00005  -0.00005  -3.13899
   D11       -0.00059   0.00004   0.00000   0.00006   0.00006  -0.00053
   D12       -3.13987   0.00002   0.00000   0.00003   0.00003  -3.13984
   D13        3.13808   0.00001   0.00000   0.00003   0.00003   3.13811
   D14       -0.00120  -0.00001   0.00000   0.00000   0.00000  -0.00119
   D15        0.00085  -0.00003   0.00000  -0.00003  -0.00003   0.00082
   D16        3.14037  -0.00000   0.00000   0.00000   0.00000   3.14037
   D17        0.02213   0.00221   0.00000   0.00890   0.00868   0.03081
   D18       -3.11873   0.00066   0.00000   0.00208   0.00215  -3.11659
   D19        2.02044   0.00015   0.00000   0.00408   0.00400   2.02444
   D20        0.05654   0.00173   0.00000   0.00548   0.00540   0.06195
   D21       -3.08658  -0.00008   0.00000   0.00101   0.00114  -3.08543
   D22        1.52731  -0.00266   0.00000   0.01443   0.01414   1.54145
         Item               Value     Threshold  Converged?
 Maximum Force            0.110286     0.000450     NO 
 RMS     Force            0.023818     0.000300     NO 
 Maximum Displacement     1.416104     0.001800     NO 
 RMS     Displacement     0.381668     0.001200     NO 
 Predicted change in Energy=-4.175875D-02
 GradGradGradGradGradGradGradGradGradGradGradGradGradGradGradGradGradGrad

                          Input orientation:                          
 ---------------------------------------------------------------------
 Center     Atomic      Atomic             Coordinates (Angstroms)
 Number     Number       Type             X           Y           Z
 ---------------------------------------------------------------------
      1          7           0       -0.531441   -0.361160    0.007870
      2          7           0       -0.844378    0.930232   -0.000947
      3          6           0       -2.173811    0.982333   -0.024262
      4          6           0       -2.631118   -0.337692   -0.028775
      5          7           0       -1.573258   -1.147155   -0.008879
      6          1           0       -2.700492    1.923825   -0.038290
      7          1           0       -3.636096   -0.728233   -0.046717
      8          1           0        1.276187    2.263245    0.015471
      9          6           0        0.931305   -0.974027    0.016681
     10          8           0        1.903385   -0.162678   -0.018806
     11          8           0        0.885412   -2.162698    0.052255
     12          8           0        2.237473    2.235011   -0.054434
     13          1           0        2.694715    2.579987    0.719789
     14          1           0        1.922225    0.911239   -0.030351
 ---------------------------------------------------------------------
                    Distance matrix (angstroms):
                    1          2          3          4          5
     1  N    0.000000
     2  N    1.328797   0.000000
     3  C    2.122118   1.330658   0.000000
     4  C    2.100128   2.191084   1.397003   0.000000
     5  N    1.305163   2.201561   2.212605   1.332176   0.000000
     6  H    3.150884   2.105655   1.078887   2.262602   3.271459
     7  H    3.126756   3.247505   2.250515   1.078343   2.105285
     8  H    3.186704   2.504793   3.680326   4.694024   4.444183
     9  C    1.585973   2.603760   3.670254   3.619095   2.510670
    10  O    2.443048   2.957190   4.234927   4.537890   3.613356
    11  O    2.292375   3.544181   4.388157   3.962725   2.660850
    12  O    3.796165   3.347105   4.585797   5.506599   5.095370
    13  H    4.423263   3.970683   5.177707   6.118635   5.712980
    14  H    2.764225   2.766824   4.096657   4.721521   4.056581
                    6          7          8          9         10
     6  H    0.000000
     7  H    2.812266   0.000000
     8  H    3.991500   5.751811   0.000000
     9  C    4.646560   4.574449   3.255592   0.000000
    10  O    5.054657   5.568346   2.505924   1.266683   0.000000
    11  O    5.437516   4.744631   4.443314   1.190088   2.245306
    12  O    4.947787   6.578730   0.964238   3.465409   2.421115
    13  H    5.487576   7.184081   1.615119   4.029267   2.948548
    14  H    4.732326   5.795090   1.499128   2.130344   1.074145
                   11         12         13         14
    11  O    0.000000
    12  O    4.602097   0.000000
    13  H    5.119790   0.963068   0.000000
    14  H    3.245134   1.361004   1.985994   0.000000
 Stoichiometry    C3H5N3O3
 Framework group  C1[X(C3H5N3O3)]
 Deg. of freedom    36
 Full point group                 C1      NOp   1
 Largest Abelian subgroup         C1      NOp   1
 Largest concise Abelian subgroup C1      NOp   1
                         Standard orientation:                         
 ---------------------------------------------------------------------
 Center     Atomic      Atomic             Coordinates (Angstroms)
 Number     Number       Type             X           Y           Z
 ---------------------------------------------------------------------
      1          7           0       -0.553552   -0.218783    0.008553
      2          7           0       -0.494788    1.108714    0.008223
      3          6           0       -1.757359    1.528833    0.000125
      4          6           0       -2.563996    0.388247   -0.004284
      5          7           0       -1.773070   -0.683716    0.000558
      6          1           0       -2.001317    2.579767   -0.004343
      7          1           0       -3.638085    0.292900   -0.012372
      8          1           0        1.913041    1.798887    0.005802
      9          6           0        0.680850   -1.214505   -0.001507
     10          8           0        1.839935   -0.705458   -0.044859
     11          8           0        0.306302   -2.343677    0.030024
     12          8           0        2.827759    1.504766   -0.075064
     13          1           0        3.370495    1.703596    0.695262
     14          1           0        2.156798    0.320859   -0.052498
 ---------------------------------------------------------------------
 Rotational constants (GHZ):           2.3256727           1.2804966           0.8274505
 Standard basis: 6-31+G(d,p) (6D, 7F)
 There are   196 symmetry adapted cartesian basis functions of A   symmetry.
 There are   196 symmetry adapted basis functions of A   symmetry.
   196 basis functions,   323 primitive gaussians,   196 cartesian basis functions
    34 alpha electrons       34 beta electrons
       nuclear repulsion energy       449.2744372439 Hartrees.
 NAtoms=   14 NActive=   14 NUniq=   14 SFac= 1.00D+00 NAtFMM=   60 NAOKFM=F Big=F
 Integral buffers will be    131072 words long.
 Raffenetti 2 integral format.
 Two-electron integral symmetry is turned on.
 One-electron integrals computed using PRISM.
 NBasis=   196 RedAO= T EigKep=  2.38D-05  NBF=   196
 NBsUse=   196 1.00D-06 EigRej= -1.00D+00 NBFU=   196
 Initial guess from the checkpoint file:  "/scratch/gongke2021/PC/Gau-29522.chk"
 B after Tr=    -0.000000    0.000000    0.000000
         Rot=    0.989417   -0.000863   -0.000879    0.145097 Ang= -16.69 deg.
 ExpMin= 4.38D-02 ExpMax= 5.48D+03 ExpMxC= 8.25D+02 IAcc=2 IRadAn=         4 AccDes= 0.00D+00
 Harris functional with IExCor= 1009 and IRadAn=       4 diagonalized for initial guess.
 HarFok:  IExCor= 1009 AccDes= 0.00D+00 IRadAn=         4 IDoV= 1 UseB2=F ITyADJ=14
 ICtDFT=  3500011 ScaDFX=  1.000000  1.000000  1.000000  1.000000
 FoFCou: FMM=F IPFlag=           0 FMFlag=      100000 FMFlg1=           0
         NFxFlg=           0 DoJE=T BraDBF=F KetDBF=T FulRan=T
         wScrn=  0.000000 ICntrl=       500 IOpCl=  0 I1Cent=   200000004 NGrid=           0
         NMat0=    1 NMatS0=      1 NMatT0=    0 NMatD0=    1 NMtDS0=    0 NMtDT0=    0
 Petite list used in FoFCou.
 Requested convergence on RMS density matrix=1.00D-08 within 128 cycles.
 Requested convergence on MAX density matrix=1.00D-06.
 Requested convergence on             energy=1.00D-06.
 No special actions if energy rises.
 SCF Done:  E(RM062X) =  -507.036502524     A.U. after   14 cycles
            NFock= 14  Conv=0.79D-08     -V/T= 2.0083
 Calling FoFJK, ICntrl=      2127 FMM=F ISym2X=0 I1Cent= 0 IOpClX= 0 NMat=1 NMatS=1 NMatT=0.
 ***** Axes restored to original set *****
 -------------------------------------------------------------------
 Center     Atomic                   Forces (Hartrees/Bohr)
 Number     Number              X              Y              Z
 -------------------------------------------------------------------
      1        7           0.017816896    0.013938009   -0.000515150
      2        7           0.023350891    0.015095149    0.000077720
      3        6           0.009862364   -0.001129063    0.000256842
      4        6           0.002638680   -0.006558487    0.000051167
      5        7          -0.009320583   -0.015125137   -0.000143132
      6        1           0.000121709    0.000007176    0.000112639
      7        1           0.000170305   -0.001093157    0.000020613
      8        1          -0.013688767    0.023279999    0.007063891
      9        6          -0.060518097   -0.013239694    0.000401369
     10        8           0.011881176    0.019145166    0.000017524
     11        8           0.016738380    0.001322793    0.000032951
     12        8          -0.001267194   -0.005749122   -0.010222729
     13        1          -0.006613173    0.001192534    0.003791967
     14        1           0.008827414   -0.031086165   -0.000945672
 -------------------------------------------------------------------
 Cartesian Forces:  Max     0.060518097 RMS     0.014143170

 GradGradGradGradGradGradGradGradGradGradGradGradGradGradGradGradGradGrad
 Berny optimization.
 Using GEDIIS/GDIIS optimizer.
 FormGI is forming the generalized inverse of G from B-inverse, IUseBI=4.
 Internal  Forces:  Max     0.057836152 RMS     0.015505161
 Search for a local minimum.
 Step number   2 out of a maximum of   67
 All quantities printed in internal units (Hartrees-Bohrs-Radians)
 Mixed Optimization -- RFO/linear search
 Update second derivatives using D2CorX and points    2    1
 DE=  3.65D-03 DEPred=-4.18D-02 R=-8.75D-02
 Trust test=-8.75D-02 RLast= 3.01D-01 DXMaxT set to 1.50D-01
 ITU= -1  0
 Use linear search instead of GDIIS.
     Eigenvalues ---    0.00230   0.00230   0.00230   0.01310   0.01757
     Eigenvalues ---    0.02235   0.02291   0.02353   0.02469   0.03619
     Eigenvalues ---    0.04057   0.08226   0.10291   0.14040   0.15980
     Eigenvalues ---    0.15998   0.16000   0.19712   0.22401   0.22909
     Eigenvalues ---    0.24444   0.24897   0.24998   0.36117   0.36209
     Eigenvalues ---    0.37428   0.43028   0.51280   0.52575   0.54532
     Eigenvalues ---    0.56006   0.58328   0.64205   0.77598   1.03721
     Eigenvalues ---    1.09061
 RFO step:  Lambda=-8.85342877D-03 EMin= 2.29999955D-03
 Quartic linear search produced a step of -0.67581.
 Maximum step size (   0.150) exceeded in Quadratic search.
    -- Step size scaled by   0.719
 Iteration  1 RMS(Cart)=  0.20245823 RMS(Int)=  0.01573561
 Iteration  2 RMS(Cart)=  0.08421013 RMS(Int)=  0.00212667
 Iteration  3 RMS(Cart)=  0.00217056 RMS(Int)=  0.00097771
 Iteration  4 RMS(Cart)=  0.00000277 RMS(Int)=  0.00097771
 Iteration  5 RMS(Cart)=  0.00000004 RMS(Int)=  0.00097771
 Variable       Old X    -DE/DX   Delta X   Delta X   Delta X     New X
                                 (Linear)    (Quad)   (Total)
    R1        2.51106  -0.00232   0.00464  -0.00720  -0.00254   2.50852
    R2        2.46640   0.00746  -0.00505   0.00963   0.00459   2.47099
    R3        2.99705  -0.03919   0.01258  -0.04776  -0.03518   2.96187
    R4        2.51458  -0.00357   0.00245  -0.00472  -0.00228   2.51230
    R5        2.63995   0.01163  -0.00283   0.00930   0.00646   2.64641
    R6        2.03880  -0.00005   0.00012  -0.00018  -0.00005   2.03875
    R7        2.51745  -0.00628   0.00533  -0.00970  -0.00437   2.51308
    R8        2.03777   0.00024  -0.00015   0.00032   0.00017   2.03794
    R9        1.82215   0.00155  -0.03480   0.04007   0.00544   1.82758
   R10        2.83294   0.02048  -0.04031   0.05250   0.01199   2.84493
   R11        2.39368   0.00369  -0.02238   0.03360   0.01122   2.40490
   R12        2.24894  -0.00197   0.00410  -0.00661  -0.00251   2.24643
   R13        2.02984  -0.01253  -0.00962   0.00371  -0.00591   2.02393
   R14        1.81993   0.00034   0.00174  -0.00218  -0.00044   1.81950
   R15        2.57193   0.00002  -0.00371   0.00917   0.00556   2.57749
    A1        1.97926   0.02071  -0.00724   0.02521   0.01798   1.99724
    A2        2.20532  -0.03018  -0.01885  -0.00973  -0.02859   2.17674
    A3        2.09851   0.00947   0.02608  -0.01547   0.01061   2.10912
    A4        1.84778  -0.01615   0.00787  -0.02195  -0.01408   1.83370
    A5        1.86514   0.00748  -0.00658   0.01284   0.00625   1.87138
    A6        2.12013  -0.00386   0.00384  -0.00686  -0.00301   2.11712
    A7        2.29792  -0.00363   0.00273  -0.00598  -0.00324   2.29468
    A8        1.89036   0.00248   0.00253   0.00028   0.00280   1.89316
    A9        2.27489  -0.00014  -0.00286   0.00219  -0.00066   2.27423
   A10        2.11793  -0.00234   0.00033  -0.00247  -0.00214   2.11580
   A11        1.84225  -0.01453   0.00341  -0.01637  -0.01295   1.82929
   A12        2.04893  -0.05784  -0.07328   0.01557  -0.05792   1.99100
   A13        1.92897   0.04767   0.02085   0.02371   0.04435   1.97333
   A14        2.30527   0.01017   0.05244  -0.03913   0.01313   2.31840
   A15        2.28386  -0.05425  -0.14899   0.00133  -0.14768   2.13618
   A16        1.98728  -0.01205   0.01189  -0.02746  -0.01496   1.97232
   A17        2.03102  -0.00353   0.00244  -0.00621  -0.00397   2.02705
   A18        2.67651  -0.01254  -0.04792  -0.06905  -0.11674   2.55977
   A19        3.35787  -0.01570  -0.05434  -0.06334  -0.11746   3.24041
   A20        3.14666   0.00049  -0.00213  -0.01496  -0.00987   3.13679
    D1        0.00053   0.00012  -0.00004   0.00055   0.00048   0.00101
    D2        3.12728   0.00034   0.00009   0.00108   0.00121   3.12849
    D3       -0.00085  -0.00011   0.00001  -0.00027  -0.00022  -0.00108
    D4       -3.12861   0.00007   0.00030  -0.00079  -0.00055  -3.12916
    D5       -0.03029   0.00030   0.00174   0.01142   0.01321  -0.01708
    D6        3.11590  -0.00073  -0.00174  -0.01755  -0.01958   3.09632
    D7        3.09554   0.00058   0.00158   0.01230   0.01401   3.10955
    D8       -0.04146  -0.00045  -0.00189  -0.01667  -0.01878  -0.06024
    D9        0.00002  -0.00008   0.00005  -0.00058  -0.00051  -0.00049
   D10       -3.13899  -0.00011   0.00003  -0.00060  -0.00056  -3.13955
   D11       -0.00053   0.00001  -0.00004   0.00044   0.00040  -0.00012
   D12       -3.13984  -0.00000  -0.00002  -0.00002  -0.00005  -3.13988
   D13        3.13811   0.00005  -0.00002   0.00048   0.00046   3.13858
   D14       -0.00119   0.00003  -0.00000   0.00002   0.00001  -0.00118
   D15        0.00082   0.00004   0.00002  -0.00013  -0.00012   0.00069
   D16        3.14037   0.00006  -0.00000   0.00029   0.00028   3.14065
   D17        0.03081  -0.00202  -0.00587  -0.03476  -0.04098  -0.01017
   D18       -3.11659  -0.00067  -0.00145   0.00206   0.00020  -3.11639
   D19        2.02444  -0.00498  -0.00271  -0.08158  -0.08506   1.93938
   D20        0.06195   0.00380  -0.00365  -0.05483  -0.05839   0.00356
   D21       -3.08543  -0.00164  -0.00077  -0.02251  -0.02270  -3.10814
   D22        1.54145   0.00726  -0.00956   0.00401  -0.00504   1.53641
         Item               Value     Threshold  Converged?
 Maximum Force            0.057836     0.000450     NO 
 RMS     Force            0.015505     0.000300     NO 
 Maximum Displacement     1.131380     0.001800     NO 
 RMS     Displacement     0.283826     0.001200     NO 
 Predicted change in Energy=-8.592802D-04
 GradGradGradGradGradGradGradGradGradGradGradGradGradGradGradGradGradGrad

                          Input orientation:                          
 ---------------------------------------------------------------------
 Center     Atomic      Atomic             Coordinates (Angstroms)
 Number     Number       Type             X           Y           Z
 ---------------------------------------------------------------------
      1          7           0       -0.401081   -0.372500    0.005073
      2          7           0       -0.597806    0.940271    0.012464
      3          6           0       -1.918562    1.091779    0.002780
      4          6           0       -2.482844   -0.189848   -0.011234
      5          7           0       -1.498218   -1.083741   -0.009901
      6          1           0       -2.370399    2.071462    0.003938
      7          1           0       -3.516602   -0.496796   -0.023343
      8          1           0        0.865577    1.952712   -0.056412
      9          6           0        1.005284   -1.064336   -0.005135
     10          8           0        1.983846   -0.250976   -0.025730
     11          8           0        0.941072   -2.250546    0.038859
     12          8           0        1.806928    2.174295   -0.064909
     13          1           0        2.096014    2.619365    0.738456
     14          1           0        1.846901    0.811089   -0.044301
 ---------------------------------------------------------------------
                    Distance matrix (angstroms):
                    1          2          3          4          5
     1  N    0.000000
     2  N    1.327451   0.000000
     3  C    2.108760   1.329453   0.000000
     4  C    2.089824   2.197976   1.400420   0.000000
     5  N    1.307592   2.215371   2.215793   1.329863   0.000000
     6  H    3.138657   2.102796   1.078859   2.264155   3.273561
     7  H    3.118129   3.253585   2.253438   1.078434   2.102037
     8  H    2.648549   1.780806   2.914813   3.975490   3.848342
     9  C    1.567356   2.566838   3.632873   3.596081   2.503582
    10  O    2.388219   2.843493   4.127056   4.467131   3.580296
    11  O    2.308587   3.542620   4.398857   3.996521   2.704431
    12  O    3.371404   2.703987   3.880167   4.898387   4.641316
    13  H    3.965425   3.256238   4.357931   5.423989   5.214551
    14  H    2.541013   2.448776   3.776204   4.444059   3.844657
                    6          7          8          9         10
     6  H    0.000000
     7  H    2.812557   0.000000
     8  H    3.238716   5.020425   0.000000
     9  C    4.607445   4.557399   3.020716   0.000000
    10  O    4.934981   5.505938   2.471377   1.272620   0.000000
    11  O    5.444889   4.790654   4.205015   1.188761   2.256065
    12  O    4.179159   5.956209   0.967116   3.336905   2.432031
    13  H    4.559447   6.464693   1.609416   3.913090   2.972444
    14  H    4.401873   5.520703   1.505472   2.055985   1.071019
                   11         12         13         14
    11  O    0.000000
    12  O    4.509955   0.000000
    13  H    5.053648   0.962836   0.000000
    14  H    3.193909   1.363947   1.986109   0.000000
 Stoichiometry    C3H5N3O3
 Framework group  C1[X(C3H5N3O3)]
 Deg. of freedom    36
 Full point group                 C1      NOp   1
 Largest Abelian subgroup         C1      NOp   1
 Largest concise Abelian subgroup C1      NOp   1
                         Standard orientation:                         
 ---------------------------------------------------------------------
 Center     Atomic      Atomic             Coordinates (Angstroms)
 Number     Number       Type             X           Y           Z
 ---------------------------------------------------------------------
      1          7           0       -0.438030   -0.304244    0.004363
      2          7           0       -0.427457    1.023152    0.010136
      3          6           0       -1.708414    1.378905    0.004463
      4          6           0       -2.465829    0.201025   -0.005526
      5          7           0       -1.632762   -0.835572   -0.005842
      6          1           0       -2.001827    2.417098    0.005400
      7          1           0       -3.534858    0.059149   -0.013765
      8          1           0        1.175744    1.794733   -0.065210
      9          6           0        0.843099   -1.207089   -0.009203
     10          8           0        1.936521   -0.556431   -0.034360
     11          8           0        0.594715   -2.368691    0.037035
     12          8           0        2.140106    1.866687   -0.077131
     13          1           0        2.497884    2.262146    0.724530
     14          1           0        1.966929    0.513970   -0.054312
 ---------------------------------------------------------------------
 Rotational constants (GHZ):           2.1815731           1.5454515           0.9067391
 Standard basis: 6-31+G(d,p) (6D, 7F)
 There are   196 symmetry adapted cartesian basis functions of A   symmetry.
 There are   196 symmetry adapted basis functions of A   symmetry.
   196 basis functions,   323 primitive gaussians,   196 cartesian basis functions
    34 alpha electrons       34 beta electrons
       nuclear repulsion energy       458.6983334879 Hartrees.
 NAtoms=   14 NActive=   14 NUniq=   14 SFac= 1.00D+00 NAtFMM=   60 NAOKFM=F Big=F
 Integral buffers will be    131072 words long.
 Raffenetti 2 integral format.
 Two-electron integral symmetry is turned on.
 One-electron integrals computed using PRISM.
 NBasis=   196 RedAO= T EigKep=  2.26D-05  NBF=   196
 NBsUse=   196 1.00D-06 EigRej= -1.00D+00 NBFU=   196
 Lowest energy guess from the checkpoint file:  "/scratch/gongke2021/PC/Gau-29522.chk"
 B after Tr=    -0.000000   -0.000000    0.000000
         Rot=    0.996468   -0.000080    0.000118    0.083975 Ang=  -9.63 deg.
 B after Tr=    -0.000000   -0.000000    0.000000
         Rot=    0.998082    0.000952    0.000646   -0.061889 Ang=   7.10 deg.
 Requested convergence on RMS density matrix=1.00D-08 within 128 cycles.
 Requested convergence on MAX density matrix=1.00D-06.
 Requested convergence on             energy=1.00D-06.
 No special actions if energy rises.
 SCF Done:  E(RM062X) =  -507.052880107     A.U. after   12 cycles
            NFock= 12  Conv=0.88D-08     -V/T= 2.0081
 Calling FoFJK, ICntrl=      2127 FMM=F ISym2X=0 I1Cent= 0 IOpClX= 0 NMat=1 NMatS=1 NMatT=0.
 ***** Axes restored to original set *****
 -------------------------------------------------------------------
 Center     Atomic                   Forces (Hartrees/Bohr)
 Number     Number              X              Y              Z
 -------------------------------------------------------------------
      1        7           0.020981205   -0.001488331   -0.001261733
      2        7           0.007128011    0.004263184   -0.001229264
      3        6           0.003285145    0.000401829    0.000017856
      4        6          -0.000701302   -0.002210495    0.000156017
      5        7          -0.004073405   -0.005225143   -0.000152817
      6        1          -0.000397444    0.000004588    0.000020608
      7        1          -0.000061090   -0.000264851    0.000053217
      8        1          -0.029601412    0.014177121    0.006248906
      9        6          -0.045275086   -0.004491180    0.005006740
     10        8           0.006832946    0.010878286   -0.001650165
     11        8           0.011694029    0.000723422   -0.001983695
     12        8           0.018835797    0.001614118   -0.007435574
     13        1          -0.004606277   -0.000509805    0.001419341
     14        1           0.015958881   -0.017872743    0.000790564
 -------------------------------------------------------------------
 Cartesian Forces:  Max     0.045275086 RMS     0.011026217

 GradGradGradGradGradGradGradGradGradGradGradGradGradGradGradGradGradGrad
 Berny optimization.
 Using GEDIIS/GDIIS optimizer.
 FormGI is forming the generalized inverse of G from B-inverse, IUseBI=4.
 Internal  Forces:  Max     0.025487782 RMS     0.006496387
 Search for a local minimum.
 Step number   3 out of a maximum of   67
 All quantities printed in internal units (Hartrees-Bohrs-Radians)
 Mixed Optimization -- RFO/linear search
 Update second derivatives using D2CorX and points    2    1    3
 DE= -1.27D-02 DEPred=-8.59D-04 R= 1.48D+01
 TightC=F SS=  1.41D+00  RLast= 2.14D-01 DXNew= 2.5227D-01 6.4085D-01
 Trust test= 1.48D+01 RLast= 2.14D-01 DXMaxT set to 2.52D-01
 ITU=  1 -1  0
 Use linear search instead of GDIIS.
     Eigenvalues ---    0.00228   0.00230   0.00254   0.01326   0.01835
     Eigenvalues ---    0.02235   0.02291   0.02352   0.02468   0.03674
     Eigenvalues ---    0.03976   0.04830   0.10310   0.13840   0.15972
     Eigenvalues ---    0.15998   0.16021   0.17184   0.21251   0.22696
     Eigenvalues ---    0.24698   0.24997   0.27127   0.36118   0.36209
     Eigenvalues ---    0.37233   0.41867   0.43564   0.52667   0.54532
     Eigenvalues ---    0.55967   0.58965   0.64190   0.75228   1.07820
     Eigenvalues ---    2.00656
 RFO step:  Lambda=-2.80935251D-02 EMin= 2.28110308D-03
 Quartic linear search produced a step of  0.44832.
 Maximum step size (   0.252) exceeded in Quadratic search.
    -- Step size scaled by   0.497
 Iteration  1 RMS(Cart)=  0.00406851 RMS(Int)=  0.04165600
 Iteration  2 RMS(Cart)=  0.00070847 RMS(Int)=  0.04084956
 Iteration  3 RMS(Cart)=  0.00067442 RMS(Int)=  0.04008181
 Iteration  4 RMS(Cart)=  0.00064300 RMS(Int)=  0.03934977
 Iteration  5 RMS(Cart)=  0.00061395 RMS(Int)=  0.03865077
 Iteration  6 RMS(Cart)=  0.00058701 RMS(Int)=  0.03798239
 Iteration  7 RMS(Cart)=  0.00056198 RMS(Int)=  0.03734249
 Iteration  8 RMS(Cart)=  0.00053866 RMS(Int)=  0.03672910
 Iteration  9 RMS(Cart)=  0.00051691 RMS(Int)=  0.03614045
 Iteration 10 RMS(Cart)=  0.00049658 RMS(Int)=  0.03557495
 Iteration 11 RMS(Cart)=  0.00047753 RMS(Int)=  0.03503112
 Iteration 12 RMS(Cart)=  0.00045966 RMS(Int)=  0.03450763
 Iteration 13 RMS(Cart)=  0.00044287 RMS(Int)=  0.03400324
 Iteration 14 RMS(Cart)=  0.00042707 RMS(Int)=  0.03351685
 Iteration 15 RMS(Cart)=  0.00041218 RMS(Int)=  0.03304741
 Iteration 16 RMS(Cart)=  0.00039812 RMS(Int)=  0.03259397
 Iteration 17 RMS(Cart)=  0.00038484 RMS(Int)=  0.03215565
 Iteration 18 RMS(Cart)=  0.00037227 RMS(Int)=  0.03173165
 Iteration 19 RMS(Cart)=  0.00036036 RMS(Int)=  0.03132121
 Iteration 20 RMS(Cart)=  0.00034907 RMS(Int)=  0.03092362
 Iteration 21 RMS(Cart)=  0.00033835 RMS(Int)=  0.03053825
 Iteration 22 RMS(Cart)=  0.00032815 RMS(Int)=  0.03016449
 Iteration 23 RMS(Cart)=  0.00031846 RMS(Int)=  0.02980177
 Iteration 24 RMS(Cart)=  0.00030922 RMS(Int)=  0.02944957
 Iteration 25 RMS(Cart)=  0.00030042 RMS(Int)=  0.02910740
 Iteration 26 RMS(Cart)=  0.00029202 RMS(Int)=  0.02877480
 Iteration 27 RMS(Cart)=  0.00028400 RMS(Int)=  0.02845133
 Iteration 28 RMS(Cart)=  0.00027633 RMS(Int)=  0.02813661
 Iteration 29 RMS(Cart)=  0.00026900 RMS(Int)=  0.02783023
 Iteration 30 RMS(Cart)=  0.00026198 RMS(Int)=  0.02753186
 Iteration 31 RMS(Cart)=  0.00025525 RMS(Int)=  0.02724114
 Iteration 32 RMS(Cart)=  0.00024880 RMS(Int)=  0.02695778
 Iteration 33 RMS(Cart)=  0.00024262 RMS(Int)=  0.02668145
 Iteration 34 RMS(Cart)=  0.00023668 RMS(Int)=  0.02641190
 Iteration 35 RMS(Cart)=  0.00023098 RMS(Int)=  0.02614884
 Iteration 36 RMS(Cart)=  0.00022549 RMS(Int)=  0.02589203
 Iteration 37 RMS(Cart)=  0.00022022 RMS(Int)=  0.02564123
 Iteration 38 RMS(Cart)=  0.00021515 RMS(Int)=  0.02539622
 Iteration 39 RMS(Cart)=  0.00021026 RMS(Int)=  0.02515677
 Iteration 40 RMS(Cart)=  0.00020555 RMS(Int)=  0.02492268
 Iteration 41 RMS(Cart)=  0.00020101 RMS(Int)=  0.02469377
 Iteration 42 RMS(Cart)=  0.00019663 RMS(Int)=  0.02446985
 Iteration 43 RMS(Cart)=  0.00019241 RMS(Int)=  0.02425074
 Iteration 44 RMS(Cart)=  0.00018833 RMS(Int)=  0.02403627
 Iteration 45 RMS(Cart)=  0.00018439 RMS(Int)=  0.02382630
 New curvilinear step failed, DQL= 3.15D+00 SP=-3.78D-02.
 ITry= 1 IFail=1 DXMaxC= 6.12D-02 DCOld= 1.00D+10 DXMaxT= 2.52D-01 DXLimC= 3.00D+00 Rises=F
 Iteration  1 RMS(Cart)=  0.00363366 RMS(Int)=  0.03844709
 Iteration  2 RMS(Cart)=  0.00057798 RMS(Int)=  0.03776690
 Iteration  3 RMS(Cart)=  0.00055199 RMS(Int)=  0.03711719
 Iteration  4 RMS(Cart)=  0.00052793 RMS(Int)=  0.03649571
 Iteration  5 RMS(Cart)=  0.00050562 RMS(Int)=  0.03590042
 Iteration  6 RMS(Cart)=  0.00048486 RMS(Int)=  0.03532949
 Iteration  7 RMS(Cart)=  0.00046551 RMS(Int)=  0.03478130
 Iteration  8 RMS(Cart)=  0.00044744 RMS(Int)=  0.03425433
 Iteration  9 RMS(Cart)=  0.00043051 RMS(Int)=  0.03374724
 Iteration 10 RMS(Cart)=  0.00041464 RMS(Int)=  0.03325881
 Iteration 11 RMS(Cart)=  0.00039973 RMS(Int)=  0.03278789
 Iteration 12 RMS(Cart)=  0.00038570 RMS(Int)=  0.03233347
 Iteration 13 RMS(Cart)=  0.00037248 RMS(Int)=  0.03189459
 Iteration 14 RMS(Cart)=  0.00036000 RMS(Int)=  0.03147039
 Iteration 15 RMS(Cart)=  0.00034820 RMS(Int)=  0.03106006
 Iteration 16 RMS(Cart)=  0.00033704 RMS(Int)=  0.03066287
 Iteration 17 RMS(Cart)=  0.00032646 RMS(Int)=  0.03027812
 Iteration 18 RMS(Cart)=  0.00031642 RMS(Int)=  0.02990518
 Iteration 19 RMS(Cart)=  0.00030688 RMS(Int)=  0.02954346
 Iteration 20 RMS(Cart)=  0.00029782 RMS(Int)=  0.02919241
 Iteration 21 RMS(Cart)=  0.00028919 RMS(Int)=  0.02885151
 Iteration 22 RMS(Cart)=  0.00028097 RMS(Int)=  0.02852030
 Iteration 23 RMS(Cart)=  0.00027312 RMS(Int)=  0.02819831
 Iteration 24 RMS(Cart)=  0.00026564 RMS(Int)=  0.02788514
 Iteration 25 RMS(Cart)=  0.00025849 RMS(Int)=  0.02758039
 Iteration 26 RMS(Cart)=  0.00025165 RMS(Int)=  0.02728369
 Iteration 27 RMS(Cart)=  0.00024510 RMS(Int)=  0.02699470
 Iteration 28 RMS(Cart)=  0.00023883 RMS(Int)=  0.02671309
 Iteration 29 RMS(Cart)=  0.00023282 RMS(Int)=  0.02643855
 Iteration 30 RMS(Cart)=  0.00022706 RMS(Int)=  0.02617081
 Iteration 31 RMS(Cart)=  0.00022153 RMS(Int)=  0.02590958
 Iteration 32 RMS(Cart)=  0.00021622 RMS(Int)=  0.02565461
 Iteration 33 RMS(Cart)=  0.00021111 RMS(Int)=  0.02540566
 Iteration 34 RMS(Cart)=  0.00020620 RMS(Int)=  0.02516249
 Iteration 35 RMS(Cart)=  0.00020147 RMS(Int)=  0.02492490
 Iteration 36 RMS(Cart)=  0.00019692 RMS(Int)=  0.02469266
 Iteration 37 RMS(Cart)=  0.00019254 RMS(Int)=  0.02446559
 Iteration 38 RMS(Cart)=  0.00018831 RMS(Int)=  0.02424350
 Iteration 39 RMS(Cart)=  0.00018423 RMS(Int)=  0.02402621
 Iteration 40 RMS(Cart)=  0.00018030 RMS(Int)=  0.02381356
 Iteration 41 RMS(Cart)=  0.00017650 RMS(Int)=  0.02360539
 Iteration 42 RMS(Cart)=  0.00017284 RMS(Int)=  0.02340154
 Iteration 43 RMS(Cart)=  0.00016929 RMS(Int)=  0.02320187
 Iteration 44 RMS(Cart)=  0.00016586 RMS(Int)=  0.02300624
 Iteration 45 RMS(Cart)=  0.00016255 RMS(Int)=  0.02281452
 Iteration 46 RMS(Cart)=  0.00015934 RMS(Int)=  0.02262658
 Iteration 47 RMS(Cart)=  0.00015623 RMS(Int)=  0.02244230
 Iteration 48 RMS(Cart)=  0.00015322 RMS(Int)=  0.02226157
 Iteration 49 RMS(Cart)=  0.00015031 RMS(Int)=  0.02208427
 Iteration 50 RMS(Cart)=  0.00014748 RMS(Int)=  0.02191031
 Iteration 51 RMS(Cart)=  0.00014474 RMS(Int)=  0.02173958
 Iteration 52 RMS(Cart)=  0.00014208 RMS(Int)=  0.02157198
 Iteration 53 RMS(Cart)=  0.00013950 RMS(Int)=  0.02140743
 Iteration 54 RMS(Cart)=  0.00013700 RMS(Int)=  0.02124582
 Iteration 55 RMS(Cart)=  0.00013457 RMS(Int)=  0.02108709
 Iteration 56 RMS(Cart)=  0.00013221 RMS(Int)=  0.02093114
 Iteration 57 RMS(Cart)=  0.00012991 RMS(Int)=  0.02077789
 Iteration 58 RMS(Cart)=  0.00012768 RMS(Int)=  0.02062728
 Iteration 59 RMS(Cart)=  0.00012551 RMS(Int)=  0.02047922
 Iteration 60 RMS(Cart)=  0.00012340 RMS(Int)=  0.02033365
 Iteration 61 RMS(Cart)=  0.00012135 RMS(Int)=  0.02019051
 Iteration 62 RMS(Cart)=  0.00011935 RMS(Int)=  0.02004972
 Iteration 63 RMS(Cart)=  0.00011741 RMS(Int)=  0.01991122
 Iteration 64 RMS(Cart)=  0.00011551 RMS(Int)=  0.01977496
 Iteration 65 RMS(Cart)=  0.00011367 RMS(Int)=  0.01964088
 Iteration 66 RMS(Cart)=  0.00011187 RMS(Int)=  0.01950891
 Iteration 67 RMS(Cart)=  0.00011012 RMS(Int)=  0.01937901
 Iteration 68 RMS(Cart)=  0.00010841 RMS(Int)=  0.01925113
 Iteration 69 RMS(Cart)=  0.00010674 RMS(Int)=  0.01912521
 Iteration 70 RMS(Cart)=  0.00010512 RMS(Int)=  0.01900120
 Iteration 71 RMS(Cart)=  0.00010353 RMS(Int)=  0.01887907
 Iteration 72 RMS(Cart)=  0.00010199 RMS(Int)=  0.01875876
 Iteration 73 RMS(Cart)=  0.00010048 RMS(Int)=  0.01864023
 Iteration 74 RMS(Cart)=  0.00009901 RMS(Int)=  0.01852343
 Iteration 75 RMS(Cart)=  0.00009757 RMS(Int)=  0.01840834
 Iteration 76 RMS(Cart)=  0.00009616 RMS(Int)=  0.01829490
 Iteration 77 RMS(Cart)=  0.00009479 RMS(Int)=  0.01818308
 Iteration 78 RMS(Cart)=  0.00009345 RMS(Int)=  0.01807285
 Iteration 79 RMS(Cart)=  0.00009214 RMS(Int)=  0.01796416
 Iteration 80 RMS(Cart)=  0.00009086 RMS(Int)=  0.01785698
 Iteration 81 RMS(Cart)=  0.00008960 RMS(Int)=  0.01775128
 Iteration 82 RMS(Cart)=  0.00008838 RMS(Int)=  0.01764702
 Iteration 83 RMS(Cart)=  0.00008718 RMS(Int)=  0.01754418
 Iteration 84 RMS(Cart)=  0.00008601 RMS(Int)=  0.01744272
 Iteration 85 RMS(Cart)=  0.00008486 RMS(Int)=  0.01734262
 Iteration 86 RMS(Cart)=  0.00008374 RMS(Int)=  0.01724383
 Iteration 87 RMS(Cart)=  0.00008264 RMS(Int)=  0.01714635
 Iteration 88 RMS(Cart)=  0.00008156 RMS(Int)=  0.01705013
 Iteration 89 RMS(Cart)=  0.00008051 RMS(Int)=  0.01695516
 Iteration 90 RMS(Cart)=  0.00007948 RMS(Int)=  0.01686140
 Iteration 91 RMS(Cart)=  0.00007847 RMS(Int)=  0.01676884
 Iteration 92 RMS(Cart)=  0.00007748 RMS(Int)=  0.01667744
 Iteration 93 RMS(Cart)=  0.00007651 RMS(Int)=  0.01658719
 Iteration 94 RMS(Cart)=  0.00007556 RMS(Int)=  0.01649806
 Iteration 95 RMS(Cart)=  0.00007463 RMS(Int)=  0.01641003
 Iteration 96 RMS(Cart)=  0.00007371 RMS(Int)=  0.01632308
 Iteration 97 RMS(Cart)=  0.00007282 RMS(Int)=  0.01623718
 Iteration 98 RMS(Cart)=  0.00007194 RMS(Int)=  0.01615232
 Iteration 99 RMS(Cart)=  0.00007108 RMS(Int)=  0.01606847
 Iteration100 RMS(Cart)=  0.00007024 RMS(Int)=  0.01598562
 New curvilinear step not converged.
 ITry= 2 IFail=1 DXMaxC= 7.15D-02 DCOld= 1.00D+10 DXMaxT= 2.52D-01 DXLimC= 3.00D+00 Rises=F
 Iteration  1 RMS(Cart)=  0.03273925 RMS(Int)=  0.00190160
 Iteration  2 RMS(Cart)=  0.00187341 RMS(Int)=  0.00038858
 Iteration  3 RMS(Cart)=  0.00014232 RMS(Int)=  0.00037744
 Iteration  4 RMS(Cart)=  0.00000077 RMS(Int)=  0.00037743
 ITry= 3 IFail=0 DXMaxC= 1.10D-01 DCOld= 1.00D+10 DXMaxT= 2.52D-01 DXLimC= 3.00D+00 Rises=F
 Variable       Old X    -DE/DX   Delta X   Delta X   Delta X     New X
                                 (Linear)    (Quad)   (Total)
    R1        2.50852   0.00019  -0.00422  -0.00347  -0.00698   2.50153
    R2        2.47099   0.00404   0.00541   0.00993   0.01339   2.48438
    R3        2.96187  -0.02549  -0.02412  -0.09132  -0.09717   2.86470
    R4        2.51230  -0.00041  -0.00265  -0.00239  -0.00458   2.50772
    R5        2.64641   0.00424   0.00477   0.00857   0.01160   2.65801
    R6        2.03875   0.00017  -0.00010   0.00039   0.00021   2.03896
    R7        2.51308  -0.00091  -0.00550  -0.00529  -0.00972   2.50335
    R8        2.03794   0.00013   0.00017   0.00040   0.00049   2.03844
    R9        1.82758   0.01559   0.02552   0.05313   0.06797   1.89555
   R10        2.84493   0.01945   0.03211   0.15545   0.15711   3.00204
   R11        2.40490   0.01101   0.01988   0.03638   0.04898   2.45388
   R12        2.24643  -0.00143  -0.00384  -0.00565  -0.00836   2.23807
   R13        2.02393  -0.00265   0.00373   0.00365   0.00665   2.03058
   R14        1.81950  -0.00044  -0.00135  -0.00247  -0.00333   1.81617
   R15        2.57749   0.00136   0.00495   0.02075   0.02087   2.59836
    A1        1.99724   0.00541   0.01286   0.01649   0.02608   2.02332
    A2        2.17674  -0.00863  -0.00031  -0.01331  -0.01099   2.16575
    A3        2.10912   0.00322  -0.01255  -0.00331  -0.01522   2.09390
    A4        1.83370  -0.00430  -0.01153  -0.01420  -0.02292   1.81079
    A5        1.87138   0.00233   0.00716   0.00862   0.01401   1.88539
    A6        2.11712  -0.00080  -0.00390  -0.00216  -0.00560   2.11152
    A7        2.29468  -0.00153  -0.00326  -0.00646  -0.00840   2.28628
    A8        1.89316   0.00060  -0.00043   0.00033  -0.00018   1.89298
    A9        2.27423  -0.00006   0.00160   0.00067   0.00214   2.27637
   A10        2.11580  -0.00054  -0.00117  -0.00100  -0.00196   2.11384
   A11        1.82929  -0.00403  -0.00807  -0.01124  -0.01701   1.81228
   A12        1.99100  -0.01401   0.02265   0.00167   0.02390   2.01491
   A13        1.97333   0.02017   0.00605   0.05003   0.04599   2.01932
   A14        2.31840  -0.00608  -0.02890  -0.05083  -0.06965   2.24875
   A15        2.13618  -0.00402   0.03263  -0.00013   0.03252   2.16871
   A16        1.97232  -0.00871  -0.01459  -0.06137  -0.06211   1.91021
   A17        2.02705  -0.00150  -0.00340  -0.01040  -0.01145   2.01560
   A18        2.55977  -0.00347  -0.02055  -0.08556  -0.08807   2.47170
   A19        3.24041  -0.00091  -0.01661  -0.09432  -0.09278   3.14762
   A20        3.13679   0.00092  -0.00301   0.00883   0.00456   3.14135
    D1        0.00101   0.00028   0.00024   0.00644   0.00544   0.00645
    D2        3.12849  -0.00009   0.00048  -0.00402  -0.00279   3.12570
    D3       -0.00108  -0.00032  -0.00011  -0.00707  -0.00584  -0.00692
    D4       -3.12916   0.00013  -0.00044   0.00304   0.00201  -3.12715
    D5       -0.01708  -0.00036   0.00477   0.01343   0.01547  -0.00160
    D6        3.09632   0.00212  -0.00763   0.03933   0.02381   3.12013
    D7        3.10955  -0.00074   0.00523   0.00248   0.00724   3.11679
    D8       -0.06024   0.00174  -0.00716   0.02838   0.01558  -0.04466
    D9       -0.00049  -0.00011  -0.00026  -0.00299  -0.00264  -0.00313
   D10       -3.13955  -0.00011  -0.00027  -0.00247  -0.00225   3.14139
   D11       -0.00012  -0.00007   0.00021  -0.00107  -0.00065  -0.00077
   D12       -3.13988   0.00002  -0.00001   0.00072   0.00055  -3.13933
   D13        3.13858  -0.00007   0.00022  -0.00164  -0.00108   3.13750
   D14       -0.00118   0.00002   0.00001   0.00015   0.00012  -0.00106
   D15        0.00069   0.00023  -0.00007   0.00470   0.00364   0.00434
   D16        3.14065   0.00014   0.00013   0.00310   0.00258  -3.13995
   D17       -0.01017   0.00379  -0.01448   0.03356   0.01236   0.00219
   D18       -3.11639   0.00018   0.00105  -0.00136  -0.00004  -3.11642
   D19        1.93938  -0.00155  -0.03634  -0.06789  -0.09177   1.84761
   D20        0.00356   0.00486  -0.02376  -0.02175  -0.04004  -0.03648
   D21       -3.10814  -0.00056  -0.00967  -0.02330  -0.02831  -3.13645
   D22        1.53641   0.00344   0.00408   0.05051   0.04378   1.58020
         Item               Value     Threshold  Converged?
 Maximum Force            0.025488     0.000450     NO 
 RMS     Force            0.006496     0.000300     NO 
 Maximum Displacement     0.110315     0.001800     NO 
 RMS     Displacement     0.032548     0.001200     NO 
 Predicted change in Energy=-6.718375D-03
 GradGradGradGradGradGradGradGradGradGradGradGradGradGradGradGradGradGrad

                          Input orientation:                          
 ---------------------------------------------------------------------
 Center     Atomic      Atomic             Coordinates (Angstroms)
 Number     Number       Type             X           Y           Z
 ---------------------------------------------------------------------
      1          7           0       -0.406311   -0.377115    0.005862
      2          7           0       -0.576815    0.935565   -0.005410
      3          6           0       -1.895701    1.082334   -0.006455
      4          6           0       -2.476194   -0.198833    0.000482
      5          7           0       -1.504751   -1.099475    0.004638
      6          1           0       -2.345385    2.063097   -0.014634
      7          1           0       -3.512833   -0.497101    0.000074
      8          1           0        0.842651    1.991612   -0.074132
      9          6           0        0.947966   -1.058134   -0.008456
     10          8           0        1.972913   -0.261284   -0.035157
     11          8           0        0.928013   -2.241761    0.027384
     12          8           0        1.827014    2.183783   -0.057513
     13          1           0        2.054264    2.618466    0.768971
     14          1           0        1.905277    0.811078   -0.045048
 ---------------------------------------------------------------------
                    Distance matrix (angstroms):
                    1          2          3          4          5
     1  N    0.000000
     2  N    1.323755   0.000000
     3  C    2.085289   1.327028   0.000000
     4  C    2.077554   2.212360   1.406560   0.000000
     5  N    1.314677   2.236638   2.216587   1.324718   0.000000
     6  H    3.116900   2.097440   1.078971   2.265760   3.272446
     7  H    3.108843   3.266919   2.260481   1.078695   2.096489
     8  H    2.679024   1.770548   2.886163   3.977229   3.882179
     9  C    1.515934   2.509941   3.559221   3.530347   2.453100
    10  O    2.382395   2.816815   4.095401   4.449688   3.577470
    11  O    2.292986   3.515819   4.361665   3.970253   2.687690
    12  O    3.398523   2.709088   3.882577   4.919129   4.678066
    13  H    3.950984   3.217825   4.308505   5.390065   5.203256
    14  H    2.599584   2.485528   3.810841   4.496586   3.909088
                    6          7          8          9         10
     6  H    0.000000
     7  H    2.813853   0.000000
     8  H    3.189392   5.016915   0.000000
     9  C    4.537431   4.495949   3.052270   0.000000
    10  O    4.904168   5.490925   2.520823   1.298537   0.000000
    11  O    5.408207   4.771341   4.235450   1.184337   2.240092
    12  O    4.174364   5.975317   1.003084   3.359339   2.449518
    13  H    4.503263   6.425771   1.603675   3.917356   2.991020
    14  H    4.431321   5.573983   1.588610   2.100414   1.074538
                   11         12         13         14
    11  O    0.000000
    12  O    4.516730   0.000000
    13  H    5.043827   0.961076   0.000000
    14  H    3.206262   1.374991   1.987832   0.000000
 Stoichiometry    C3H5N3O3
 Framework group  C1[X(C3H5N3O3)]
 Deg. of freedom    36
 Full point group                 C1      NOp   1
 Largest Abelian subgroup         C1      NOp   1
 Largest concise Abelian subgroup C1      NOp   1
                         Standard orientation:                         
 ---------------------------------------------------------------------
 Center     Atomic      Atomic             Coordinates (Angstroms)
 Number     Number       Type             X           Y           Z
 ---------------------------------------------------------------------
      1          7           0       -0.453010   -0.289343    0.006319
      2          7           0       -0.367468    1.031570   -0.007790
      3          6           0       -1.633377    1.429660   -0.007466
      4          6           0       -2.449787    0.284333    0.003209
      5          7           0       -1.670030   -0.786569    0.008203
      6          1           0       -1.885720    2.478661   -0.017348
      7          1           0       -3.524465    0.191351    0.004842
      8          1           0        1.228726    1.794246   -0.080814
      9          6           0        0.744684   -1.218524   -0.008168
     10          8           0        1.903890   -0.634102   -0.038055
     11          8           0        0.497156   -2.376061    0.030456
     12          8           0        2.231698    1.793222   -0.065920
     13          1           0        2.539851    2.177668    0.759253
     14          1           0        2.044082    0.431181   -0.050357
 ---------------------------------------------------------------------
 Rotational constants (GHZ):           2.1891071           1.5538745           0.9110224
 Standard basis: 6-31+G(d,p) (6D, 7F)
 There are   196 symmetry adapted cartesian basis functions of A   symmetry.
 There are   196 symmetry adapted basis functions of A   symmetry.
   196 basis functions,   323 primitive gaussians,   196 cartesian basis functions
    34 alpha electrons       34 beta electrons
       nuclear repulsion energy       459.4145404693 Hartrees.
 NAtoms=   14 NActive=   14 NUniq=   14 SFac= 1.00D+00 NAtFMM=   60 NAOKFM=F Big=F
 Integral buffers will be    131072 words long.
 Raffenetti 2 integral format.
 Two-electron integral symmetry is turned on.
 One-electron integrals computed using PRISM.
 NBasis=   196 RedAO= T EigKep=  2.17D-05  NBF=   196
 NBsUse=   196 1.00D-06 EigRej= -1.00D+00 NBFU=   196
 Initial guess from the checkpoint file:  "/scratch/gongke2021/PC/Gau-29522.chk"
 B after Tr=    -0.000000    0.000000   -0.000000
         Rot=    0.999805    0.000032    0.000242    0.019731 Ang=   2.26 deg.
 ExpMin= 4.38D-02 ExpMax= 5.48D+03 ExpMxC= 8.25D+02 IAcc=2 IRadAn=         4 AccDes= 0.00D+00
 Harris functional with IExCor= 1009 and IRadAn=       4 diagonalized for initial guess.
 HarFok:  IExCor= 1009 AccDes= 0.00D+00 IRadAn=         4 IDoV= 1 UseB2=F ITyADJ=14
 ICtDFT=  3500011 ScaDFX=  1.000000  1.000000  1.000000  1.000000
 FoFCou: FMM=F IPFlag=           0 FMFlag=      100000 FMFlg1=           0
         NFxFlg=           0 DoJE=T BraDBF=F KetDBF=T FulRan=T
         wScrn=  0.000000 ICntrl=       500 IOpCl=  0 I1Cent=   200000004 NGrid=           0
         NMat0=    1 NMatS0=      1 NMatT0=    0 NMatD0=    1 NMtDS0=    0 NMtDT0=    0
 Petite list used in FoFCou.
 Requested convergence on RMS density matrix=1.00D-08 within 128 cycles.
 Requested convergence on MAX density matrix=1.00D-06.
 Requested convergence on             energy=1.00D-06.
 No special actions if energy rises.
 SCF Done:  E(RM062X) =  -507.058284102     A.U. after   13 cycles
            NFock= 13  Conv=0.43D-08     -V/T= 2.0082
 Calling FoFJK, ICntrl=      2127 FMM=F ISym2X=0 I1Cent= 0 IOpClX= 0 NMat=1 NMatS=1 NMatT=0.
 ***** Axes restored to original set *****
 -------------------------------------------------------------------
 Center     Atomic                   Forces (Hartrees/Bohr)
 Number     Number              X              Y              Z
 -------------------------------------------------------------------
      1        7           0.025914745   -0.011656599   -0.001761729
      2        7          -0.004143640    0.000469754   -0.000658734
      3        6          -0.003225132    0.004679651   -0.000129700
      4        6          -0.002335207    0.002567661   -0.000108520
      5        7           0.000420605    0.003107598    0.000602046
      6        1          -0.000914796    0.000020076   -0.000031230
      7        1          -0.000172940    0.000562454   -0.000005276
      8        1           0.005067663    0.012271909    0.003003392
[...]
 ! A14   A(10,9,11)            125.9038         -DE/DX =    0.0                 !
 ! A15   A(9,10,14)            118.8667         -DE/DX =    0.0                 !
 ! A16   A(8,12,13)            108.638          -DE/DX =    0.0                 !
 ! A17   A(13,12,14)           121.3267         -DE/DX =    0.0                 !
 ! A18   A(8,14,10)            161.5635         -DE/DX =    0.0                 !
 ! A19   L(10,14,12,2,-1)      191.4918         -DE/DX =    0.0                 !
 ! A20   L(10,14,12,2,-2)      177.4722         -DE/DX =    0.0                 !
 ! D1    D(5,1,2,3)             -0.1081         -DE/DX =    0.0                 !
 ! D2    D(9,1,2,3)           -179.4052         -DE/DX =    0.0                 !
 ! D3    D(2,1,5,4)              0.1366         -DE/DX =    0.0                 !
 ! D4    D(9,1,5,4)            179.4602         -DE/DX =    0.0                 !
 ! D5    D(2,1,9,10)            -4.8488         -DE/DX =    0.0                 !
 ! D6    D(2,1,9,11)           174.7152         -DE/DX =    0.0                 !
 ! D7    D(5,1,9,10)           175.8908         -DE/DX =    0.0                 !
 ! D8    D(5,1,9,11)            -4.5452         -DE/DX =    0.0                 !
 ! D9    D(1,2,3,4)              0.0335         -DE/DX =    0.0                 !
 ! D10   D(1,2,3,6)           -179.9613         -DE/DX =    0.0                 !
 ! D11   D(2,3,4,5)              0.0464         -DE/DX =    0.0                 !
 ! D12   D(2,3,4,7)           -179.8872         -DE/DX =    0.0                 !
 ! D13   D(6,3,4,5)           -179.9594         -DE/DX =    0.0                 !
 ! D14   D(6,3,4,7)              0.107          -DE/DX =    0.0                 !
 ! D15   D(3,4,5,1)             -0.1048         -DE/DX =    0.0                 !
 ! D16   D(7,4,5,1)            179.836          -DE/DX =    0.0                 !
 ! D17   D(1,9,10,14)           -4.1511         -DE/DX =    0.0                 !
 ! D18   D(11,9,10,14)         176.3175         -DE/DX =    0.0                 !
 ! D19   D(9,10,12,13)         135.6134         -DE/DX =    0.0                 !
 ! D20   D(9,10,14,8)           32.6195         -DE/DX =    0.0                 !
 ! D21   D(12,10,14,8)        -141.7428         -DE/DX =    0.0                 !
 ! D22   D(8,12,13,14)         109.3295         -DE/DX =    0.0                 !
 --------------------------------------------------------------------------------
 GradGradGradGradGradGradGradGradGradGradGradGradGradGradGradGradGradGrad


 ----------------------------------------------------------------------

 Electric dipole moment (input orientation):
 (Debye = 10**-18 statcoulomb cm , SI units = C m)
                  (au)            (Debye)         (10**-30 SI)
   Tot        0.266126D+01      0.676424D+01      0.225631D+02
   x         -0.965800D+00     -0.245482D+01     -0.818839D+01
   y          0.242641D+01      0.616732D+01      0.205720D+02
   z          0.511904D+00      0.130113D+01      0.434010D+01

 Dipole polarizability, Alpha (input orientation).
 (esu units = cm**3 , SI units = C**2 m**2 J**-1)
 Alpha(0;0):
               (au)            (10**-24 esu)      (10**-40 SI)
   iso        0.675361D+02      0.100078D+02      0.111352D+02
   aniso      0.414086D+02      0.613612D+01      0.682736D+01
   xx         0.828424D+02      0.122760D+02      0.136589D+02
   yx        -0.290342D+01     -0.430242D+00     -0.478709D+00
   yy         0.794491D+02      0.117731D+02      0.130994D+02
   zx         0.161399D+01      0.239168D+00      0.266110D+00
   zy         0.140760D+01      0.208585D+00      0.232082D+00
   zz         0.403169D+02      0.597435D+01      0.664737D+01

 ----------------------------------------------------------------------

 Dipole orientation:
     7         -0.94890785         -0.49366643         -0.50960868
     7         -0.46761109          0.03239904          1.90709401
     6         -2.61851961         -0.47535947          3.07642094
     6         -4.37563017         -1.31907319          1.25693715
     7         -3.26595173         -1.31173585         -0.98020432
     1         -2.81599981         -0.22691425          5.09161554
     1         -6.31694919         -1.90428152          1.47047462
     1          2.91640015          1.62481309          3.68799555
     6          0.89365089         -0.24261650         -2.54312343
     8          3.06179037          0.73501449         -1.85502182
     8          0.35224288         -0.92485237         -4.61978819
     8          4.21986380          2.44231853          2.70268754
     1          5.84060519          1.99469428          3.39672417
     1          3.26565797          1.33478355         -0.08681593

 Electric dipole moment (dipole orientation):
 (Debye = 10**-18 statcoulomb cm , SI units = C m)
                  (au)            (Debye)         (10**-30 SI)
   Tot        0.266126D+01      0.676424D+01      0.225631D+02
   x          0.000000D+00      0.000000D+00      0.000000D+00
   y          0.000000D+00      0.000000D+00      0.000000D+00
   z          0.266126D+01      0.676424D+01      0.225631D+02

 Dipole polarizability, Alpha (dipole orientation).
 (esu units = cm**3 , SI units = C**2 m**2 J**-1)
 Alpha(0;0):
               (au)            (10**-24 esu)      (10**-40 SI)
   iso        0.675361D+02      0.100078D+02      0.111352D+02
   aniso      0.414086D+02      0.613612D+01      0.682736D+01
   xx         0.768724D+02      0.113913D+02      0.126745D+02
   yx         0.114323D+02      0.169409D+01      0.188493D+01
   yy         0.450981D+02      0.668285D+01      0.743567D+01
   zx        -0.528507D+01     -0.783167D+00     -0.871390D+00
   zy         0.563774D+01      0.835427D+00      0.929538D+00
   zz         0.806379D+02      0.119493D+02      0.132954D+02

 ----------------------------------------------------------------------
 1\1\GINC-NODE4\Freq\RM062X\6-31+G(d,p)\C3H5N3O3\GONGKE2021\25-May-2023
 \0\\#N Geom=AllCheck Guess=TCheck SCRF=Check GenChk RM062X/6-31+G(d,p)
  Freq\\"1-H-Tz-TS"\\0,1\N,-0.4213026928,-0.4643284026,0.0040788385\N,-
 0.5816052172,0.8566566828,0.0886880064\C,-1.8932198211,1.0236083521,0.
 0396264421\C,-2.4948146376,-0.247484359,-0.075946174\N,-1.541752858,-1
 .1627272014,-0.0940961321\H,-2.3367012338,2.0067095125,0.0869571852\H,
 -3.5355896929,-0.5233139046,-0.1446785401\H,0.9031695343,2.4680170366,
 0.1515377939\C,0.873428449,-1.1346493392,0.0298150723\O,1.9054463315,-
 0.3276066859,0.0445484138\O,0.9171991116,-2.3254253385,0.0436231386\O,
 1.8260166754,2.3150376169,-0.092862947\H,2.3899217842,2.8161741146,0.5
 050062393\H,1.7499142675,0.6515618858,-0.0256916569\\Version=ES64L-G16
 RevA.03\State=1-A\HF=-507.0652589\RMSD=3.052e-09\RMSF=2.184e-05\ZeroPo
 int=0.0995351\Thermal=0.1087588\Dipole=-0.9657998,2.426412,0.5119036\D
 ipoleDeriv=-1.1997107,0.6002681,-0.0077928,0.5966693,-0.2293343,0.0262
 644,-0.0156119,0.0192672,0.0534804,-0.1865219,-0.3377153,-0.0268638,-0
 .6333692,-0.1785569,-0.0249019,-0.0349366,-0.0222297,-0.178186,-0.2314
 809,0.2443971,0.0069179,-0.1435631,0.335884,0.0190702,-0.0172998,0.033
 2044,-0.0429775,0.0789612,0.1623501,0.0180556,0.4458238,-0.1113865,0.0
 183721,0.0358318,0.0019017,-0.0511923,0.3003109,-0.3432686,0.0002605,0
 .0405272,-0.3802671,-0.0143713,0.0177987,-0.0264394,-0.1637497,0.09241
 29,0.0096543,-0.0029447,0.0369867,0.0238586,-0.0081746,-0.0017897,-0.0
 074241,0.157596,0.0371844,-0.0074585,-0.005925,-0.0314895,0.0931069,-0
 .0061886,-0.0069402,-0.0057051,0.1608524,0.4303372,0.1676422,0.0324817
 ,0.172285,0.4510792,-0.0409391,0.0230374,-0.0484946,0.2775357,2.505985
 5,-0.096021,0.0222562,-0.3146562,2.2097451,-0.0277551,0.0236608,-0.016
 1696,0.4488935,-1.1404956,-0.4554487,-0.0028053,-0.5365901,-1.3018232,
 -0.0056366,-0.0053731,-0.0007158,-0.3934565,-0.7059204,0.1478025,-0.00
 33166,0.2815952,-1.3561823,0.0125184,0.0026426,0.0161822,-0.3724011,-0
 .7114383,-0.1964572,-0.0072336,-0.2149086,-1.0016273,0.1065032,0.01637
 79,0.1168961,-0.507272,0.351032,0.0317268,-0.0111044,0.0088962,0.31978
 84,-0.0545519,-0.0167948,-0.0532498,0.2914327,0.3793436,0.0725282,-0.0
 119858,0.2917935,1.1257153,-0.0002093,-0.0206033,-0.0070235,0.3194446\
 Polar=82.8423759,-2.9034172,79.449053,1.6139869,1.4075981,40.3169375\Q
 uadrupole=3.635692,-2.0465026,-1.5891894,2.9700233,2.3336678,3.2732645
 \PG=C01 [X(C3H5N3O3)]\NImag=0\\0.78673571,-0.04993568,0.70064989,0.026
 62139,0.03128193,0.11812984,-0.09392123,0.04340432,0.00237733,0.659689
 21,-0.04229009,-0.28641544,-0.01644486,0.01486507,0.49919691,-0.003740
 61,-0.01354259,-0.07051237,0.02498275,0.02681064,0.11016740,-0.0991324
 1,0.09419984,0.00179874,-0.41624877,0.03327322,-0.01331512,0.70805923,
 0.03258300,-0.06426312,-0.00366264,0.02489866,-0.11641083,-0.00198388,
 -0.14788696,0.84236361,-0.00292124,-0.00077138,0.01196907,-0.01417053,
 -0.00161772,-0.07334590,0.01601848,0.04197289,0.14334435,-0.14065439,-
 0.00215134,-0.00705501,-0.05209855,-0.00575061,-0.00372514,-0.15242360
 ,-0.09380133,-0.01036099,0.93935090,0.06596236,-0.01601233,0.00066830,
 -0.10181294,0.02059849,-0.00498122,-0.04746345,-0.26184519,-0.01528561
 ,0.03700162,0.61264272,-0.00208662,-0.00178663,0.00978166,-0.01046943,
 -0.00019508,0.02053535,-0.00708814,-0.01763789,-0.07316789,0.04040098,
 0.03442897,0.14444272,-0.21636340,-0.13455558,-0.01668696,-0.06460153,
 -0.04186974,-0.00745710,0.04951367,0.07599977,0.00679573,-0.26453819,0
 .15358801,0.00128064,0.56639219,-0.05971334,-0.17367514,-0.00893540,-0
 .00954620,-0.09781335,-0.00900343,-0.01878001,-0.07350691,-0.00736768,
 0.14921954,-0.26983591,-0.00664467,-0.06935382,0.59010716,-0.01098199,
 -0.01246855,-0.07259799,-0.00464298,-0.01078347,0.02533416,-0.00036042
 ,-0.00331214,0.02148634,0.00087595,-0.00608063,-0.07209169,0.01733882,
 0.02959954,0.10837747,-0.00810476,0.00155042,-0.00063609,-0.00862710,0
 .03060309,0.00207191,-0.10442852,0.10580124,0.00397402,0.01265197,-0.0
 0992225,-0.00007856,-0.00077972,-0.00569961,-0.00070530,0.10900434,-0.
 00288610,0.00170568,-0.00062031,-0.00046318,0.00328124,0.00073400,0.11
 475009,-0.32153910,-0.01479971,0.01275616,-0.00575355,0.00021521,0.000
 00889,-0.00421159,-0.00071600,-0.12431005,0.32648719,-0.00103495,-0.00
 029033,0.00906849,-0.00004605,0.00205034,-0.00728517,0.00453507,-0.015
 17193,-0.03313422,0.00151289,-0.00079837,-0.00041198,-0.00030600,-0.00
 097139,0.00580784,-0.00471535,0.01519385,0.02584929,-0.00177783,0.0025
 3224,-0.00040976,0.00033763,0.00061004,-0.00025027,0.00048227,0.002414
 71,0.00023121,-0.34414060,-0.07987765,-0.02045316,-0.01688500,-0.00585
 659,-0.00081755,-0.00040596,-0.00041300,0.00000813,0.36276656,0.007514
 23,-0.00380244,-0.00053803,-0.00466598,-0.00511079,-0.00098140,-0.0207
 1844,0.00526131,-0.00057168,-0.08842338,-0.08214482,-0.00768777,0.0240
 9276,0.01065486,0.00243807,0.00042046,-0.00035518,0.00007856,0.0812067
 3,0.07397613,0.00012776,-0.00079768,0.00938752,-0.00061234,-0.00069762
 ,0.00614514,-0.00131304,0.00057979,-0.00093294,-0.02109710,-0.00729211
 ,-0.03400383,0.00120179,0.00089871,-0.00767885,0.00006301,0.00003556,-
 0.00115611,0.02177823,0.00725409,0.02705604,0.00098358,-0.00081089,-0.
 00004886,-0.00672891,-0.00002047,-0.00033675,-0.00217873,-0.00055723,-
 0.00008177,-0.00069991,0.00091177,0.00004073,0.00177349,0.00276152,0.0
 0031020,-0.00040715,0.00009279,-0.00001359,0.00001538,0.00014355,0.000
 01399,0.49843905,0.00038455,-0.00284627,-0.00013811,0.00015337,-0.0002
 3257,0.00016435,-0.00143817,0.00196747,0.00005355,0.00053073,0.0009809
 4,0.00010999,0.00189619,0.00174147,0.00019107,0.00026753,0.00003046,-0
 .00002920,0.00003632,0.00025587,0.00001406,-0.07691857,0.03879408,-0.0
 0010238,0.00009102,-0.00065273,0.00038672,0.00070816,-0.00337073,-0.00
 025402,-0.00019204,0.00014616,-0.00010766,0.00007187,0.00022504,0.0001
 3875,0.00017745,0.00056597,-0.00004318,-0.00000332,0.00008073,-0.00000
 395,-0.00000013,0.00006985,-0.11262375,0.03801817,0.05882157,-0.149359
 95,0.01621171,-0.00340655,-0.00709031,0.02566801,0.00219290,0.02606432
 ,-0.00090205,0.00087727,0.00603924,-0.02551955,-0.00188945,-0.05929038
 ,0.00419820,-0.00156162,0.00195192,0.00016176,0.00000629,0.00007521,-0
 .00024737,-0.00018362,0.00681579,0.00194132,0.00101714,0.55251585,0.00
 607626,-0.10468634,-0.00203725,0.03016488,-0.02244334,0.00108236,-0.00
 974256,-0.01172078,-0.00168199,-0.01472023,0.00556026,-0.00077521,-0.0
 0134019,0.01923016,0.00236535,0.00066176,0.00006412,-0.00013195,-0.001
 13008,0.00164482,-0.00002233,0.00035827,-0.00243772,0.00029473,0.10413
 955,1.18039702,-0.00441677,-0.00268101,-0.04365303,0.00325754,0.000767
 73,-0.01617610,-0.00004434,-0.00116034,0.00422088,-0.00063523,-0.00091
 362,0.00511045,-0.00201348,0.00239909,-0.01449599,0.00006181,-0.000136
 30,0.00241231,-0.00012706,-0.00006597,0.00206255,0.00012031,-0.0000419
 1,0.00044052,0.00834642,-0.00737663,0.20768073,-0.06374947,-0.02219738
 ,-0.00190050,0.00122927,-0.00436418,-0.00011635,-0.00606594,-0.0018378
 1,-0.00045411,-0.00508902,0.00332722,-0.00009667,0.00267125,0.01034280
 ,0.00097588,-0.00027607,0.00014276,-0.00000891,-0.00046049,0.00079533,
 0.00001537,-0.00334830,-0.00212853,-0.00043132,-0.28351755,-0.11089509
 ,-0.00651972,0.40347704,-0.00458197,0.01023973,-0.00040447,0.00469871,
 -0.00230615,-0.00006376,-0.00580430,0.00121418,-0.00015558,0.00042197,
 0.00457094,0.00041441,0.00617583,0.00232585,0.00014047,-0.00035453,0.0
 0005765,-0.00000657,0.00012169,0.00019381,0.00006015,-0.00478459,-0.00
 124878,-0.00073366,-0.13907837,-0.21859936,0.00011070,0.11001253,0.705
 70920,-0.00184791,-0.00011575,0.01236908,0.00037263,-0.00056446,0.0008
 8572,-0.00042117,-0.00001804,0.00063026,-0.00004281,0.00048045,-0.0004
 1704,0.00036269,-0.00020243,0.00440094,-0.00001443,0.00001066,-0.00028
 444,0.00005929,0.00008319,-0.00087619,-0.00021457,0.00067022,-0.000747
 24,-0.00386486,0.00218740,-0.05490175,0.01229069,-0.03107644,0.0308705
 6,-0.00999241,0.05261597,-0.00043956,-0.00459757,-0.00322069,-0.001131
 37,-0.00410123,0.00332583,0.00020661,0.00101445,0.00417649,0.00038664,
 0.00232900,0.00410061,-0.00012276,-0.00068381,0.00013114,0.00008895,-0
 .00003673,-0.00004421,0.00000310,-0.00160743,-0.00062498,-0.00020572,-
 0.09877891,0.03068158,-0.00086523,0.00810357,-0.06525294,0.00126386,0.
 11211767,0.04128255,-0.06355497,0.00045107,0.00612792,0.00865139,0.001
 06786,0.00626907,-0.00014047,0.00019181,0.00389036,-0.00630232,-0.0002
 7281,-0.01126196,-0.00103946,-0.00065775,0.00086324,0.00021465,0.00001
 994,0.00025379,-0.00017274,-0.00002075,-0.00013695,0.00100575,-0.00013
 979,0.02703453,-0.82485774,0.00924182,-0.04070756,-0.08778292,0.000697
 10,-0.02843816,0.96677950,-0.00000114,0.00144452,0.01612983,-0.0009828
 0,-0.00014165,0.00532135,0.00028232,0.00044611,-0.00073276,0.00024240,
 -0.00015532,-0.00018986,-0.00044664,-0.00000397,0.00175533,-0.00000541
 ,0.00007961,-0.00088791,0.00000211,0.00000007,-0.00018970,-0.00000021,
 -0.00001002,-0.00007048,-0.00113952,0.00842407,-0.08282056,0.00101918,
 -0.00022695,0.01852699,0.00147814,-0.01030099,0.03635383,-0.00011989,0
 .00173298,0.00008487,-0.00598174,-0.00456698,0.00044459,0.00141234,-0.
 00138697,-0.00001717,0.00000274,-0.00093854,-0.00011478,-0.00189657,-0
 .00224275,-0.00027881,0.00013928,0.00003054,0.00001697,-0.00001724,-0.
 00023168,-0.00003019,-0.47711988,0.09149677,0.14338414,-0.00395286,0.0
 0181443,-0.00004769,0.00680989,-0.00255865,0.00120356,0.00103133,-0.00
 084248,-0.00006392,0.70768022,-0.00323747,0.00114643,0.00006743,-0.006
 03287,-0.00335904,0.00005807,-0.00104184,-0.00179922,-0.00018611,-0.00
 112126,0.00078352,0.00000577,0.00030634,0.00059580,-0.00003974,-0.0002
 7891,0.00000736,0.00002193,-0.00005556,-0.00007814,0.00000313,0.061740
 44,-0.03886567,-0.04412167,0.01826773,0.00566926,0.00045823,-0.0114956
 4,-0.03960612,-0.00014462,-0.00421210,-0.00640678,0.00007908,0.0753008
 9,0.22191396,0.00020721,-0.00021754,0.00011910,-0.00127519,-0.00107139
 ,0.00339225,0.00016757,0.00015978,-0.00000456,0.00008825,-0.00006807,-
 0.00022824,-0.00010545,-0.00015923,-0.00030494,0.00004125,0.00001408,-
 0.00001945,0.00000443,-0.00000137,-0.00006678,0.10000283,-0.04177642,-
 0.06345003,-0.00134189,-0.00062321,0.00013698,0.00152140,-0.00095204,0
 .00517390,0.00022889,0.00033852,-0.00014472,0.06197146,0.22401454,0.28
 782723,-0.00032699,-0.00017081,0.00010854,-0.00080830,-0.00095398,0.00
 054466,0.00000747,-0.00020270,-0.00002142,-0.00008386,-0.00009822,-0.0
 0002998,-0.00003503,-0.00001747,-0.00010110,-0.00007102,0.00000625,-0.
 00001199,0.00000063,-0.00000991,-0.00000967,-0.01706646,-0.02460606,-0
 .03134648,-0.00110350,-0.00097195,-0.00009303,0.00017962,0.00364367,-0
 .00051020,0.00021131,0.00072241,0.00003565,-0.21488858,-0.13109184,-0.
 15961928,0.23313694,0.00043043,-0.00018042,-0.00008389,-0.00072686,0.0
 0058337,0.00030419,-0.00012584,-0.00008602,0.00003745,-0.00001277,-0.0
 0005130,-0.00005565,0.00001242,0.00005711,0.00002367,-0.00001000,0.000
 01286,0.00001827,0.00000623,-0.00000080,-0.00001162,0.00878117,0.00278
 941,0.00482605,-0.00050444,-0.00088333,0.00007742,0.00109774,-0.002347
 80,0.00151383,0.00000131,0.00019823,-0.00007721,-0.16475683,-0.1623171
 6,-0.18231833,0.15949373,0.15832891,0.00013931,-0.00003580,-0.00002087
 ,0.00104612,0.00072717,-0.00012294,-0.00003727,0.00013074,0.00001193,0
 .00005014,0.00004960,0.00001031,0.00014783,0.00020483,0.00003846,-0.00
 001487,-0.00002243,0.00003427,0.00000556,0.00002165,0.00001387,0.01164
 021,0.00550064,0.00552762,-0.00004537,-0.00014163,0.00009490,-0.000449
 76,0.00216634,-0.00037075,0.00003840,0.00019352,-0.00005225,-0.2033145
 0,-0.18623132,-0.22138841,0.18986561,0.18071369,0.21588973,-0.00421656
 ,-0.00242581,-0.00040759,-0.00055209,-0.00198269,-0.00016409,-0.000960
 09,0.00155183,-0.00007607,0.00066881,0.00066511,0.00019780,0.00171024,
 0.00058711,0.00007168,0.00003662,-0.00000805,-0.00003146,0.00004617,0.
 00016791,0.00004272,0.00112948,0.00900954,0.00019172,0.00963113,-0.035
 09663,0.00297647,-0.05996379,0.09734096,-0.00863676,-0.00500923,-0.005
 05676,-0.00042016,-0.01309904,0.00295211,-0.00189147,0.00084780,-0.003
 68629,0.00092858,0.06973056,0.00841129,0.00169474,0.00039623,-0.001064
 89,0.00178012,0.00033479,0.00450935,0.00050507,0.00018178,0.00216054,-
 0.00319144,-0.00011865,-0.00369893,-0.00463006,-0.00069988,0.00040760,
 -0.00000178,0.00001685,0.00015112,-0.00032190,-0.00000338,0.00843918,-
 0.00193445,0.00100316,-0.03137103,-0.02693705,-0.00067920,0.06790779,-
 0.37242022,0.02647888,0.00676014,0.01340789,0.00044265,0.00714927,0.02
 231581,0.00266067,-0.00574312,0.00389694,-0.00327699,-0.06401832,0.365
 83633,0.00003793,-0.00011021,0.00048240,-0.00022376,0.00045221,-0.0009
 6816,0.00003134,-0.00015039,-0.00049072,-0.00014666,-0.00012423,0.0004
 0500,-0.00025063,0.00000858,-0.00059705,0.00000121,0.00001511,-0.00007
 364,-0.00002721,-0.00002930,0.00016945,0.00119123,-0.00272640,0.002413
 74,0.00099285,-0.00156371,-0.01011191,-0.00584515,0.03072740,-0.015260
 03,-0.00092994,-0.00080953,0.00700092,-0.00323852,0.00601526,-0.011042
 32,0.00118870,-0.00496788,0.00033415,0.00721862,-0.02673690,0.02773817
 \\-0.00001649,-0.00002400,-0.00000544,0.00001117,0.00000443,0.00000702
 ,-0.00001691,-0.00002064,-0.00000386,-0.00000619,0.00001861,-0.0000036
 7,0.00000460,0.00000300,0.00000721,0.00000414,0.00000185,-0.00000104,0
 .00000036,-0.00000533,-0.00000115,-0.00003306,0.00002778,0.00000156,0.
 00004986,0.00007873,-0.00000092,-0.00002631,-0.00005461,-0.00000679,-0
 .00000493,-0.00003094,-0.00000065,0.00001907,-0.00003041,0.00000671,0.
 00000386,0.00000232,-0.00000750,0.00001083,0.00002922,0.00000852\\\@


 A true friend is someone who is there for
 you when he'd rather be anywhere else.
                               -- Len Wein
 Job cpu time:       0 days  0 hours 20 minutes 42.6 seconds.
 Elapsed time:       0 days  0 hours  0 minutes 52.3 seconds.
 File lengths (MBytes):  RWF=     66 Int=      0 D2E=      0 Chk=      4 Scr=      1
 Normal termination of Gaussian 16 at Thu May 25 04:32:15 2023.
