 Entering Gaussian System, Link 0=/opt/soft/g16/g16
 Initial command:
 /opt/soft/g16/l1.exe "/scratch/gongke2021/PC/Gau-36481.inp" -scrdir="/scratch/gongke2021/PC/"
 Entering Link 1 = /opt/soft/g16/l1.exe PID=     36482.
  
 Copyright (c) 1988,1990,1992,1993,1995,1998,2003,2009,2016,
            Gaussian, Inc.  All Rights Reserved.
  
 This is part of the Gaussian(R) 16 program.  It is based on
 the Gaussian(R) 09 system (copyright 2009, Gaussian, Inc.),
 the Gaussian(R) 03 system (copyright 2003, Gaussian, Inc.),
 the Gaussian(R) 98 system (copyright 1998, Gaussian, Inc.),
 the Gaussian(R) 94 system (copyright 1995, Gaussian, Inc.),
 the Gaussian 92(TM) system (copyright 1992, Gaussian, Inc.),
 the Gaussian 90(TM) system (copyright 1990, Gaussian, Inc.),
 the Gaussian 88(TM) system (copyright 1988, Gaussian, Inc.),
 the Gaussian 86(TM) system (copyright 1986, Carnegie Mellon
 University), and the Gaussian 82(TM) system (copyright 1983,
 Carnegie Mellon University). Gaussian is a federally registered
 trademark of Gaussian, Inc.
  
 This software contains proprietary and confidential information,
 including trade secrets, belonging to Gaussian, Inc.
  
 This software is provided under written license and may be
 used, copied, transmitted, or stored only in accord with that
 written license.
  
 The following legend is applicable only to US Government
 contracts under FAR:
  
                    RESTRICTED RIGHTS LEGEND
  
 Use, reproduction and disclosure by the US Government is
 subject to restrictions as set forth in subparagraphs (a)
 and (c) of the Commercial Computer Software - Restricted
 Rights clause in FAR 52.227-19.
  
 Gaussian, Inc.
 340 Quinnipiac St., Bldg. 40, Wallingford CT 06492
  
  
 ---------------------------------------------------------------
 Warning -- This program may not be used in any manner that
 competes with the business of Gaussian, Inc. or will provide
 assistance to any competitor of Gaussian, Inc.  The licensee
 of this program is prohibited from giving any competitor of
 Gaussian, Inc. access to this program.  By using this program,
 the user acknowledges that Gaussian, Inc. is engaged in the
 business of creating and licensing software in the field of
 computational chemistry and represents and warrants to the
 licensee that it is not a competitor of Gaussian, Inc. and that
 it will not use this program in any manner prohibited above.
 ---------------------------------------------------------------
  

 Cite this work as:
 Gaussian 16, Revision A.03,
 M. J. Frisch, G. W. Trucks, H. B. Schlegel, G. E. Scuseria, 
 M. A. Robb, J. R. Cheeseman, G. Scalmani, V. Barone, 
 G. A. Petersson, H. Nakatsuji, X. Li, M. Caricato, A. V. Marenich, 
 J. Bloino, B. G. Janesko, R. Gomperts, B. Mennucci, H. P. Hratchian, 
 J. V. Ortiz, A. F. Izmaylov, J. L. Sonnenberg, D. Williams-Young, 
 F. Ding, F. Lipparini, F. Egidi, J. Goings, B. Peng, A. Petrone, 
 T. Henderson, D. Ranasinghe, V. G. Zakrzewski, J. Gao, N. Rega, 
 G. Zheng, W. Liang, M. Hada, M. Ehara, K. Toyota, R. Fukuda, 
 J. Hasegawa, M. Ishida, T. Nakajima, Y. Honda, O. Kitao, H. Nakai, 
 T. Vreven, K. Throssell, J. A. Montgomery, Jr., J. E. Peralta, 
 F. Ogliaro, M. J. Bearpark, J. J. Heyd, E. N. Brothers, K. N. Kudin, 
 V. N. Staroverov, T. A. Keith, R. Kobayashi, J. Normand, 
 K. Raghavachari, A. P. Rendell, J. C. Burant, S. S. Iyengar, 
 J. Tomasi, M. Cossi, J. M. Millam, M. Klene, C. Adamo, R. Cammi, 
 J. W. Ochterski, R. L. Martin, K. Morokuma, O. Farkas, 
 J. B. Foresman, and D. J. Fox, Gaussian, Inc., Wallingford CT, 2016.
 
 ******************************************
 Gaussian 16:  ES64L-G16RevA.03 25-Dec-2016
                27-May-2023 
 ******************************************
 %mem=10GB
 %nprocshared=30
 Will use up to   30 processors via shared memory.
 ----------------------------
 # opt freq 6-31+g(d,p) m062x
 ----------------------------
 1/18=20,19=15,26=3,38=1/1,3;
 2/9=110,12=2,17=6,18=5,40=1/2;
 3/5=1,6=6,7=111,11=2,25=1,30=1,71=1,74=-55/1,2,3;
 4//1;
 5/5=2,38=5/2;
 6/7=2,8=2,9=2,10=2,28=1/1;
 7//1,2,3,16;
 1/18=20,19=15,26=3/3(2);
 2/9=110/2;
 99//99;
 2/9=110/2;
 3/5=1,6=6,7=111,11=2,25=1,30=1,71=1,74=-55/1,2,3;
 4/5=5,16=3,69=1/1;
 5/5=2,38=5/2;
 7//1,2,3,16;
 1/18=20,19=15,26=3/3(-5);
 2/9=110/2;
 6/7=2,8=2,9=2,10=2,19=2,28=1/1;
 99/9=1/99;
 --
 TS
 --
 Symbolic Z-matrix:
 Charge = -1 Multiplicity = 2
 N                     0.85817   0.18564  -0.12794 
 N                     0.04054  -0.90599   0.18185 
 C                     0.92806  -1.95472   0.32669 
 C                     2.199    -1.44703   0.19317 
 N                     2.19337  -0.12606  -0.06572 
 H                     0.56662  -2.95527   0.5028 
 H                     3.141    -1.9704    0.28098 
 H                    -1.32256  -1.33981  -0.47739 
 C                     0.4242    1.52417  -0.09988 
 O                    -0.86242   1.72093   0.07567 
 O                     1.22283   2.42201  -0.29075 
 O                    -2.715     0.24948   0.76236 
 H                    -2.58713  -0.18456   1.61162 
 H                    -1.35706   0.81373   0.46249 
 O                    -2.22191  -1.39033  -0.91858 
 H                    -2.40402  -1.09143  -1.81414 
 H                    -2.68062  -0.45587   0.0795 
 
 Add virtual bond connecting atoms H17        and O15        Dist= 2.73D+00.
 Add virtual bond connecting atoms N2         and H8         Dist= 2.98D+00.
 Add virtual bond connecting atoms H14        and O12        Dist= 2.84D+00.

 GradGradGradGradGradGradGradGradGradGradGradGradGradGradGradGradGradGrad
 Berny optimization.
 Initialization pass.
                           ----------------------------
                           !    Initial Parameters    !
                           ! (Angstroms and Degrees)  !
 --------------------------                            --------------------------
 ! Name  Definition              Value          Derivative Info.                !
 --------------------------------------------------------------------------------
 ! R1    R(1,2)                  1.3986         estimate D2E/DX2                !
 ! R2    R(1,5)                  1.3725         estimate D2E/DX2                !
 ! R3    R(1,9)                  1.4074         estimate D2E/DX2                !
 ! R4    R(2,3)                  1.3815         estimate D2E/DX2                !
 ! R5    R(2,8)                  1.5751         estimate D2E/DX2                !
 ! R6    R(3,4)                  1.3751         estimate D2E/DX2                !
 ! R7    R(3,6)                  1.0783         estimate D2E/DX2                !
 ! R8    R(4,5)                  1.3461         estimate D2E/DX2                !
 ! R9    R(4,7)                  1.0812         estimate D2E/DX2                !
 ! R10   R(8,15)                 1.003          estimate D2E/DX2                !
 ! R11   R(9,10)                 1.3134         estimate D2E/DX2                !
 ! R12   R(9,11)                 1.2167         estimate D2E/DX2                !
 ! R13   R(10,14)                1.1033         estimate D2E/DX2                !
 ! R14   R(12,13)                0.9623         estimate D2E/DX2                !
 ! R15   R(12,14)                1.5008         estimate D2E/DX2                !
 ! R16   R(12,17)                0.9823         estimate D2E/DX2                !
 ! R17   R(15,16)                0.9615         estimate D2E/DX2                !
 ! R18   R(15,17)                1.4421         estimate D2E/DX2                !
 ! A1    A(2,1,5)              112.4214         estimate D2E/DX2                !
 ! A2    A(2,1,9)              123.8921         estimate D2E/DX2                !
 ! A3    A(5,1,9)              121.0008         estimate D2E/DX2                !
 ! A4    A(1,2,3)              103.8958         estimate D2E/DX2                !
 ! A5    A(1,2,8)              128.9168         estimate D2E/DX2                !
 ! A6    A(3,2,8)              113.0029         estimate D2E/DX2                !
 ! A7    A(2,3,4)              107.6574         estimate D2E/DX2                !
 ! A8    A(2,3,6)              120.409          estimate D2E/DX2                !
 ! A9    A(4,3,6)              131.9317         estimate D2E/DX2                !
 ! A10   A(3,4,5)              112.1555         estimate D2E/DX2                !
 ! A11   A(3,4,7)              128.219          estimate D2E/DX2                !
 ! A12   A(5,4,7)              119.6221         estimate D2E/DX2                !
 ! A13   A(1,5,4)              103.6295         estimate D2E/DX2                !
 ! A14   A(1,9,10)             116.5654         estimate D2E/DX2                !
 ! A15   A(1,9,11)             119.7552         estimate D2E/DX2                !
 ! A16   A(10,9,11)            123.6032         estimate D2E/DX2                !
 ! A17   A(9,10,14)            111.2767         estimate D2E/DX2                !
 ! A18   A(13,12,14)           103.0436         estimate D2E/DX2                !
 ! A19   A(13,12,17)           106.5575         estimate D2E/DX2                !
 ! A20   A(14,12,17)            95.7045         estimate D2E/DX2                !
 ! A21   A(10,14,12)           141.7072         estimate D2E/DX2                !
 ! A22   A(8,15,16)            124.3222         estimate D2E/DX2                !
 ! A23   A(8,15,17)             87.0282         estimate D2E/DX2                !
 ! A24   A(16,15,17)           112.5154         estimate D2E/DX2                !
 ! A25   A(12,17,15)           163.2304         estimate D2E/DX2                !
 ! A26   L(2,8,15,12,-1)       171.0832         estimate D2E/DX2                !
 ! A27   L(2,8,15,12,-2)       170.2292         estimate D2E/DX2                !
 ! D1    D(5,1,2,3)             -5.1517         estimate D2E/DX2                !
 ! D2    D(5,1,2,8)           -140.97           estimate D2E/DX2                !
 ! D3    D(9,1,2,3)           -166.6646         estimate D2E/DX2                !
 ! D4    D(9,1,2,8)             57.5171         estimate D2E/DX2                !
 ! D5    D(2,1,5,4)              4.202          estimate D2E/DX2                !
 ! D6    D(9,1,5,4)            166.3189         estimate D2E/DX2                !
 ! D7    D(2,1,9,10)            -8.2582         estimate D2E/DX2                !
 ! D8    D(2,1,9,11)           174.8006         estimate D2E/DX2                !
 ! D9    D(5,1,9,10)          -168.2614         estimate D2E/DX2                !
 ! D10   D(5,1,9,11)            14.7973         estimate D2E/DX2                !
 ! D11   D(1,2,3,4)              3.9153         estimate D2E/DX2                !
 ! D12   D(1,2,3,6)           -175.6525         estimate D2E/DX2                !
 ! D13   D(8,2,3,4)            147.8222         estimate D2E/DX2                !
 ! D14   D(8,2,3,6)            -31.7457         estimate D2E/DX2                !
 ! D15   D(1,2,15,16)           27.6541         estimate D2E/DX2                !
 ! D16   D(1,2,15,17)          -83.8313         estimate D2E/DX2                !
 ! D17   D(3,2,15,16)         -106.5697         estimate D2E/DX2                !
 ! D18   D(3,2,15,17)          141.9449         estimate D2E/DX2                !
 ! D19   D(2,3,4,5)             -1.5842         estimate D2E/DX2                !
 ! D20   D(2,3,4,7)            177.7311         estimate D2E/DX2                !
 ! D21   D(6,3,4,5)            177.9148         estimate D2E/DX2                !
 ! D22   D(6,3,4,7)             -2.7699         estimate D2E/DX2                !
 ! D23   D(3,4,5,1)             -1.5496         estimate D2E/DX2                !
 ! D24   D(7,4,5,1)            179.0692         estimate D2E/DX2                !
 ! D25   D(1,9,10,14)           16.5186         estimate D2E/DX2                !
 ! D26   D(11,9,10,14)        -166.6698         estimate D2E/DX2                !
 ! D27   D(9,10,14,12)        -172.1167         estimate D2E/DX2                !
 ! D28   D(13,12,14,10)       -137.289          estimate D2E/DX2                !
 ! D29   D(17,12,14,10)        114.2221         estimate D2E/DX2                !
 ! D30   D(13,12,17,15)        -90.7055         estimate D2E/DX2                !
 ! D31   D(14,12,17,15)         14.7403         estimate D2E/DX2                !
 ! D32   D(8,15,17,12)          25.1093         estimate D2E/DX2                !
 ! D33   D(16,15,17,12)       -101.0245         estimate D2E/DX2                !
 --------------------------------------------------------------------------------
 Trust Radius=3.00D-01 FncErr=1.00D-07 GrdErr=1.00D-06 EigMax=2.50D+02 EigMin=1.00D-04
 Number of steps in this run=     88 maximum allowed number of steps=    102.
 GradGradGradGradGradGradGradGradGradGradGradGradGradGradGradGradGradGrad

                          Input orientation:                          
 ---------------------------------------------------------------------
 Center     Atomic      Atomic             Coordinates (Angstroms)
 Number     Number       Type             X           Y           Z
 ---------------------------------------------------------------------
      1          7           0        0.858172    0.185639   -0.127936
      2          7           0        0.040536   -0.905993    0.181849
      3          6           0        0.928058   -1.954724    0.326691
      4          6           0        2.198995   -1.447034    0.193174
      5          7           0        2.193369   -0.126057   -0.065719
      6          1           0        0.566619   -2.955267    0.502800
      7          1           0        3.141002   -1.970397    0.280982
      8          1           0       -1.322555   -1.339809   -0.477395
      9          6           0        0.424201    1.524165   -0.099875
     10          8           0       -0.862417    1.720926    0.075670
     11          8           0        1.222833    2.422010   -0.290746
     12          8           0       -2.715000    0.249478    0.762362
     13          1           0       -2.587131   -0.184555    1.611615
     14          1           0       -1.357062    0.813726    0.462490
     15          8           0       -2.221910   -1.390325   -0.918576
     16          1           0       -2.404018   -1.091426   -1.814140
     17          1           0       -2.680624   -0.455868    0.079502
 ---------------------------------------------------------------------
                    Distance matrix (angstroms):
                    1          2          3          4          5
     1  N    0.000000
     2  N    1.398626   0.000000
     3  C    2.189229   1.381489   0.000000
     4  C    2.136946   2.225264   1.375084   0.000000
     5  N    1.372507   2.303102   2.258101   1.346119   0.000000
     6  H    3.216850   2.139929   1.078304   2.243944   3.312697
     7  H    3.166547   3.279584   2.213472   1.081201   2.102332
     8  H    2.684154   1.575061   2.467779   3.586430   3.742245
     9  C    1.407398   2.476335   3.540974   3.473297   2.419577
    10  O    2.314949   2.779802   4.096244   4.407042   3.573397
    11  O    2.271748   3.563254   4.429890   4.019524   2.735914
    12  O    3.682969   3.043861   4.280209   5.229673   4.991876
    13  H    3.877266   3.077229   4.140179   5.149061   5.066562
    14  H    2.377048   2.233713   3.592288   4.222453   3.710493
    15  O    3.549039   2.562065   3.433880   4.558904   4.671234
    16  H    3.887938   3.161361   4.053538   5.034232   5.012472
    17  H    3.602449   2.760036   3.915387   4.980564   4.887297
                    6          7          8          9         10
     6  H    0.000000
     7  H    2.765252   0.000000
     8  H    2.671978   4.571228   0.000000
     9  C    4.522036   4.442750   3.375800   0.000000
    10  O    4.908296   5.449347   3.144154   1.313361   0.000000
    11  O    5.474983   4.826954   4.545890   1.216705   2.230257
    12  O    4.594212   6.281109   2.449843   3.496121   2.463487
    13  H    4.341941   6.145838   2.701430   3.862259   2.994098
    14  H    4.231723   5.293096   2.349954   1.998468   1.103320
    15  O    3.499321   5.525961   1.003011   4.020750   3.537885
    16  H    4.203189   5.992443   1.737280   4.216497   3.722531
    17  H    4.119559   6.018781   1.713428   3.686820   2.836252
                   11         12         13         14         15
    11  O    0.000000
    12  O    4.619032   0.000000
    13  H    4.992893   0.962271   0.000000
    14  H    3.132060   1.500765   1.957070   0.000000
    15  O    5.176323   2.399509   2.826506   2.741012   0.000000
    16  H    5.274373   2.921146   3.548485   3.147819   0.961529
    17  H    4.863768   0.982340   1.558757   1.873597   1.442147
                   16         17
    16  H    0.000000
    17  H    2.016513   0.000000
 Stoichiometry    C3H7N3O4(1-,2)
 Framework group  C1[X(C3H7N3O4)]
 Deg. of freedom    45
 Full point group                 C1      NOp   1
 Largest Abelian subgroup         C1      NOp   1
 Largest concise Abelian subgroup C1      NOp   1
                         Standard orientation:                         
 ---------------------------------------------------------------------
 Center     Atomic      Atomic             Coordinates (Angstroms)
 Number     Number       Type             X           Y           Z
 ---------------------------------------------------------------------
      1          7           0       -0.865092    0.176039    0.129250
      2          7           0       -0.029656   -0.901903   -0.180980
      3          6           0       -0.899898   -1.964892   -0.326737
      4          6           0       -2.178991   -1.478103   -0.193274
      5          7           0       -2.195005   -0.157374    0.066447
      6          1           0       -0.522123   -2.959290   -0.503367
      7          1           0       -3.112304   -2.016719   -0.281685
      8          1           0        1.340150   -1.313823    0.478391
      9          6           0       -0.453023    1.521489    0.102153
     10          8           0        0.830260    1.739339   -0.072893
     11          8           0       -1.266261    2.406056    0.293353
     12          8           0        2.706812    0.298765   -0.759964
     13          1           0        2.586286   -0.136762   -1.609526
     14          1           0        1.339759    0.840580   -0.460135
     15          8           0        2.240085   -1.349929    0.919803
     16          1           0        2.417037   -1.048661    1.815607
     17          1           0        2.683764   -0.407478   -0.077555
 ---------------------------------------------------------------------
 Rotational constants (GHZ):           1.5136287           1.1278001           0.7069298
 Standard basis: 6-31+G(d,p) (6D, 7F)
 There are   225 symmetry adapted cartesian basis functions of A   symmetry.
 There are   225 symmetry adapted basis functions of A   symmetry.
   225 basis functions,   369 primitive gaussians,   225 cartesian basis functions
    40 alpha electrons       39 beta electrons
       nuclear repulsion energy       565.4636387217 Hartrees.
 NAtoms=   17 NActive=   17 NUniq=   17 SFac= 1.00D+00 NAtFMM=   60 NAOKFM=F Big=F
 Integral buffers will be    131072 words long.
 Raffenetti 2 integral format.
 Two-electron integral symmetry is turned on.
 One-electron integrals computed using PRISM.
 NBasis=   225 RedAO= T EigKep=  3.47D-05  NBF=   225
 NBsUse=   225 1.00D-06 EigRej= -1.00D+00 NBFU=   225
 ExpMin= 4.38D-02 ExpMax= 5.48D+03 ExpMxC= 8.25D+02 IAcc=3 IRadAn=         5 AccDes= 0.00D+00
 Harris functional with IExCor= 1009 and IRadAn=       5 diagonalized for initial guess.
 HarFok:  IExCor= 1009 AccDes= 0.00D+00 IRadAn=         5 IDoV= 1 UseB2=F ITyADJ=14
 ICtDFT=  3500011 ScaDFX=  1.000000  1.000000  1.000000  1.000000
 FoFCou: FMM=F IPFlag=           0 FMFlag=      100000 FMFlg1=           0
         NFxFlg=           0 DoJE=T BraDBF=F KetDBF=T FulRan=T
         wScrn=  0.000000 ICntrl=       500 IOpCl=  0 I1Cent=   200000004 NGrid=           0
         NMat0=    1 NMatS0=      1 NMatT0=    0 NMatD0=    1 NMtDS0=    0 NMtDT0=    0
 Petite list used in FoFCou.
 Initial guess <Sx>= 0.0000 <Sy>= 0.0000 <Sz>= 0.5000 <S**2>= 0.7500 S= 0.5000
 Requested convergence on RMS density matrix=1.00D-08 within 128 cycles.
 Requested convergence on MAX density matrix=1.00D-06.
 Requested convergence on             energy=1.00D-06.
 No special actions if energy rises.
 SCF Done:  E(UM062X) =  -583.463775055     A.U. after   18 cycles
            NFock= 18  Conv=0.72D-08     -V/T= 2.0079
 <Sx>= 0.0000 <Sy>= 0.0000 <Sz>= 0.5000 <S**2>= 0.7649 S= 0.5074
 <L.S>=  0.00000000000    
 Annihilation of the first spin contaminant:
 S**2 before annihilation     0.7649,   after     0.7501

 **********************************************************************

            Population analysis using the SCF density.

 **********************************************************************

 Orbital symmetries:
 Alpha Orbitals:
       Occupied  (A) (A) (A) (A) (A) (A) (A) (A) (A) (A) (A) (A)
                 (A) (A) (A) (A) (A) (A) (A) (A) (A) (A) (A) (A)
                 (A) (A) (A) (A) (A) (A) (A) (A) (A) (A) (A) (A)
                 (A) (A) (A) (A)
       Virtual   (A) (A) (A) (A) (A) (A) (A) (A) (A) (A) (A) (A)
                 (A) (A) (A) (A) (A) (A) (A) (A) (A) (A) (A) (A)
                 (A) (A) (A) (A) (A) (A) (A) (A) (A) (A) (A) (A)
                 (A) (A) (A) (A) (A) (A) (A) (A) (A) (A) (A) (A)
                 (A) (A) (A) (A) (A) (A) (A) (A) (A) (A) (A) (A)
                 (A) (A) (A) (A) (A) (A) (A) (A) (A) (A) (A) (A)
                 (A) (A) (A) (A) (A) (A) (A) (A) (A) (A) (A) (A)
                 (A) (A) (A) (A) (A) (A) (A) (A) (A) (A) (A) (A)
                 (A) (A) (A) (A) (A) (A) (A) (A) (A) (A) (A) (A)
                 (A) (A) (A) (A) (A) (A) (A) (A) (A) (A) (A) (A)
                 (A) (A) (A) (A) (A) (A) (A) (A) (A) (A) (A) (A)
                 (A) (A) (A) (A) (A) (A) (A) (A) (A) (A) (A) (A)
                 (A) (A) (A) (A) (A) (A) (A) (A) (A) (A) (A) (A)
                 (A) (A) (A) (A) (A) (A) (A) (A) (A) (A) (A) (A)
                 (A) (A) (A) (A) (A) (A) (A) (A) (A) (A) (A) (A)
                 (A) (A) (A) (A) (A)
 Beta  Orbitals:
       Occupied  (A) (A) (A) (A) (A) (A) (A) (A) (A) (A) (A) (A)
                 (A) (A) (A) (A) (A) (A) (A) (A) (A) (A) (A) (A)
                 (A) (A) (A) (A) (A) (A) (A) (A) (A) (A) (A) (A)
                 (A) (A) (A)
       Virtual   (A) (A) (A) (A) (A) (A) (A) (A) (A) (A) (A) (A)
                 (A) (A) (A) (A) (A) (A) (A) (A) (A) (A) (A) (A)
                 (A) (A) (A) (A) (A) (A) (A) (A) (A) (A) (A) (A)
                 (A) (A) (A) (A) (A) (A) (A) (A) (A) (A) (A) (A)
                 (A) (A) (A) (A) (A) (A) (A) (A) (A) (A) (A) (A)
                 (A) (A) (A) (A) (A) (A) (A) (A) (A) (A) (A) (A)
                 (A) (A) (A) (A) (A) (A) (A) (A) (A) (A) (A) (A)
                 (A) (A) (A) (A) (A) (A) (A) (A) (A) (A) (A) (A)
                 (A) (A) (A) (A) (A) (A) (A) (A) (A) (A) (A) (A)
                 (A) (A) (A) (A) (A) (A) (A) (A) (A) (A) (A) (A)
                 (A) (A) (A) (A) (A) (A) (A) (A) (A) (A) (A) (A)
                 (A) (A) (A) (A) (A) (A) (A) (A) (A) (A) (A) (A)
                 (A) (A) (A) (A) (A) (A) (A) (A) (A) (A) (A) (A)
                 (A) (A) (A) (A) (A) (A) (A) (A) (A) (A) (A) (A)
                 (A) (A) (A) (A) (A) (A) (A) (A) (A) (A) (A) (A)
                 (A) (A) (A) (A) (A) (A)
 The electronic state is 2-A.
 Alpha  occ. eigenvalues --  -19.51747 -19.51737 -19.50560 -19.44614 -14.69064
 Alpha  occ. eigenvalues --  -14.62405 -14.61031 -10.53130 -10.41842 -10.41578
 Alpha  occ. eigenvalues --   -1.06762  -1.03223  -1.00771  -0.99075  -0.95440
 Alpha  occ. eigenvalues --   -0.80863  -0.77074  -0.59710  -0.53665  -0.53172
 Alpha  occ. eigenvalues --   -0.51173  -0.49755  -0.45828  -0.41000  -0.38781
 Alpha  occ. eigenvalues --   -0.37056  -0.36792  -0.34015  -0.33498  -0.32609
 Alpha  occ. eigenvalues --   -0.31366  -0.26888  -0.25568  -0.24494  -0.22277
 Alpha  occ. eigenvalues --   -0.20268  -0.19984  -0.18450  -0.17999   0.00020
 Alpha virt. eigenvalues --    0.13406   0.14234   0.15924   0.17206   0.18489
 Alpha virt. eigenvalues --    0.19026   0.19563   0.20569   0.21387   0.22150
 Alpha virt. eigenvalues --    0.22871   0.23927   0.25110   0.26152   0.27170
 Alpha virt. eigenvalues --    0.27919   0.29861   0.31168   0.32294   0.32703
 Alpha virt. eigenvalues --    0.33605   0.34539   0.35236   0.36088   0.36811
 Alpha virt. eigenvalues --    0.37306   0.38319   0.38461   0.38762   0.39941
 Alpha virt. eigenvalues --    0.40037   0.41166   0.42791   0.43285   0.44156
 Alpha virt. eigenvalues --    0.44609   0.45049   0.45178   0.45893   0.47306
 Alpha virt. eigenvalues --    0.47637   0.48962   0.50530   0.51177   0.52213
 Alpha virt. eigenvalues --    0.52823   0.53777   0.54971   0.56688   0.58189
 Alpha virt. eigenvalues --    0.58599   0.62120   0.62898   0.65805   0.67603
 Alpha virt. eigenvalues --    0.69659   0.79613   0.85965   0.90551   0.93246
 Alpha virt. eigenvalues --    0.98340   1.01197   1.02690   1.04820   1.06608
 Alpha virt. eigenvalues --    1.07298   1.09936   1.11779   1.13042   1.14981
 Alpha virt. eigenvalues --    1.16818   1.17980   1.18766   1.21494   1.23093
 Alpha virt. eigenvalues --    1.24036   1.25517   1.26169   1.27725   1.28620
 Alpha virt. eigenvalues --    1.33198   1.34458   1.36164   1.37697   1.39139
 Alpha virt. eigenvalues --    1.40210   1.40645   1.43870   1.46671   1.48257
 Alpha virt. eigenvalues --    1.49688   1.51177   1.52675   1.53508   1.54694
 Alpha virt. eigenvalues --    1.57078   1.57464   1.59921   1.60993   1.62241
 Alpha virt. eigenvalues --    1.64103   1.65987   1.66517   1.66963   1.73007
 Alpha virt. eigenvalues --    1.74938   1.76111   1.76803   1.79450   1.81767
 Alpha virt. eigenvalues --    1.83218   1.85972   1.89758   1.90072   1.96831
 Alpha virt. eigenvalues --    1.98857   2.00439   2.01973   2.05054   2.06933
 Alpha virt. eigenvalues --    2.10678   2.11376   2.16703   2.17866   2.19787
 Alpha virt. eigenvalues --    2.21097   2.25486   2.29178   2.30775   2.33348
 Alpha virt. eigenvalues --    2.40810   2.41600   2.42293   2.42802   2.45828
 Alpha virt. eigenvalues --    2.48250   2.50733   2.54390   2.57619   2.59591
 Alpha virt. eigenvalues --    2.62306   2.64300   2.69368   2.69894   2.73463
 Alpha virt. eigenvalues --    2.74513   2.77111   2.81179   2.84159   2.85252
 Alpha virt. eigenvalues --    2.86207   2.87500   2.90201   2.92060   2.94419
 Alpha virt. eigenvalues --    2.98869   3.02014   3.07364   3.10025   3.13670
 Alpha virt. eigenvalues --    3.17542   3.21340   3.23651   3.29374   3.30554
 Alpha virt. eigenvalues --    3.35047   3.41725   3.44822   3.50144   3.56433
 Alpha virt. eigenvalues --    3.65040   3.80754   3.85104   3.88518   3.98022
 Alpha virt. eigenvalues --    4.23060   4.43524   4.46273   4.51078   4.53276
 Alpha virt. eigenvalues --    4.61466   4.62967   4.75387   4.81931   4.85721
  Beta  occ. eigenvalues --  -19.51742 -19.51723 -19.50532 -19.44457 -14.68842
  Beta  occ. eigenvalues --  -14.61908 -14.60525 -10.53088 -10.41758 -10.41631
  Beta  occ. eigenvalues --   -1.06322  -1.03163  -1.00042  -0.98881  -0.95088
  Beta  occ. eigenvalues --   -0.79252  -0.76242  -0.58836  -0.53495  -0.52698
  Beta  occ. eigenvalues --   -0.50991  -0.49672  -0.44959  -0.39462  -0.38291
  Beta  occ. eigenvalues --   -0.36798  -0.36522  -0.33596  -0.33013  -0.31640
  Beta  occ. eigenvalues --   -0.30971  -0.26858  -0.25431  -0.23439  -0.20937
  Beta  occ. eigenvalues --   -0.19181  -0.17704  -0.15919  -0.15376
  Beta virt. eigenvalues --    0.12575   0.14057   0.15069   0.15423   0.16516
  Beta virt. eigenvalues --    0.18144   0.18417   0.19149   0.19830   0.20099
  Beta virt. eigenvalues --    0.21909   0.22601   0.23376   0.24218   0.26017
  Beta virt. eigenvalues --    0.27790   0.28310   0.29725   0.31114   0.32343
  Beta virt. eigenvalues --    0.32730   0.33509   0.34464   0.35182   0.36028
  Beta virt. eigenvalues --    0.36718   0.37387   0.37937   0.38470   0.38721
  Beta virt. eigenvalues --    0.39837   0.40047   0.41042   0.42749   0.43065
  Beta virt. eigenvalues --    0.43853   0.44312   0.44957   0.45078   0.46023
  Beta virt. eigenvalues --    0.47253   0.47698   0.48931   0.50142   0.51090
  Beta virt. eigenvalues --    0.52174   0.52687   0.53819   0.54712   0.56603
  Beta virt. eigenvalues --    0.58140   0.58660   0.62220   0.63011   0.65719
  Beta virt. eigenvalues --    0.67726   0.70004   0.79954   0.86061   0.90209
  Beta virt. eigenvalues --    0.93818   0.98515   1.01396   1.02859   1.04960
  Beta virt. eigenvalues --    1.06711   1.07509   1.10015   1.11941   1.13424
  Beta virt. eigenvalues --    1.16407   1.16887   1.18895   1.19431   1.22754
  Beta virt. eigenvalues --    1.23339   1.24332   1.25837   1.26319   1.27811
  Beta virt. eigenvalues --    1.29021   1.33017   1.34599   1.36312   1.37718
  Beta virt. eigenvalues --    1.39284   1.40376   1.40953   1.44078   1.47010
  Beta virt. eigenvalues --    1.48500   1.49893   1.51470   1.52832   1.53620
  Beta virt. eigenvalues --    1.55050   1.57186   1.57702   1.60378   1.61199
  Beta virt. eigenvalues --    1.62992   1.64578   1.66406   1.66792   1.67211
  Beta virt. eigenvalues --    1.73581   1.75063   1.76261   1.76972   1.79824
  Beta virt. eigenvalues --    1.82075   1.83395   1.86190   1.89881   1.90161
  Beta virt. eigenvalues --    1.97040   1.98946   2.00627   2.02163   2.05307
  Beta virt. eigenvalues --    2.07192   2.10949   2.11659   2.16995   2.18090
  Beta virt. eigenvalues --    2.20111   2.21539   2.26043   2.29415   2.31189
  Beta virt. eigenvalues --    2.33553   2.41657   2.41958   2.42520   2.43304
  Beta virt. eigenvalues --    2.46215   2.48688   2.50937   2.54537   2.57807
  Beta virt. eigenvalues --    2.59858   2.62785   2.64741   2.69672   2.70157
  Beta virt. eigenvalues --    2.73819   2.74844   2.77556   2.81496   2.84461
  Beta virt. eigenvalues --    2.85519   2.86608   2.87680   2.90498   2.92359
  Beta virt. eigenvalues --    2.94744   2.99239   3.02391   3.07866   3.10340
  Beta virt. eigenvalues --    3.14209   3.17775   3.21579   3.23682   3.29525
  Beta virt. eigenvalues --    3.30976   3.35191   3.41945   3.45253   3.50310
  Beta virt. eigenvalues --    3.56471   3.65054   3.80831   3.85159   3.88805
  Beta virt. eigenvalues --    3.98033   4.23340   4.43562   4.46282   4.51188
  Beta virt. eigenvalues --    4.53456   4.61681   4.63044   4.75738   4.82043
  Beta virt. eigenvalues --    4.86210
          Condensed to atoms (all electrons):
               1          2          3          4          5          6
     1  N    8.981104  -0.405626  -0.362874   0.384992  -1.206619  -0.001642
     2  N   -0.405626   8.220853  -0.203311   0.157705  -0.403566  -0.046827
     3  C   -0.362874  -0.203311   6.539356  -0.548277   0.544968   0.391276
     4  C    0.384992   0.157705  -0.548277   6.168961  -0.415519  -0.014602
     5  N   -1.206619  -0.403566   0.544968  -0.415519   8.950092  -0.005168
     6  H   -0.001642  -0.046827   0.391276  -0.014602  -0.005168   0.550687
     7  H   -0.000195   0.004725  -0.041876   0.404196  -0.062229   0.000310
     8  H   -0.011016   0.140921  -0.003748   0.000485   0.003702  -0.000880
     9  C    0.059743   0.119503  -0.064507   0.030289  -0.134916   0.000831
    10  O   -0.103871  -0.046125  -0.023244   0.009816  -0.009764   0.000085
    11  O   -0.098666  -0.007763   0.002032  -0.012263  -0.029679   0.000008
    12  O   -0.058812   0.060243   0.029614  -0.020946   0.008055  -0.000407
    13  H    0.004111  -0.007294   0.001782  -0.000760   0.000531   0.000013
    14  H   -0.035820   0.048392   0.002123   0.000007  -0.013196   0.000009
    15  O   -0.041856  -0.105278  -0.003059  -0.003960   0.001110   0.000676
    16  H    0.000395   0.004347   0.002038  -0.000202   0.000095  -0.000008
    17  H    0.009161  -0.009408  -0.001474   0.000996  -0.000536   0.000010
               7          8          9         10         11         12
     1  N   -0.000195  -0.011016   0.059743  -0.103871  -0.098666  -0.058812
     2  N    0.004725   0.140921   0.119503  -0.046125  -0.007763   0.060243
     3  C   -0.041876  -0.003748  -0.064507  -0.023244   0.002032   0.029614
     4  C    0.404196   0.000485   0.030289   0.009816  -0.012263  -0.020946
     5  N   -0.062229   0.003702  -0.134916  -0.009764  -0.029679   0.008055
     6  H    0.000310  -0.000880   0.000831   0.000085   0.000008  -0.000407
     7  H    0.577707  -0.000020   0.001359   0.000032  -0.000199  -0.000006
     8  H   -0.000020   0.245235  -0.002334  -0.001996   0.000363   0.006976
     9  C    0.001359  -0.002334   4.570487   0.242357   0.501329   0.001798
    10  O    0.000032  -0.001996   0.242357   8.484937  -0.095859  -0.090118
    11  O   -0.000199   0.000363   0.501329  -0.095859   8.280131  -0.005509
    12  O   -0.000006   0.006976   0.001798  -0.090118  -0.005509   8.546768
    13  H    0.000000  -0.000490  -0.000336   0.001185   0.000132   0.288782
    14  H   -0.000001  -0.001255   0.007455   0.166076   0.004587   0.029300
    15  O    0.000026   0.156889  -0.003076   0.009381  -0.000604  -0.149798
    16  H   -0.000000  -0.009751   0.000452  -0.001723   0.000040   0.009482
    17  H    0.000000  -0.000344  -0.001845   0.003458   0.000140   0.253704
              13         14         15         16         17
     1  N    0.004111  -0.035820  -0.041856   0.000395   0.009161
     2  N   -0.007294   0.048392  -0.105278   0.004347  -0.009408
     3  C    0.001782   0.002123  -0.003059   0.002038  -0.001474
     4  C   -0.000760   0.000007  -0.003960  -0.000202   0.000996
     5  N    0.000531  -0.013196   0.001110   0.000095  -0.000536
     6  H    0.000013   0.000009   0.000676  -0.000008   0.000010
     7  H    0.000000  -0.000001   0.000026  -0.000000   0.000000
     8  H   -0.000490  -0.001255   0.156889  -0.009751  -0.000344
     9  C   -0.000336   0.007455  -0.003076   0.000452  -0.001845
    10  O    0.001185   0.166076   0.009381  -0.001723   0.003458
    11  O    0.000132   0.004587  -0.000604   0.000040   0.000140
    12  O    0.288782   0.029300  -0.149798   0.009482   0.253704
    13  H    0.340891  -0.005547   0.008031   0.000007  -0.025453
    14  H   -0.005547   0.335169   0.011618  -0.000326  -0.005361
    15  O    0.008031   0.011618   8.720532   0.274805   0.019714
    16  H    0.000007  -0.000326   0.274805   0.332372  -0.005290
    17  H   -0.025453  -0.005361   0.019714  -0.005290   0.247232
          Atomic-Atomic Spin Densities.
               1          2          3          4          5          6
     1  N    0.589259  -0.212689  -0.027028   0.172466  -0.539487   0.000952
     2  N   -0.212689   0.713040  -0.272470  -0.066523   0.147137  -0.000463
     3  C   -0.027028  -0.272470   0.405224   0.064136   0.041179  -0.006273
     4  C    0.172466  -0.066523   0.064136  -0.029518  -0.243256   0.007187
     5  N   -0.539487   0.147137   0.041179  -0.243256   1.044205   0.000008
     6  H    0.000952  -0.000463  -0.006273   0.007187   0.000008  -0.009223
     7  H    0.000848   0.000091   0.004292  -0.002039  -0.002057  -0.000001
     8  H   -0.005394   0.015985  -0.012334   0.005389  -0.003892   0.000076
     9  C    0.089261  -0.013069  -0.017169   0.009465  -0.040351  -0.000207
    10  O   -0.011455   0.008937  -0.007769   0.004414  -0.013430  -0.000005
    11  O   -0.025156   0.013449  -0.008700   0.004057  -0.001586   0.000001
    12  O   -0.000329   0.001302  -0.000313  -0.000430   0.001198   0.000042
    13  H    0.000035  -0.000485  -0.000179   0.000278  -0.000253  -0.000001
    14  H   -0.003607   0.003141   0.001197  -0.001406   0.004611   0.000002
    15  O    0.003897  -0.026609   0.026417  -0.010138   0.010607  -0.000021
    16  H   -0.000603   0.000841  -0.000872   0.000296  -0.000090   0.000002
    17  H    0.000088  -0.000037  -0.000281   0.000126  -0.000144  -0.000002
               7          8          9         10         11         12
     1  N    0.000848  -0.005394   0.089261  -0.011455  -0.025156  -0.000329
     2  N    0.000091   0.015985  -0.013069   0.008937   0.013449   0.001302
     3  C    0.004292  -0.012334  -0.017169  -0.007769  -0.008700  -0.000313
     4  C   -0.002039   0.005389   0.009465   0.004414   0.004057  -0.000430
     5  N   -0.002057  -0.003892  -0.040351  -0.013430  -0.001586   0.001198
     6  H   -0.000001   0.000076  -0.000207  -0.000005   0.000001   0.000042
     7  H    0.001105   0.000000  -0.000156   0.000001   0.000011   0.000000
     8  H    0.000000  -0.001358   0.000891   0.001479   0.000052  -0.000625
     9  C   -0.000156   0.000891   0.070005  -0.001691  -0.029520  -0.000622
    10  O    0.000001   0.001479  -0.001691   0.025603   0.006839   0.000030
    11  O    0.000011   0.000052  -0.029520   0.006839   0.116868   0.000038
    12  O    0.000000  -0.000625  -0.000622   0.000030   0.000038   0.001284
    13  H   -0.000000   0.000083   0.000007   0.000277   0.000004  -0.000340
    14  H    0.000000  -0.000502  -0.001951  -0.002285  -0.000566   0.000201
    15  O    0.000002  -0.000293  -0.002520  -0.004104  -0.000418   0.000857
    16  H    0.000000  -0.000612   0.000087   0.000070   0.000001  -0.000104
    17  H   -0.000000   0.000218   0.000106   0.000203   0.000009   0.000220
              13         14         15         16         17
     1  N    0.000035  -0.003607   0.003897  -0.000603   0.000088
     2  N   -0.000485   0.003141  -0.026609   0.000841  -0.000037
     3  C   -0.000179   0.001197   0.026417  -0.000872  -0.000281
     4  C    0.000278  -0.001406  -0.010138   0.000296   0.000126
     5  N   -0.000253   0.004611   0.010607  -0.000090  -0.000144
     6  H   -0.000001   0.000002  -0.000021   0.000002  -0.000002
     7  H   -0.000000   0.000000   0.000002   0.000000  -0.000000
     8  H    0.000083  -0.000502  -0.000293  -0.000612   0.000218
     9  C    0.000007  -0.001951  -0.002520   0.000087   0.000106
    10  O    0.000277  -0.002285  -0.004104   0.000070   0.000203
    11  O    0.000004  -0.000566  -0.000418   0.000001   0.000009
    12  O   -0.000340   0.000201   0.000857  -0.000104   0.000220
    13  H    0.000219  -0.000018  -0.000185   0.000003   0.000116
    14  H   -0.000018   0.001428   0.000975  -0.000013  -0.000142
    15  O   -0.000185   0.000975   0.008916   0.001231  -0.000070
    16  H    0.000003  -0.000013   0.001231  -0.000888   0.000017
    17  H    0.000116  -0.000142  -0.000070   0.000017  -0.000367
 Mulliken charges and spin densities:
               1          2
     1  N   -0.112508   0.031059
     2  N   -0.521490   0.311578
     3  C   -0.260818   0.189057
     4  C   -0.140917  -0.085496
     5  N   -0.227361   0.404399
     6  H    0.125630  -0.007926
     7  H    0.116170   0.002096
     8  H    0.477263  -0.000836
     9  C    0.671410   0.062565
    10  O   -0.544626   0.007114
    11  O   -0.538220   0.075383
    12  O   -0.909127   0.002409
    13  H    0.394414  -0.000438
    14  H    0.456768   0.001066
    15  O   -0.895150   0.008544
    16  H    0.393267  -0.000636
    17  H    0.515296   0.000061
 Sum of Mulliken charges =  -1.00000   1.00000
 Mulliken charges and spin densities with hydrogens summed into heavy atoms:
               1          2
     1  N   -0.112508   0.031059
     2  N   -0.521490   0.311578
     3  C   -0.135189   0.181131
     4  C   -0.024747  -0.083400
     5  N   -0.227361   0.404399
     9  C    0.671410   0.062565
    10  O   -0.087858   0.008180
    11  O   -0.538220   0.075383
    12  O    0.000583   0.002032
    15  O   -0.024620   0.007072
 Electronic spatial extent (au):  <R**2>=           1605.5005
 Charge=             -1.0000 electrons
 Dipole moment (field-independent basis, Debye):
    X=              3.7587    Y=             -5.1805    Z=             -0.4509  Tot=              6.4163
 Quadrupole moment (field-independent basis, Debye-Ang):
   XX=            -83.2841   YY=            -83.8981   ZZ=            -58.4011
   XY=              4.6254   XZ=              2.5119   YZ=              0.0074
 Traceless Quadrupole moment (field-independent basis, Debye-Ang):
   XX=             -8.0897   YY=             -8.7037   ZZ=             16.7934
   XY=              4.6254   XZ=              2.5119   YZ=              0.0074
 Octapole moment (field-independent basis, Debye-Ang**2):
  XXX=             23.4944  YYY=            -28.8035  ZZZ=              6.7326  XYY=             10.6924
  XXY=            -15.2718  XXZ=              2.3059  XZZ=             28.0309  YZZ=              4.9062
  YYZ=             -7.6055  XYZ=              6.4122
 Hexadecapole moment (field-independent basis, Debye-Ang**3):
 XXXX=          -1257.8808 YYYY=           -954.2074 ZZZZ=           -123.0443 XXXY=             10.2785
 XXXZ=             28.8470 YYYX=             32.0091 YYYZ=              1.0490 ZZZX=              3.2153
 ZZZY=            -16.5320 XXYY=           -378.1269 XXZZ=           -180.7188 YYZZ=           -175.8843
 XXYZ=              9.3797 YYXZ=              1.1314 ZZXY=            -21.3446
 N-N= 5.654636387217D+02 E-N=-2.512138116569D+03  KE= 5.789053332534D+02
                          Isotropic Fermi Contact Couplings
        Atom                 a.u.       MegaHertz       Gauss      10(-4) cm-1
     1  N(14)              0.01959       6.33032       2.25882       2.11157
     2  N(14)              0.07880      25.45966       9.08464       8.49243
     3  C(13)              0.01545      17.37020       6.19812       5.79408
     4  C(13)             -0.02048     -23.01991      -8.21408      -7.67862
     5  N(14)              0.09096      29.38981      10.48701       9.80338
     6  H(1)              -0.00249     -11.14867      -3.97812      -3.71880
     7  H(1)               0.00020       0.89785       0.32038       0.29949
     8  H(1)               0.00032       1.42473       0.50838       0.47524
     9  C(13)              0.01131      12.70960       4.53510       4.23947
    10  O(17)              0.00185      -1.11909      -0.39932      -0.37329
    11  O(17)              0.01817     -11.01516      -3.93048      -3.67426
    12  O(17)              0.00130      -0.78894      -0.28151      -0.26316
    13  H(1)              -0.00004      -0.16922      -0.06038      -0.05644
    14  H(1)               0.00021       0.92894       0.33147       0.30986
    15  O(17)              0.00455      -2.75842      -0.98427      -0.92011
    16  H(1)              -0.00015      -0.68064      -0.24287      -0.22704
    17  H(1)              -0.00004      -0.16197      -0.05779      -0.05403
 --------------------------------------------------------
       Center         ----  Spin Dipole Couplings  ----
                      3XX-RR        3YY-RR        3ZZ-RR
 --------------------------------------------------------
     1   Atom       -0.181094     -0.177177      0.358271
     2   Atom       -0.377059     -0.337405      0.714464
     3   Atom       -0.070603     -0.057351      0.127954
     4   Atom        0.020582      0.029683     -0.050265
     5   Atom       -0.391287     -0.352435      0.743721
     6   Atom       -0.009814      0.012744     -0.002930
     7   Atom        0.003105      0.002341     -0.005446
     8   Atom        0.024502     -0.012306     -0.012196
     9   Atom       -0.041094     -0.024796      0.065890
    10   Atom       -0.016500     -0.027848      0.044348
    11   Atom       -0.128803     -0.149688      0.278491
    12   Atom        0.010677     -0.006619     -0.004058
    13   Atom        0.003139     -0.002370     -0.000769
    14   Atom        0.004986      0.001458     -0.006443
    15   Atom        0.026062     -0.012084     -0.013978
    16   Atom        0.002319     -0.002785      0.000466
    17   Atom        0.005566     -0.002628     -0.002938
 --------------------------------------------------------
                        XY            XZ            YZ
 --------------------------------------------------------
     1   Atom       -0.000964      0.027436     -0.032513
     2   Atom       -0.010852      0.031573     -0.206573
     3   Atom        0.001758      0.012554     -0.030036
     4   Atom       -0.000681     -0.002949      0.019769
     5   Atom       -0.002487      0.001560     -0.211896
     6   Atom       -0.009188     -0.001104      0.002910
     7   Atom        0.001807      0.000176      0.001851
     8   Atom       -0.010694      0.009838     -0.002681
     9   Atom        0.008693      0.026706      0.033105
    10   Atom       -0.007303      0.043442     -0.014201
    11   Atom        0.004760      0.098429      0.002961
    12   Atom        0.003264      0.004865      0.001089
    13   Atom        0.000855     -0.002886      0.000281
    14   Atom        0.005263     -0.001942      0.000304
    15   Atom       -0.009218      0.002614     -0.000625
    16   Atom       -0.000654      0.003588      0.000133
    17   Atom        0.000745      0.000124     -0.000515
 --------------------------------------------------------


 ---------------------------------------------------------------------------------
              Anisotropic Spin Dipole Couplings in Principal Axis System
 ---------------------------------------------------------------------------------

       Atom             a.u.   MegaHertz   Gauss  10(-4) cm-1        Axes

              Baa    -0.1826    -7.043    -2.513    -2.349  0.9794 -0.1924 -0.0612
     1 N(14)  Bbb    -0.1790    -6.904    -2.463    -2.303  0.1955  0.9795  0.0493
              Bcc     0.3616    13.947     4.977     4.652  0.0505 -0.0602  0.9969
 
              Baa    -0.3821   -14.737    -5.259    -4.916  0.7597  0.6426  0.0992
     2 N(14)  Bbb    -0.3724   -14.364    -5.125    -4.791 -0.6496  0.7432  0.1601
              Bcc     0.7545    29.101    10.384     9.707  0.0292 -0.1861  0.9821
 
              Baa    -0.0726    -9.745    -3.477    -3.250  0.9420 -0.3182 -0.1066
     3 C(13)  Bbb    -0.0608    -8.159    -2.911    -2.722  0.3303  0.9353  0.1269
              Bcc     0.1334    17.904     6.389     5.972  0.0593 -0.1547  0.9862
 
              Baa    -0.0550    -7.378    -2.633    -2.461  0.0359 -0.2270  0.9732
     4 C(13)  Bbb     0.0206     2.758     0.984     0.920  0.9947  0.1021 -0.0129
              Bcc     0.0344     4.621     1.649     1.541 -0.0965  0.9685  0.2294
 
              Baa    -0.3938   -15.189    -5.420    -5.066  0.6497  0.7475  0.1383
     5 N(14)  Bbb    -0.3894   -15.020    -5.360    -5.010  0.7602 -0.6385 -0.1204
              Bcc     0.7833    30.209    10.779    10.077  0.0017 -0.1834  0.9830
 
              Baa    -0.0131    -6.981    -2.491    -2.328  0.9424  0.3345  0.0066
     6 H(1)   Bbb    -0.0034    -1.829    -0.653    -0.610  0.0467 -0.1512  0.9874
              Bcc     0.0165     8.809     3.143     2.938 -0.3313  0.9302  0.1581
 
              Baa    -0.0059    -3.132    -1.117    -1.045  0.0263 -0.2253  0.9739
     7 H(1)   Bbb     0.0011     0.600     0.214     0.200 -0.6716  0.7177  0.1842
              Bcc     0.0047     2.531     0.903     0.844  0.7405  0.6589  0.1324
 
              Baa    -0.0152    -8.104    -2.892    -2.703  0.2474  0.9674  0.0536
     8 H(1)   Bbb    -0.0147    -7.826    -2.792    -2.610 -0.2415  0.0080  0.9704
              Bcc     0.0299    15.930     5.684     5.314  0.9383 -0.2530  0.2357
 
              Baa    -0.0474    -6.367    -2.272    -2.124  0.9753 -0.0671 -0.2102
     9 C(13)  Bbb    -0.0356    -4.777    -1.704    -1.593 -0.0014  0.9508 -0.3098
              Bcc     0.0830    11.144     3.976     3.717  0.2207  0.3024  0.9273
 
              Baa    -0.0391     2.830     1.010     0.944  0.8864 -0.0088 -0.4629
    10 O(17)  Bbb    -0.0305     2.204     0.787     0.735  0.0826  0.9868  0.1393
              Bcc     0.0696    -5.035    -1.796    -1.679  0.4555 -0.1617  0.8754
 
              Baa    -0.1546    11.186     3.992     3.731  0.7561 -0.6327 -0.1675
    11 O(17)  Bbb    -0.1465    10.599     3.782     3.535  0.6152  0.7744 -0.1479
              Bcc     0.3011   -21.785    -7.773    -7.267  0.2233  0.0088  0.9747
 
              Baa    -0.0072     0.524     0.187     0.175 -0.1500  0.9829 -0.1071
    12 O(17)  Bbb    -0.0055     0.399     0.142     0.133 -0.2980  0.0584  0.9528
              Bcc     0.0127    -0.923    -0.329    -0.308  0.9427  0.1748  0.2842
 
              Baa    -0.0030    -1.607    -0.574    -0.536 -0.3681  0.7376 -0.5660
    13 H(1)   Bbb    -0.0017    -0.914    -0.326    -0.305  0.2890  0.6694  0.6844
              Bcc     0.0047     2.521     0.900     0.841  0.8837  0.0883 -0.4596
 
              Baa    -0.0070    -3.723    -1.329    -1.242  0.2346 -0.1808  0.9551
    14 H(1)   Bbb    -0.0019    -1.026    -0.366    -0.342 -0.5301  0.7998  0.2816
              Bcc     0.0089     4.749     1.695     1.584  0.8148  0.5724 -0.0918
 
              Baa    -0.0142     1.028     0.367     0.343  0.1776  0.8932  0.4132
    15 O(17)  Bbb    -0.0141     1.023     0.365     0.341 -0.1487 -0.3907  0.9084
              Bcc     0.0283    -2.051    -0.732    -0.684  0.9728 -0.2228  0.0634
 
              Baa    -0.0031    -1.666    -0.595    -0.556  0.3594  0.8474 -0.3907
    16 H(1)   Bbb    -0.0020    -1.067    -0.381    -0.356 -0.4940  0.5280  0.6907
              Bcc     0.0051     2.733     0.975     0.912  0.7917 -0.0552  0.6085
 
              Baa    -0.0034    -1.790    -0.639    -0.597 -0.0626  0.6192  0.7828
    17 H(1)   Bbb    -0.0023    -1.216    -0.434    -0.406 -0.0643  0.7802 -0.6223
              Bcc     0.0056     3.006     1.073     1.003  0.9960  0.0893  0.0090
 

 ---------------------------------------------------------------------------------

 Calling FoFJK, ICntrl=      2127 FMM=F ISym2X=0 I1Cent= 0 IOpClX= 1 NMat=1 NMatS=1 NMatT=0.
 ***** Axes restored to original set *****
 -------------------------------------------------------------------
 Center     Atomic                   Forces (Hartrees/Bohr)
 Number     Number              X              Y              Z
 -------------------------------------------------------------------
      1        7          -0.007312345   -0.003275613    0.006846251
      2        7          -0.008708314   -0.008982080    0.002903196
      3        6          -0.005992510    0.015726285    0.000295162
      4        6           0.006511381   -0.001372954   -0.001503122
      5        7           0.008750773    0.001993550   -0.001433001
      6        1           0.000315007   -0.001168594    0.001318234
      7        1           0.001085226    0.000097937   -0.000790967
      8        1           0.031702984    0.016278525   -0.016377474
      9        6           0.022456881   -0.010316902   -0.005685522
     10        8          -0.020145607   -0.047442630    0.019450700
     11        8           0.003363446    0.009039101   -0.001345899
     12        8          -0.006894760    0.017624573    0.033420566
     13        1          -0.001900683   -0.000823416    0.001205442
     14        1           0.006121483    0.051729806   -0.019695313
     15        8          -0.043343541   -0.026239241   -0.008390691
     16        1           0.018746361    0.000530927    0.002944443
     17        1          -0.004755783   -0.013399276   -0.013162005
 -------------------------------------------------------------------
 Cartesian Forces:  Max     0.051729806 RMS     0.016544765

 GradGradGradGradGradGradGradGradGradGradGradGradGradGradGradGradGradGrad
 Berny optimization.
 FormGI is forming the generalized inverse of G from B-inverse, IUseBI=4.
 Internal  Forces:  Max     0.038032757 RMS     0.009555656
 Search for a local minimum.
 Step number   1 out of a maximum of   88
 All quantities printed in internal units (Hartrees-Bohrs-Radians)
 Mixed Optimization -- RFO/linear search
 Second derivative matrix not updated -- first step.
 ITU=  0
     Eigenvalues ---    0.00380   0.00583   0.00897   0.01340   0.01737
     Eigenvalues ---    0.01790   0.01923   0.02113   0.02155   0.02204
     Eigenvalues ---    0.02316   0.02415   0.04509   0.07010   0.08345
     Eigenvalues ---    0.09441   0.09691   0.11091   0.11384   0.12704
     Eigenvalues ---    0.13725   0.15999   0.15999   0.16575   0.20706
     Eigenvalues ---    0.21374   0.22354   0.23496   0.23947   0.24973
     Eigenvalues ---    0.32150   0.35850   0.36200   0.39081   0.43869
     Eigenvalues ---    0.44505   0.45956   0.48183   0.49900   0.50104
     Eigenvalues ---    0.53908   0.54988   0.55146   0.62286   0.96858
 RFO step:  Lambda=-2.92868833D-02 EMin= 3.80299876D-03
 Linear search not attempted -- first point.
 Maximum step size (   0.300) exceeded in Quadratic search.
    -- Step size scaled by   0.702
 Iteration  1 RMS(Cart)=  0.04701202 RMS(Int)=  0.00284763
 Iteration  2 RMS(Cart)=  0.00469402 RMS(Int)=  0.00049926
 Iteration  3 RMS(Cart)=  0.00001917 RMS(Int)=  0.00049902
 Iteration  4 RMS(Cart)=  0.00000001 RMS(Int)=  0.00049902
 Variable       Old X    -DE/DX   Delta X   Delta X   Delta X     New X
                                 (Linear)    (Quad)   (Total)
    R1        2.64302  -0.00292   0.00000  -0.00412  -0.00424   2.63878
    R2        2.59366   0.00657   0.00000   0.00842   0.00842   2.60209
    R3        2.65960  -0.00815   0.00000  -0.01339  -0.01338   2.64622
    R4        2.61064  -0.00660   0.00000  -0.00896  -0.00903   2.60160
    R5        2.97643   0.00198   0.00000   0.00785   0.00804   2.98447
    R6        2.59853   0.00679   0.00000   0.00929   0.00936   2.60790
    R7        2.03770   0.00119   0.00000   0.00214   0.00214   2.03984
    R8        2.54380  -0.00224   0.00000  -0.00250  -0.00238   2.54142
    R9        2.04317   0.00083   0.00000   0.00151   0.00151   2.04468
   R10        1.89542   0.02496   0.00000   0.03453   0.03471   1.93012
   R11        2.48189   0.02073   0.00000   0.02086   0.02085   2.50274
   R12        2.29924   0.00909   0.00000   0.00639   0.00639   2.30563
   R13        2.08497  -0.03803   0.00000  -0.07437  -0.07431   2.01066
   R14        1.81843   0.00118   0.00000   0.00143   0.00143   1.81986
   R15        2.83603   0.01166   0.00000   0.05415   0.05416   2.89019
   R16        1.85635   0.03781   0.00000   0.05177   0.05154   1.90789
   R17        1.81703  -0.00613   0.00000  -0.00740  -0.00740   1.80962
   R18        2.72526   0.02018   0.00000   0.09795   0.09773   2.82300
    A1        1.96212   0.00808   0.00000   0.02476   0.02469   1.98681
    A2        2.16233  -0.00390   0.00000  -0.01592  -0.01623   2.14610
    A3        2.11186  -0.00383   0.00000  -0.00117  -0.00102   2.11084
    A4        1.81332  -0.00676   0.00000  -0.02302  -0.02291   1.79042
    A5        2.25002   0.00023   0.00000  -0.01511  -0.01537   2.23465
    A6        1.97227   0.00476   0.00000   0.02237   0.02241   1.99469
    A7        1.87898   0.00704   0.00000   0.02034   0.02014   1.89912
    A8        2.10153  -0.00278   0.00000  -0.00749  -0.00744   2.09410
    A9        2.30264  -0.00427   0.00000  -0.01296  -0.01291   2.28974
   A10        1.95748  -0.00265   0.00000  -0.00650  -0.00648   1.95100
   A11        2.23784   0.00211   0.00000   0.00614   0.00614   2.24398
   A12        2.08780   0.00055   0.00000   0.00038   0.00037   2.08817
   A13        1.80868  -0.00553   0.00000  -0.01388  -0.01391   1.79476
   A14        2.03445  -0.00198   0.00000  -0.01663  -0.01709   2.01736
   A15        2.09012   0.00489   0.00000   0.01832   0.01851   2.10863
   A16        2.15728  -0.00284   0.00000  -0.00147  -0.00122   2.15606
   A17        1.94214   0.02303   0.00000   0.06612   0.06556   2.00771
   A18        1.79845   0.00324   0.00000   0.00684   0.00701   1.80546
   A19        1.85978   0.00072   0.00000   0.00092   0.00041   1.86019
   A20        1.67036  -0.00397   0.00000  -0.00405  -0.00507   1.66529
   A21        2.47326   0.02062   0.00000   0.06024   0.06085   2.53411
   A22        2.16983  -0.02000   0.00000  -0.11362  -0.11331   2.05652
   A23        1.51893   0.00394   0.00000   0.01659   0.01516   1.53409
   A24        1.96376   0.00179   0.00000   0.01714   0.01654   1.98030
   A25        2.84891  -0.00187   0.00000   0.00550   0.00417   2.85308
   A26        2.98597  -0.00228   0.00000  -0.03295  -0.03436   2.95160
   A27        2.97106   0.01580   0.00000   0.20123   0.20093   3.17199
    D1       -0.08991   0.00182   0.00000   0.01810   0.01836  -0.07155
    D2       -2.46039   0.00277   0.00000   0.02943   0.02898  -2.43141
    D3       -2.90885   0.00110   0.00000  -0.00810  -0.00812  -2.91697
    D4        1.00386   0.00205   0.00000   0.00323   0.00249   1.00635
    D5        0.07334  -0.00103   0.00000  -0.01051  -0.01090   0.06243
    D6        2.90281  -0.00043   0.00000   0.01156   0.01167   2.91449
    D7       -0.14413   0.00509   0.00000   0.03974   0.03988  -0.10426
    D8        3.05085   0.00378   0.00000   0.03534   0.03582   3.08666
    D9       -2.93672   0.00225   0.00000   0.00724   0.00739  -2.92932
   D10        0.25826   0.00094   0.00000   0.00285   0.00333   0.26160
   D11        0.06834  -0.00183   0.00000  -0.01788  -0.01796   0.05038
   D12       -3.06571  -0.00044   0.00000  -0.00491  -0.00479  -3.07051
   D13        2.57998  -0.00388   0.00000  -0.04219  -0.04252   2.53747
   D14       -0.55407  -0.00249   0.00000  -0.02923  -0.02935  -0.58342
   D15        0.48266   0.00222   0.00000   0.01942   0.01928   0.50193
   D16       -1.46313  -0.00023   0.00000   0.00758   0.00681  -1.45633
   D17       -1.85999   0.00258   0.00000  -0.01100  -0.01030  -1.87029
   D18        2.47741   0.00013   0.00000  -0.02284  -0.02277   2.45464
   D19       -0.02765   0.00105   0.00000   0.01167   0.01177  -0.01588
   D20        3.10199   0.00134   0.00000   0.01408   0.01422   3.11621
   D21        3.10520  -0.00055   0.00000  -0.00330  -0.00332   3.10188
   D22       -0.04834  -0.00026   0.00000  -0.00089  -0.00088  -0.04922
   D23       -0.02705   0.00018   0.00000  -0.00024  -0.00006  -0.02711
   D24        3.12535  -0.00010   0.00000  -0.00247  -0.00231   3.12304
   D25        0.28830   0.00244   0.00000   0.01647   0.01779   0.30609
   D26       -2.90894   0.00407   0.00000   0.02169   0.02261  -2.88633
   D27       -3.00400  -0.00226   0.00000  -0.02572  -0.02416  -3.02817
   D28       -2.39614  -0.00019   0.00000   0.00071   0.00124  -2.39490
   D29        1.99355  -0.00043   0.00000  -0.00038   0.00097   1.99452
   D30       -1.58311  -0.00061   0.00000  -0.03154  -0.03129  -1.61440
   D31        0.25727   0.00163   0.00000  -0.02548  -0.02550   0.23177
   D32        0.43824  -0.00938   0.00000  -0.10193  -0.10237   0.33587
   D33       -1.76321   0.01049   0.00000   0.01204   0.01237  -1.75084
         Item               Value     Threshold  Converged?
 Maximum Force            0.038033     0.000450     NO 
 RMS     Force            0.009556     0.000300     NO 
 Maximum Displacement     0.210396     0.001800     NO 
 RMS     Displacement     0.045901     0.001200     NO 
 Predicted change in Energy=-1.498896D-02
 GradGradGradGradGradGradGradGradGradGradGradGradGradGradGradGradGradGrad

                          Input orientation:                          
 ---------------------------------------------------------------------
 Center     Atomic      Atomic             Coordinates (Angstroms)
 Number     Number       Type             X           Y           Z
 ---------------------------------------------------------------------
      1          7           0        0.886885    0.184800   -0.117321
      2          7           0        0.042123   -0.894255    0.150811
      3          6           0        0.927981   -1.935451    0.313585
      4          6           0        2.214049   -1.446112    0.208296
      5          7           0        2.226414   -0.124006   -0.037740
      6          1           0        0.559381   -2.937674    0.471275
      7          1           0        3.149476   -1.981119    0.305599
      8          1           0       -1.296168   -1.289592   -0.588731
      9          6           0        0.452420    1.515866   -0.097274
     10          8           0       -0.849357    1.690123    0.073113
     11          8           0        1.236658    2.432163   -0.281617
     12          8           0       -2.742756    0.266317    0.802054
     13          1           0       -2.601810   -0.154764    1.656602
     14          1           0       -1.369535    0.846819    0.460850
     15          8           0       -2.248463   -1.440461   -0.925751
     16          1           0       -2.453936   -1.169999   -1.821101
     17          1           0       -2.710295   -0.468164    0.110098
 ---------------------------------------------------------------------
                    Distance matrix (angstroms):
                    1          2          3          4          5
     1  N    0.000000
     2  N    1.396380   0.000000
     3  C    2.163985   1.376710   0.000000
     4  C    2.127737   2.241676   1.380039   0.000000
     5  N    1.376965   2.323782   2.256255   1.344861   0.000000
     6  H    3.194300   2.132092   1.079437   2.243177   3.309807
     7  H    3.160598   3.295584   2.221978   1.082000   2.102092
     8  H    2.676150   1.579315   2.485588   3.602967   3.751102
     9  C    1.400321   2.457351   3.508069   3.459772   2.416563
    10  O    2.305819   2.734919   4.044940   4.386194   3.572635
    11  O    2.280345   3.560753   4.418777   4.029432   2.751925
    12  O    3.745155   3.086518   4.308212   5.277771   5.054726
    13  H    3.928498   3.131235   4.175400   5.192077   5.116980
    14  H    2.421567   2.262795   3.611273   4.261853   3.757918
    15  O    3.622905   2.589229   3.445398   4.604357   4.748278
    16  H    3.987409   3.192927   4.071875   5.097526   5.116655
    17  H    3.663030   2.785501   3.928281   5.021473   4.950899
                    6          7          8          9         10
     6  H    0.000000
     7  H    2.766051   0.000000
     8  H    2.698676   4.587132   0.000000
     9  C    4.490958   4.434559   3.342107   0.000000
    10  O    4.853822   5.433482   3.084863   1.324395   0.000000
    11  O    5.464495   4.845694   4.512314   1.220087   2.242301
    12  O    4.612926   6.325806   2.539242   3.546733   2.478616
    13  H    4.375239   6.183693   2.834441   3.898128   2.997021
    14  H    4.247731   5.333179   2.381440   2.019566   1.063996
    15  O    3.475243   5.562937   1.021376   4.089133   3.571524
    16  H    4.178486   6.048057   1.695130   4.316521   3.787218
    17  H    4.113358   6.055094   1.778444   3.739271   2.850028
                   11         12         13         14         15
    11  O    0.000000
    12  O    4.658430   0.000000
    13  H    5.018238   0.963030   0.000000
    14  H    3.139557   1.529424   1.987836   0.000000
    15  O    5.249589   2.478453   2.906272   2.815462   0.000000
    16  H    5.382013   3.004557   3.625877   3.232767   0.957612
    17  H    4.913631   1.009613   1.581664   1.910456   1.493866
                   16         17
    16  H    0.000000
    17  H    2.070705   0.000000
 Stoichiometry    C3H7N3O4(1-,2)
 Framework group  C1[X(C3H7N3O4)]
 Deg. of freedom    45
 Full point group                 C1      NOp   1
 Largest Abelian subgroup         C1      NOp   1
 Largest concise Abelian subgroup C1      NOp   1
                         Standard orientation:                         
 ---------------------------------------------------------------------
 Center     Atomic      Atomic             Coordinates (Angstroms)
 Number     Number       Type             X           Y           Z
 ---------------------------------------------------------------------
      1          7           0       -0.892776    0.154390    0.124926
      2          7           0       -0.004197   -0.885918   -0.154476
      3          6           0       -0.846312   -1.961012   -0.328668
      4          6           0       -2.151482   -1.526368   -0.218553
      5          7           0       -2.218416   -0.208612    0.041619
      6          1           0       -0.436649   -2.945409   -0.496962
      7          1           0       -3.064023   -2.098483   -0.321875
      8          1           0        1.349374   -1.233537    0.581215
      9          6           0       -0.513666    1.502404    0.119268
     10          8           0        0.779781    1.732097   -0.048831
     11          8           0       -1.335059    2.383499    0.313163
     12          8           0        2.730284    0.395601   -0.792375
     13          1           0        2.606744   -0.021765   -1.651426
     14          1           0        1.334300    0.915200   -0.445410
     15          8           0        2.307131   -1.348544    0.916902
     16          1           0        2.501370   -1.079430    1.815160
     17          1           0        2.728277   -0.346962   -0.108332
 ---------------------------------------------------------------------
 Rotational constants (GHZ):           1.5098578           1.1025643           0.6982985
 Standard basis: 6-31+G(d,p) (6D, 7F)
 There are   225 symmetry adapted cartesian basis functions of A   symmetry.
 There are   225 symmetry adapted basis functions of A   symmetry.
   225 basis functions,   369 primitive gaussians,   225 cartesian basis functions
    40 alpha electrons       39 beta electrons
       nuclear repulsion energy       562.9894853020 Hartrees.
 NAtoms=   17 NActive=   17 NUniq=   17 SFac= 1.00D+00 NAtFMM=   60 NAOKFM=F Big=F
 Integral buffers will be    131072 words long.
 Raffenetti 2 integral format.
 Two-electron integral symmetry is turned on.
 One-electron integrals computed using PRISM.
 NBasis=   225 RedAO= T EigKep=  3.33D-05  NBF=   225
 NBsUse=   225 1.00D-06 EigRej= -1.00D+00 NBFU=   225
 Initial guess from the checkpoint file:  "/scratch/gongke2021/PC/Gau-36482.chk"
 B after Tr=     0.000000   -0.000000    0.000000
         Rot=    0.999912   -0.004934   -0.000110   -0.012329 Ang=  -1.52 deg.
 Initial guess <Sx>= 0.0000 <Sy>= 0.0000 <Sz>= 0.5000 <S**2>= 0.7649 S= 0.5074
 ExpMin= 4.38D-02 ExpMax= 5.48D+03 ExpMxC= 8.25D+02 IAcc=2 IRadAn=         4 AccDes= 0.00D+00
 Harris functional with IExCor= 1009 and IRadAn=       4 diagonalized for initial guess.
 HarFok:  IExCor= 1009 AccDes= 0.00D+00 IRadAn=         4 IDoV= 1 UseB2=F ITyADJ=14
 ICtDFT=  3500011 ScaDFX=  1.000000  1.000000  1.000000  1.000000
 FoFCou: FMM=F IPFlag=           0 FMFlag=      100000 FMFlg1=           0
         NFxFlg=           0 DoJE=T BraDBF=F KetDBF=T FulRan=T
         wScrn=  0.000000 ICntrl=       500 IOpCl=  0 I1Cent=   200000004 NGrid=           0
         NMat0=    1 NMatS0=      1 NMatT0=    0 NMatD0=    1 NMtDS0=    0 NMtDT0=    0
 Petite list used in FoFCou.
 Requested convergence on RMS density matrix=1.00D-08 within 128 cycles.
 Requested convergence on MAX density matrix=1.00D-06.
 Requested convergence on             energy=1.00D-06.
 No special actions if energy rises.
 SCF Done:  E(UM062X) =  -583.479173209     A.U. after   17 cycles
            NFock= 17  Conv=0.65D-08     -V/T= 2.0081
 <Sx>= 0.0000 <Sy>= 0.0000 <Sz>= 0.5000 <S**2>= 0.7648 S= 0.5074
 <L.S>=  0.00000000000    
 Annihilation of the first spin contaminant:
 S**2 before annihilation     0.7648,   after     0.7501
 Calling FoFJK, ICntrl=      2127 FMM=F ISym2X=0 I1Cent= 0 IOpClX= 1 NMat=1 NMatS=1 NMatT=0.
 ***** Axes restored to original set *****
 -------------------------------------------------------------------
 Center     Atomic                   Forces (Hartrees/Bohr)
 Number     Number              X              Y              Z
 -------------------------------------------------------------------
      1        7          -0.005891437    0.006995847    0.004833427
      2        7          -0.001551635   -0.006448190   -0.000882689
      3        6          -0.002868527    0.006007290    0.000470341
      4        6           0.001634720   -0.003720907   -0.000179518
      5        7           0.002512732    0.001803235   -0.001705659
      6        1           0.000672617   -0.000963322    0.001147545
      7        1           0.000004814   -0.000171297   -0.000324455
      8        1           0.014201682    0.009671399   -0.010283045
      9        6           0.015326821   -0.009421357   -0.003530139
     10        8          -0.012244521   -0.028181273    0.012761892
     11        8          -0.001988474    0.003700171   -0.000199535
     12        8          -0.006032259   -0.003025438    0.011045777
     13        1          -0.001435225   -0.001228555   -0.000209326
     14        1           0.009669299    0.037152334   -0.016168276
     15        8          -0.019981278   -0.016284990    0.003151913
     16        1           0.011046423    0.002595261   -0.002525244
     17        1          -0.003075753    0.001519792    0.002596990
 -------------------------------------------------------------------
 Cartesian Forces:  Max     0.037152334 RMS     0.009725992

 GradGradGradGradGradGradGradGradGradGradGradGradGradGradGradGradGradGrad
 Berny optimization.
 Using GEDIIS/GDIIS optimizer.
 FormGI is forming the generalized inverse of G from B-inverse, IUseBI=4.
 Internal  Forces:  Max     0.026166559 RMS     0.005037563
 Search for a local minimum.
 Step number   2 out of a maximum of   88
 All quantities printed in internal units (Hartrees-Bohrs-Radians)
 Mixed Optimization -- RFO/linear search
 Update second derivatives using D2CorX and points    1    2
 DE= -1.54D-02 DEPred=-1.50D-02 R= 1.03D+00
 TightC=F SS=  1.41D+00  RLast= 3.35D-01 DXNew= 5.0454D-01 1.0045D+00
 Trust test= 1.03D+00 RLast= 3.35D-01 DXMaxT set to 5.05D-01
 ITU=  1  0
 Use linear search instead of GDIIS.
     Eigenvalues ---    0.00385   0.00562   0.00931   0.01472   0.01752
     Eigenvalues ---    0.01797   0.01903   0.02141   0.02179   0.02210
     Eigenvalues ---    0.02354   0.02416   0.04487   0.06686   0.07681
     Eigenvalues ---    0.08919   0.09655   0.10504   0.11081   0.12879
     Eigenvalues ---    0.13060   0.15975   0.16003   0.17015   0.19969
     Eigenvalues ---    0.21470   0.21873   0.23843   0.23975   0.25011
     Eigenvalues ---    0.29387   0.35852   0.36198   0.39045   0.43512
     Eigenvalues ---    0.44489   0.45897   0.48235   0.50096   0.52983
     Eigenvalues ---    0.54495   0.54990   0.56823   0.61803   0.97119
 RFO step:  Lambda=-7.49758598D-03 EMin= 3.84717796D-03
 Quartic linear search produced a step of  1.07200.
 Iteration  1 RMS(Cart)=  0.05633636 RMS(Int)=  0.00411623
 Iteration  2 RMS(Cart)=  0.00548734 RMS(Int)=  0.00122371
 Iteration  3 RMS(Cart)=  0.00001599 RMS(Int)=  0.00122356
 Iteration  4 RMS(Cart)=  0.00000004 RMS(Int)=  0.00122356
 Variable       Old X    -DE/DX   Delta X   Delta X   Delta X     New X
                                 (Linear)    (Quad)   (Total)
    R1        2.63878  -0.00055  -0.00455   0.00500  -0.00022   2.63855
    R2        2.60209   0.00253   0.00903   0.00075   0.00993   2.61201
    R3        2.64622  -0.00737  -0.01434  -0.01691  -0.03124   2.61499
    R4        2.60160  -0.00278  -0.00968  -0.00244  -0.01250   2.58910
    R5        2.98447  -0.00138   0.00862  -0.03512  -0.02656   2.95791
    R6        2.60790   0.00087   0.01004  -0.00652   0.00365   2.61154
    R7        2.03984   0.00083   0.00230   0.00214   0.00443   2.04427
    R8        2.54142   0.00212  -0.00255   0.01194   0.00985   2.55127
    R9        2.04468   0.00006   0.00162  -0.00143   0.00019   2.04487
   R10        1.93012   0.00952   0.03720   0.00257   0.03967   1.96979
   R11        2.50274   0.01018   0.02235   0.00703   0.02974   2.53248
   R12        2.30563   0.00153   0.00685  -0.00392   0.00294   2.30857
   R13        2.01066  -0.02617  -0.07966  -0.07639  -0.15562   1.85504
   R14        1.81986   0.00014   0.00154  -0.00111   0.00043   1.82029
   R15        2.89019   0.01196   0.05806   0.11711   0.17560   3.06580
   R16        1.90789   0.00711   0.05525  -0.02996   0.02499   1.93288
   R17        1.80962   0.00073  -0.00794   0.01113   0.00319   1.81282
   R18        2.82300   0.01047   0.10477   0.03550   0.13986   2.96285
    A1        1.98681   0.00084   0.02647  -0.01961   0.00553   1.99235
    A2        2.14610  -0.00093  -0.01740   0.01881  -0.00061   2.14549
    A3        2.11084   0.00039  -0.00110   0.01538   0.01421   2.12505
    A4        1.79042  -0.00026  -0.02456   0.02150  -0.00284   1.78757
    A5        2.23465  -0.00142  -0.01647  -0.01032  -0.02765   2.20701
    A6        1.99469   0.00111   0.02403   0.00340   0.02854   2.02323
    A7        1.89912   0.00194   0.02159  -0.00953   0.01098   1.91010
    A8        2.09410   0.00006  -0.00797   0.01402   0.00641   2.10051
    A9        2.28974  -0.00202  -0.01384  -0.00461  -0.01806   2.27168
   A10        1.95100  -0.00106  -0.00695   0.00151  -0.00564   1.94536
   A11        2.24398   0.00044   0.00658  -0.00552   0.00116   2.24514
   A12        2.08817   0.00062   0.00040   0.00398   0.00447   2.09264
   A13        1.79476  -0.00137  -0.01491   0.00960  -0.00549   1.78928
   A14        2.01736   0.00005  -0.01832   0.00776  -0.01125   2.00612
   A15        2.10863   0.00445   0.01984   0.01998   0.04009   2.14872
   A16        2.15606  -0.00448  -0.00131  -0.02793  -0.02887   2.12719
   A17        2.00771   0.01048   0.07028  -0.00283   0.06727   2.07498
   A18        1.80546   0.00346   0.00751   0.02293   0.03051   1.83597
   A19        1.86019  -0.00090   0.00044  -0.01651  -0.01712   1.84306
   A20        1.66529  -0.00017  -0.00543  -0.01021  -0.01676   1.64853
   A21        2.53411   0.01467   0.06524   0.07205   0.13797   2.67209
   A22        2.05652  -0.01170  -0.12147  -0.09234  -0.21268   1.84384
   A23        1.53409   0.00208   0.01625  -0.00429   0.00783   1.54192
   A24        1.98030   0.00113   0.01773   0.01246   0.02835   2.00865
   A25        2.85308  -0.00076   0.00447  -0.01030  -0.00860   2.84447
   A26        2.95160  -0.00104  -0.03684   0.01166  -0.02979   2.92181
   A27        3.17199   0.00763   0.21539  -0.07307   0.14110   3.31309
    D1       -0.07155   0.00122   0.01969   0.04696   0.06721  -0.00434
    D2       -2.43141   0.00126   0.03106   0.02394   0.05363  -2.37778
    D3       -2.91697   0.00005  -0.00871  -0.00843  -0.01696  -2.93393
    D4        1.00635   0.00009   0.00267  -0.03145  -0.03053   0.97583
    D5        0.06243  -0.00091  -0.01169  -0.03824  -0.05065   0.01178
    D6        2.91449  -0.00001   0.01251   0.01673   0.02965   2.94413
    D7       -0.10426   0.00170   0.04275   0.02194   0.06485  -0.03941
    D8        3.08666   0.00149   0.03840   0.02687   0.06627  -3.13025
    D9       -2.92932   0.00040   0.00792  -0.03166  -0.02390  -2.95323
   D10        0.26160   0.00019   0.00357  -0.02673  -0.02248   0.23911
   D11        0.05038  -0.00103  -0.01925  -0.03585  -0.05540  -0.00502
   D12       -3.07051  -0.00036  -0.00514  -0.03015  -0.03507  -3.10558
   D13        2.53747  -0.00229  -0.04558  -0.02543  -0.07142   2.46605
   D14       -0.58342  -0.00163  -0.03146  -0.01973  -0.05109  -0.63451
   D15        0.50193   0.00205   0.02067  -0.03416  -0.01374   0.48819
   D16       -1.45633   0.00038   0.00730  -0.04034  -0.03500  -1.49133
   D17       -1.87029   0.00052  -0.01104  -0.04546  -0.05446  -1.92475
   D18        2.45464  -0.00115  -0.02441  -0.05164  -0.07572   2.37892
   D19       -0.01588   0.00058   0.01262   0.01619   0.02898   0.01311
   D20        3.11621   0.00069   0.01524   0.01249   0.02791  -3.13906
   D21        3.10188  -0.00014  -0.00356   0.00991   0.00648   3.10836
   D22       -0.04922  -0.00004  -0.00094   0.00621   0.00541  -0.04381
   D23       -0.02711   0.00020  -0.00007   0.01218   0.01248  -0.01463
   D24        3.12304   0.00010  -0.00248   0.01557   0.01345   3.13649
   D25        0.30609   0.00059   0.01907  -0.01303   0.00859   0.31468
   D26       -2.88633   0.00109   0.02424  -0.01656   0.00935  -2.87697
   D27       -3.02817  -0.00077  -0.02590  -0.00628  -0.02888  -3.05705
   D28       -2.39490  -0.00046   0.00133  -0.06375  -0.06138  -2.45629
   D29        1.99452  -0.00009   0.00104  -0.04775  -0.04379   1.95073
   D30       -1.61440   0.00047  -0.03355   0.04688   0.01356  -1.60084
   D31        0.23177   0.00392  -0.02733   0.06472   0.03730   0.26907
   D32        0.33587  -0.00374  -0.10974   0.05792  -0.05346   0.28241
   D33       -1.75084   0.00802   0.01326   0.15983   0.17412  -1.57672
         Item               Value     Threshold  Converged?
 Maximum Force            0.026167     0.000450     NO 
 RMS     Force            0.005038     0.000300     NO 
 Maximum Displacement     0.209789     0.001800     NO 
 RMS     Displacement     0.058014     0.001200     NO 
 Predicted change in Energy=-9.302051D-03
 GradGradGradGradGradGradGradGradGradGradGradGradGradGradGradGradGradGrad

                          Input orientation:                          
 ---------------------------------------------------------------------
 Center     Atomic      Atomic             Coordinates (Angstroms)
 Number     Number       Type             X           Y           Z
 ---------------------------------------------------------------------
      1          7           0        0.891089    0.187913   -0.100490
      2          7           0        0.031423   -0.888285    0.128239
      3          6           0        0.904261   -1.924595    0.331649
      4          6           0        2.201635   -1.462386    0.217541
      5          7           0        2.233093   -0.137779   -0.041542
      6          1           0        0.533109   -2.925670    0.505855
      7          1           0        3.126851   -2.014606    0.317369
      8          1           0       -1.263108   -1.232873   -0.681383
      9          6           0        0.461022    1.503019   -0.120886
     10          8           0       -0.857878    1.669001    0.049128
     11          8           0        1.208079    2.446270   -0.332045
     12          8           0       -2.772588    0.233856    0.891963
     13          1           0       -2.568915   -0.213448    1.720393
     14          1           0       -1.382630    0.934015    0.433908
     15          8           0       -2.242230   -1.460376   -0.957241
     16          1           0       -2.342921   -1.127992   -1.851468
     17          1           0       -2.737223   -0.491574    0.171757
 ---------------------------------------------------------------------
                    Distance matrix (angstroms):
                    1          2          3          4          5
     1  N    0.000000
     2  N    1.396261   0.000000
     3  C    2.156295   1.370095   0.000000
     4  C    2.131235   2.246639   1.381969   0.000000
     5  N    1.382217   2.332260   2.257826   1.350073   0.000000
     6  H    3.192210   2.131952   1.081782   2.237924   3.310880
     7  H    3.166121   3.299400   2.224458   1.082098   2.109526
     8  H    2.645115   1.565260   2.490422   3.586807   3.719146
     9  C    1.383792   2.442326   3.485655   3.455126   2.416350
    10  O    2.296714   2.708658   4.012342   4.381161   3.581449
    11  O    2.292222   3.565900   4.431395   4.070233   2.795059
    12  O    3.795998   3.115277   4.300242   5.298582   5.105524
    13  H    3.930436   3.122837   4.113342   5.155245   5.115605
    14  H    2.451948   2.326748   3.662237   4.317002   3.801084
    15  O    3.642605   2.583613   3.431784   4.596526   4.755658
    16  H    3.905938   3.100678   3.993090   5.004558   5.019587
    17  H    3.701415   2.797262   3.916570   5.033577   4.987455
                    6          7          8          9         10
     6  H    0.000000
     7  H    2.755551   0.000000
     8  H    2.738885   4.569503   0.000000
     9  C    4.473398   4.435357   3.282056   0.000000
[...]
   yx        -0.714229D+01     -0.105838D+01     -0.117760D+01
   yy         0.648214D+02      0.960553D+01      0.106876D+02
   zx         0.677677D+01      0.100421D+01      0.111734D+01
   zy         0.335335D+01      0.496915D+00      0.552893D+00
   zz         0.114437D+03      0.169578D+02      0.188681D+02

 ----------------------------------------------------------------------
 1\1\GINC-NODE6\Freq\UM062X\6-31+G(d,p)\C3H7N3O4(1-,2)\GONGKE2021\27-Ma
 y-2023\0\\#N Geom=AllCheck Guess=TCheck SCRF=Check GenChk UM062X/6-31+
 G(d,p) Freq\\TS\\-1,2\N,0.8111608927,0.1304684122,-0.0341132941\N,-0.0
 295653145,-0.9003197202,0.3918096277\C,0.8647089725,-1.8960647784,0.67
 34047054\C,2.1476380409,-1.4581057777,0.4096050462\N,2.150694293,-0.18
 43925625,-0.0401631652\H,0.5182208378,-2.8528144059,1.0368360459\H,3.0
 815497061,-1.9917542993,0.5187908748\H,-1.397807855,-1.1275730615,-1.0
 049913327\C,0.348732736,1.359230445,-0.419345708\O,-0.9998052153,1.519
 8759314,-0.2632587043\O,1.0335832183,2.2449310999,-0.8989186089\O,-2.6
 787241593,-0.3867035731,1.3408430682\H,-1.7673055594,-0.7364679951,1.3
 531640544\H,-1.3761861304,0.9013144972,0.3897821408\O,-2.2118556602,-0
 .9090259534,-1.5076642732\H,-2.085645744,0.0251493282,-1.7205162152\H,
 -2.9863253992,-0.6432578068,0.457483468\\Version=ES64L-G16RevA.03\Stat
 e=2-A\HF=-583.4999486\S2=0.765217\S2-1=0.\S2A=0.750111\RMSD=4.273e-09\
 RMSF=1.652e-05\ZeroPoint=0.1232734\Thermal=0.1349621\Dipole=-0.2998169
 ,-1.365808,0.4047523\DipoleDeriv=-0.1268762,0.3290919,-0.0696225,0.273
 5358,-0.740823,0.2323342,-0.0756584,0.2608813,-0.1712046,-1.108713,-0.
 3706569,0.1260341,0.3058938,-0.2115377,-0.0308612,-0.1298027,-0.014587
 6,-0.3401909,0.3203359,0.0923665,-0.0582511,-0.3473938,-0.1723046,-0.0
 305849,0.079585,-0.0439261,-0.2695573,0.1743494,-0.0068892,-0.0450028,
 0.332196,0.2440963,-0.1800527,-0.1527431,-0.154415,-0.1121939,-0.50666
 58,0.1439618,-0.0361954,-0.4466305,-0.4201124,0.097429,0.1805785,0.048
 8784,-0.2605257,0.0700781,-0.046156,0.0260046,-0.0222408,-0.0641872,0.
 0928333,0.0205233,0.0905785,0.1563781,-0.063936,0.1119576,-0.0208,0.09
 51806,0.0271831,0.0427649,-0.0136978,0.0433645,0.1559699,0.6238961,0.0
 549675,0.1933211,-0.0404877,0.2074484,0.0081314,0.3606493,0.0901486,0.
 4630573,1.7095627,0.1134868,-0.2889012,-0.1694162,2.4970074,-0.7640972
 ,-0.1714883,-0.8810353,0.6733529,-1.3948574,0.345863,0.0531968,-0.0156
 197,-0.5574723,0.0031469,0.1375105,-0.034545,-0.4415344,-0.642137,-0.7
 740615,0.3162036,-0.0880237,-1.7442846,0.4888726,0.0904247,0.6427354,-
 0.7005141,-1.0516035,-0.0928001,0.1410653,-0.0915975,-0.6112391,0.0762
 452,0.13275,0.0608139,-0.6609826,0.7243265,0.0520707,-0.1640417,0.0043
 861,0.2257396,-0.01723,-0.1429866,-0.0299439,0.3250074,0.4571989,0.055
 6499,-0.1091841,0.1020768,0.3082791,-0.0087509,-0.1119529,0.0007196,0.
 3144546,-0.8814967,0.0314761,-0.0899278,0.0678176,-0.4614517,-0.037698
 ,-0.2392922,-0.0778698,-0.8782432,0.3120947,-0.0690015,0.0434742,0.002
 7224,0.2039014,0.0453101,0.0766349,0.00213,0.369361,0.3844433,0.028673
 4,-0.0173729,0.0376006,0.2697573,-0.0177928,-0.0410342,-0.0039276,0.37
 73657\Polar=103.5993019,-4.1984112,110.0397453,-0.454195,-17.8788558,7
 0.1048632\Quadrupole=-6.044626,0.8636529,5.1809731,-6.3756143,3.867753
 9,1.1105846\PG=C01 [X(C3H7N3O4)]\NImag=0\\0.60046671,-0.11818573,0.748
 54203,-0.01018307,-0.23124260,0.15215732,-0.14655066,-0.01609706,0.018
 06021,0.46886276,-0.08090712,-0.14170556,0.04491952,-0.08981259,0.4066
 4237,0.03864094,0.03880967,-0.04903809,-0.00129248,-0.11192411,0.10402
 258,-0.00549726,0.01385316,-0.00442194,-0.20433100,0.13393390,-0.03435
 396,0.66350024,0.00131407,-0.09052041,0.03304566,0.08738699,-0.1947246
 6,0.04538593,0.09450553,0.71929803,0.00088685,0.03146710,-0.00949192,-
 0.01911340,0.04243623,-0.05517578,-0.07915199,-0.22720374,0.18218750,-
 0.03941224,0.04257288,-0.01139967,-0.07258101,0.05336254,-0.01140394,-
 0.34303867,-0.08630969,0.05435615,0.84592260,0.05873793,-0.06292335,0.
 01729681,0.02521806,-0.01275849,0.01072611,-0.07476593,-0.08479800,0.0
 1446857,-0.11601694,0.56842553,-0.01676623,0.01997044,-0.00199238,-0.0
 0160856,0.00693094,0.01681143,0.05038029,0.01619908,-0.06809031,-0.021
 01668,-0.15097302,0.16568367,-0.21992692,-0.01225543,0.01982115,-0.050
 91409,-0.01905445,0.01005227,-0.00050637,-0.02230695,0.01010308,-0.099
 28940,0.01051317,0.00000802,0.38398450,0.05126295,-0.09765846,0.017652
 08,-0.01292097,0.00120606,-0.00088725,-0.06671564,-0.07471900,0.041748
 75,-0.01908288,-0.28729208,0.08542687,-0.00094475,0.47891009,-0.002120
 08,0.02284472,-0.04379709,0.00892090,0.00073140,-0.00211916,0.02547227
 ,0.03698951,0.00935767,0.01072781,0.08368412,-0.07833602,-0.02730242,-
 0.14648432,0.11549835,-0.00493376,0.00620574,-0.00139003,0.01191563,0.
 01796191,-0.00752306,-0.09152144,-0.09171613,0.03789943,0.00458013,-0.
 02403995,0.00801970,-0.00493157,-0.00130215,0.00135210,0.08352908,0.00
 262935,-0.00303468,0.00245451,-0.00931758,-0.01503625,0.00394498,-0.08
 650196,-0.28655878,0.10021400,0.00235953,-0.00136859,-0.00014693,0.001
 08617,0.00161213,0.00159074,0.09176242,0.30573034,-0.00043249,0.002042
 06,0.00373104,0.00188624,0.00194695,-0.00645644,0.03604268,0.10056861,
 -0.05867980,-0.00122458,0.00206112,-0.00180096,0.00092784,0.00194115,0
 .00575577,-0.03761119,-0.10829690,0.05872364,0.00086950,-0.00210332,0.
 00118596,-0.00319411,-0.00130960,0.00137690,-0.00970586,0.01740329,-0.
 00542725,-0.28627592,0.12634823,-0.02257119,0.00422936,0.00003024,-0.0
 0085975,-0.00029318,-0.00068956,0.00005662,0.29400008,0.00198987,-0.00
 729513,0.00463192,-0.00346878,-0.00036086,0.00300899,-0.00917236,0.010
 73752,-0.00330912,0.12205823,-0.12165434,0.02312291,0.02607086,-0.0097
 9659,-0.00083157,0.00064249,-0.00056698,-0.00067490,-0.13977907,0.1282
 4817,-0.00036856,0.00494661,0.00464796,0.00214855,0.00292935,0.0060151
 3,0.00406406,-0.00551133,0.00086922,-0.02109707,0.02269921,-0.03351174
 ,-0.01002147,0.00128925,-0.00556826,-0.00039990,-0.00053713,-0.0020741
 8,0.02626760,-0.02574340,0.02889577,-0.00493012,-0.00133914,0.00008547
 ,0.00517989,0.00028814,0.01044052,-0.00459118,0.00478419,-0.00117215,0
 .00180696,-0.00090257,-0.00028394,0.00051237,0.00083663,-0.00015082,0.
 00004695,-0.00020695,0.00033699,0.00014770,-0.00007663,-0.00022361,0.3
 1837940,-0.00253090,-0.00165841,-0.00103836,-0.00072572,-0.00623131,0.
 00073910,0.00249636,0.00048029,0.00110729,0.00094459,-0.00036719,-0.00
 002812,0.00008770,-0.00078814,0.00029232,0.00009717,-0.00027471,0.0004
 1191,0.00009131,-0.00004170,-0.00013733,-0.08379453,0.08843271,-0.0010
 3164,-0.00103032,0.00133269,0.00624665,0.00005918,0.00364188,-0.002608
 41,0.00417785,-0.00101162,0.00210412,-0.00094349,-0.00019134,0.0020175
 0,0.00120866,-0.00069915,-0.00013608,-0.00006124,0.00039848,0.00029281
 ,-0.00000586,-0.00015278,0.17440889,-0.06494878,0.12858110,-0.14125833
 ,0.07110069,-0.01613120,0.01426408,-0.00881461,0.00194830,-0.00413149,
 -0.01037827,0.00396129,-0.01169865,-0.00086080,0.00166055,-0.02283617,
 0.03791272,-0.01015579,0.00152599,-0.00170492,0.00050184,0.00011709,0.
 00120769,-0.00045900,0.00485669,-0.00509678,0.00208078,0.71273252,0.06
 169246,-0.27401006,0.07809407,0.01775751,-0.02724078,0.00728677,-0.011
 25600,0.00502577,-0.00173258,-0.00026209,0.00565426,-0.00231922,0.0113
 1322,-0.01130270,0.00150777,-0.00032387,0.00105803,-0.00005807,-0.0006
 5373,0.00205073,-0.00046447,-0.00775504,0.00027387,-0.00496618,0.14170
 526,0.80541485,-0.01246154,0.07890965,-0.06771421,-0.01119460,0.006517
 27,-0.00596731,0.00463712,-0.00090904,-0.00221362,0.00111827,-0.002172
 79,0.00120483,0.00135823,0.00001334,-0.00401626,-0.00000734,0.00008961
 ,0.00068293,0.00031580,-0.00057153,0.00103269,0.00132859,-0.00104966,0
 .00275189,-0.14993287,-0.28733349,0.30992409,-0.04975995,0.01804875,0.
 00200972,0.01788812,-0.00325124,0.00028112,-0.00541016,0.00700752,-0.0
 0198811,-0.00000896,-0.00225527,0.00085343,-0.00482739,0.00750504,-0.0
 0183034,-0.00020196,0.00058301,-0.00017619,-0.00017930,0.00093755,-0.0
 0042714,-0.00681335,0.00342052,-0.00353931,-0.25564046,0.04986478,0.00
 661230,0.46350825,0.04701250,-0.01051264,-0.00026468,0.00851788,-0.003
 75634,0.00167065,-0.00041542,0.00231172,-0.00130121,0.00445708,-0.0002
 3570,0.00007360,-0.00650918,-0.00455017,0.00355245,-0.00008232,-0.0001
 1251,0.00003586,0.00027819,-0.00064142,0.00017752,-0.00066583,0.003179
 69,0.00030627,0.01883948,-0.10486771,0.03355991,0.05655056,0.32639756,
 -0.00771869,0.00339496,0.00847638,-0.00292228,0.00133563,-0.00073415,0
 .00052249,-0.00105572,0.00139300,-0.00097050,0.00097086,0.00105878,0.0
 0157876,0.00180138,0.00356549,0.00001150,-0.00006404,-0.00011990,-0.00
 005319,-0.00002676,-0.00029759,-0.00069584,0.00183211,-0.00150980,0.03
 371675,0.02439367,-0.06884597,-0.15959845,-0.24929199,0.27908036,0.011
 25194,-0.00228646,0.00242333,-0.01442033,-0.00622875,0.00266813,0.0047
 1106,0.00062546,-0.00037152,0.00028813,-0.00241383,0.00091377,0.015798
 40,0.00477556,-0.00383077,0.00018422,0.00003228,-0.00004799,0.00021859
 ,-0.00033613,0.00014574,0.00114356,0.00029569,0.00178059,-0.27909199,-
 0.23540441,0.13208101,-0.05652892,-0.04535318,0.03708356,0.32416356,-0
 .02899894,-0.05917640,0.03380128,-0.00914520,-0.00767156,0.00413130,0.
 00298277,-0.00405783,0.00177549,-0.00333265,-0.00351618,0.00186964,0.0
 1112497,0.00566578,-0.00403056,0.00067108,-0.00118381,0.00021789,0.000
 50130,-0.00057641,0.00018376,0.00404234,-0.00075524,0.00361299,-0.2379
 5370,-0.40892658,0.18072381,-0.02299777,0.01289843,0.00573559,0.283928
 19,0.46593204,0.01272856,0.02724700,0.00115874,0.00655055,0.00578130,0
 .00165100,-0.00157697,0.00179894,0.00093319,0.00127588,0.00164317,-0.0
 0119249,-0.00777135,-0.00359978,0.00085551,-0.00026359,0.00049614,0.00
 002164,-0.00024425,0.00027450,-0.00009041,-0.00161745,0.00026130,-0.00
 209522,0.13288029,0.18196180,-0.16210170,0.02399510,0.00648215,0.00536
 161,-0.16810897,-0.22443172,0.15077141,-0.00029819,0.00258625,0.000217
 55,-0.01458935,0.00322372,0.00724475,0.00079869,-0.00335365,0.00211864
 ,-0.00184895,0.00048156,-0.00036987,-0.00174629,-0.00058367,0.00073759
 ,0.00003790,0.00039045,0.00001382,-0.00037891,-0.00007136,-0.00014489,
 -0.00194460,-0.00061660,-0.00290350,0.00197282,0.00262672,-0.00177313,
 -0.00168726,-0.00263770,0.00324387,-0.00241428,-0.00287931,0.00174720,
 0.51386310,0.00001741,-0.00032930,-0.00079225,0.00414186,0.00491642,-0
 .00119805,-0.00134147,0.00078781,0.00000777,-0.00005735,0.00010933,-0.
 00001139,0.00012051,0.00129677,-0.00047968,-0.00026928,0.00030064,-0.0
 0007676,-0.00001624,0.00005481,-0.00005561,-0.00117538,-0.00136644,0.0
 0116006,0.00934484,-0.00598992,0.00098413,-0.01205898,-0.00084666,0.00
 486079,-0.00204159,0.00154190,0.00000531,-0.13295341,0.12704852,0.0010
 7687,-0.00108442,0.00042007,0.00468275,-0.00072255,0.00329138,0.001065
 95,0.00064685,-0.00041564,0.00062974,-0.00015290,-0.00002432,0.0007615
 9,-0.00025813,0.00007271,0.00003868,-0.00030868,-0.00013071,0.00015849
 ,-0.00002653,-0.00007216,-0.00324196,0.00142494,0.00028476,-0.00476078
 ,0.00190915,-0.00083600,0.00702307,0.00229952,0.00022401,0.00159782,0.
 00020173,-0.00017586,0.13807819,0.13904607,0.47680345,-0.00133510,-0.0
 0289187,-0.00099008,0.00104555,0.00105852,-0.00504288,-0.00335174,0.00
 437128,-0.00129834,0.00198704,-0.00021815,0.00036159,0.00144160,0.0010
 3435,-0.00060332,0.00002534,-0.00029422,-0.00011166,0.00031327,0.00007
 418,0.00012243,0.00342864,0.00002995,0.00119133,0.00395057,-0.00679933
 ,0.00274262,-0.00643487,0.00057843,0.00046881,0.00107169,0.00384477,-0
 .00172383,-0.40934935,0.14398048,-0.03107055,0.41962549,-0.00200988,0.
 00040467,0.00124965,0.00156555,-0.00771263,-0.00045474,0.00169262,0.00
 026672,-0.00105332,0.00066718,-0.00031567,0.00016836,-0.00033389,-0.00
 112354,0.00043561,0.00023281,-0.00052361,0.00000306,0.00005091,0.00004
 968,0.00009836,0.00013978,0.00121820,-0.00095496,-0.00455093,0.0024970
 1,0.00021369,0.00367566,0.00024274,-0.00206958,0.00066859,-0.00091162,
 0.00001396,0.16767961,-0.07842553,-0.00237972,-0.15428654,0.08717761,-
 0.00083920,0.00194168,-0.00069878,-0.00074488,-0.00085747,-0.00264834,
 -0.00063203,-0.00163554,0.00099261,-0.00134234,0.00017498,-0.00000929,
 -0.00126535,-0.00025456,0.00018496,0.00002913,0.00040509,0.00018433,-0
 .00025265,-0.00003784,0.00003884,0.00111241,-0.00083199,-0.00420672,0.
 00112233,0.00139623,-0.00025865,-0.00041571,-0.00124477,-0.00033906,-0
 .00078824,-0.00110664,0.00043519,0.01244887,-0.02026959,-0.04297123,0.
 03391925,0.00188403,0.05085135,-0.00154900,0.00029183,0.00078715,-0.00
 125380,-0.00101665,0.00078900,0.00041093,0.00011688,-0.00074387,0.0009
 2601,-0.00046765,0.00007222,-0.00077190,-0.00118979,-0.00010526,0.0001
 0617,-0.00026779,0.00005543,0.00017266,-0.00011449,0.00014567,0.002443
 88,-0.00025893,0.00041285,-0.01881525,-0.02747356,0.02617390,-0.098916
 48,-0.07958403,0.09559816,-0.00611659,0.00071778,0.00125843,0.00076450
 ,0.00869701,-0.00516564,0.00594087,-0.00307513,0.00064886,0.12013868,0
 .00668636,-0.00057402,-0.00015651,-0.00345658,0.00108041,-0.00104982,0
 .00163365,-0.00346642,0.00169421,-0.00117524,0.00091777,-0.00018535,0.
 00093682,-0.00155337,0.00004793,0.00016982,-0.00005285,-0.00000550,-0.
 00012956,-0.00020411,0.00006392,0.00147825,-0.00271447,-0.00204779,-0.
 01085306,0.00989783,-0.00959862,-0.10539383,-0.21335124,0.21192813,0.0
 0332029,0.00048337,0.00224083,0.00360746,0.00116361,-0.00318196,-0.000
 15201,-0.00699055,0.00508035,0.10703472,0.21557034,-0.00247510,0.00135
 796,0.00144718,0.00010304,-0.00014746,-0.00254823,-0.00089739,0.000485
 70,-0.00082759,-0.00042831,-0.00013275,0.00015457,0.00067981,0.0011156
 0,-0.00096057,-0.00005061,0.00011163,-0.00002334,-0.00009156,0.0001775
 6,0.00008159,0.00069404,-0.00328133,-0.00008552,0.00729743,-0.00277404
 ,-0.00287918,0.12413045,0.20539879,-0.22639040,-0.00491054,-0.00064944
 ,0.00368658,-0.00314723,-0.00447174,-0.00367514,-0.00060941,0.00690467
 ,0.00041274,-0.11903136,-0.20503892,0.23185286,0.00324228,0.00092872,-
 0.00022795,-0.01184973,0.00139454,-0.01551586,0.00226505,-0.00391769,-
 0.00006866,-0.00166696,0.00088366,0.00033988,-0.00060226,-0.00061035,-
 0.00015759,-0.00004151,0.00023868,-0.00027440,-0.00017104,0.00010298,0
 .00029838,-0.32023269,0.04472846,-0.17358643,-0.00120150,0.00597128,0.
 00040117,0.00344006,-0.00346948,-0.00293781,-0.00111038,-0.00310669,0.
 00089777,0.00468114,0.00033796,0.00402040,-0.00333926,0.00027537,0.001
 33585,-0.00246405,-0.00025043,0.00133334,0.37774359,-0.00022350,0.0006
 7040,0.00054745,0.00273932,0.00421164,0.00142049,-0.00186297,0.0008544
 9,-0.00038481,-0.00011872,0.00007148,-0.00006418,-0.00036188,0.0008655
 2,-0.00019110,-0.00011647,0.00014483,-0.00025211,-0.00005046,0.0000480
 6,-0.00001364,0.08931773,-0.06628411,0.06331864,0.00754418,-0.00336420
 ,0.00088748,-0.00847155,-0.00475162,-0.00428871,-0.00066073,0.00145282
 ,-0.00052419,0.00040216,0.00408371,-0.00231991,0.00023949,-0.00136182,
 -0.00024331,0.00118500,0.00106172,0.00339207,-0.00037426,0.55806577,0.
 00078062,0.00103038,-0.00015714,-0.01217964,0.00189685,-0.00810191,0.0
 0136510,-0.00323011,0.00039224,-0.00155911,0.00089910,0.00009664,-0.00
 157721,-0.00074819,0.00036802,0.00008582,0.00008104,-0.00032525,-0.000
 24191,0.00002419,0.00010992,-0.18937652,0.04081319,-0.12521416,0.00224
 232,0.00303284,-0.00258098,-0.00261264,-0.00416851,-0.00010197,-0.0022
 5007,-0.00285635,0.00218897,0.00236374,-0.00139066,-0.01041665,0.00223
 052,-0.00041319,0.00204113,0.00221292,0.00298498,0.00124397,0.19519422
 ,-0.15988055,0.17955489,-0.00051316,0.00004402,0.00018132,-0.00085099,
 -0.00100583,-0.00009255,0.00041854,-0.00011814,0.00022454,0.00004599,-
 0.00009672,0.00005674,-0.00004811,-0.00017331,-0.00006159,0.00002063,-
 0.00007304,0.00003552,0.00003663,-0.00005072,-0.00002375,0.00410774,0.
 03951774,-0.01092299,-0.00325130,-0.00060846,-0.00159319,0.00024901,0.
 00157960,0.00238192,0.00013592,-0.00005598,0.00033921,-0.00123012,0.00
 066066,-0.00031374,0.00067711,0.00003888,-0.00033784,0.00136621,-0.000
 31781,-0.00149340,-0.04658549,-0.08876024,0.00815267,0.04496885,0.0013
 2608,0.00010535,-0.00012699,-0.00197147,-0.00003942,-0.00130398,0.0006
 2749,-0.00090642,0.00006499,-0.00020314,0.00005879,-0.00002020,0.00042
 168,-0.00038524,0.00019533,0.00004456,-0.00003810,0.00004293,0.0000012
 7,-0.00003339,0.00005947,-0.00666204,-0.01463960,0.00231772,-0.0045200
 1,0.00247415,-0.00023915,0.00328755,-0.00184437,0.00070999,0.00038472,
 -0.00093559,0.00045080,-0.00026006,-0.00099271,-0.00106755,0.00031278,
 0.00021511,0.00030721,0.00014559,0.00094042,-0.00115737,-0.04381824,-0
 .49013580,0.12282984,0.05140779,0.50552511,-0.00002585,-0.00048798,-0.
 00036788,-0.00007898,-0.00159341,0.00021779,0.00025774,0.00026070,-0.0
 0003194,0.00024559,-0.00025819,0.00007739,0.00047118,-0.00016820,-0.00
 005994,0.00001531,-0.00005603,0.00006055,0.00007425,-0.00003968,0.0000
 1072,0.00360772,0.02584060,-0.00317532,-0.00637253,0.00016366,0.001448
 39,0.00597418,0.00301520,0.00108650,0.00147717,0.00062894,-0.00115372,
 -0.00019599,-0.00193258,0.00108308,-0.00034173,0.00067993,-0.00037385,
 -0.00207896,-0.00207739,-0.00463090,-0.00622062,0.09752323,-0.04005893
 ,0.00211666,-0.12468976,0.04770719,0.00013423,-0.00047304,-0.00002792,
 0.00137905,0.00017758,0.00178279,-0.00001934,0.00058531,-0.00021470,0.
 00026389,-0.00014482,-0.00004972,0.00043424,0.00016601,-0.00003296,-0.
 00004861,-0.00002588,0.00002153,0.00009343,-0.00001429,-0.00002704,-0.
 00354183,0.00131395,0.00419284,-0.00149462,-0.00039475,0.00019368,0.00
 132362,0.00090341,0.00029093,0.00071541,0.00065704,-0.00036658,-0.0866
 3083,-0.01738704,-0.11458089,-0.01569685,-0.01243061,-0.04399848,-0.00
 238284,-0.00313886,-0.00110319,-0.00210726,-0.00042711,-0.00483085,0.0
 0045253,-0.00052455,0.00107485,0.10712577,0.00018709,-0.00032401,-0.00
 007156,-0.00041123,-0.00081902,-0.00030605,0.00030627,-0.00001081,0.00
 000038,0.00013666,-0.00000756,-0.00001344,0.00009144,-0.00038707,0.000
 14532,0.00006217,-0.00009509,0.00009269,0.00002680,-0.00001805,0.00001
 545,0.00169106,0.00153655,-0.00120273,-0.00292179,0.00135543,-0.000024
 59,0.00354770,0.00044025,-0.00016631,0.00069429,-0.00026310,-0.0001015
 3,-0.03764218,-0.05335297,-0.13402592,0.00911787,0.00529325,0.01529214
 ,-0.00474079,-0.00220843,-0.00129094,0.00068548,-0.00563289,-0.0009048
 5,-0.00198846,0.00063171,0.00319096,0.03115765,0.05386181,0.00030861,-
 0.00011690,-0.00011390,0.00053591,-0.00023962,-0.00286178,-0.00016503,
 -0.00001335,-0.00018720,-0.00001536,0.00000909,0.00006153,0.00015837,0
 .00020335,-0.00010202,-0.00006986,0.00008321,0.00005222,0.00001331,0.0
 0002712,0.00006530,0.00474766,-0.00140716,0.00135084,0.00040029,-0.000
 09791,0.00036906,-0.00029147,-0.00030076,-0.00190729,0.00013697,0.0001
 9227,-0.00025444,-0.15967961,-0.11538580,-0.42346176,0.00075524,-0.004
 32582,-0.00363524,-0.00102951,-0.00069850,0.00314139,-0.00483171,0.001
 07313,0.00096121,0.00135048,0.00162671,-0.00183913,0.15767570,0.119370
 96,0.42836121\\0.00002378,0.00003506,0.00000707,-0.00002204,-0.0000488
 5,0.00002281,0.00001630,0.00001936,-0.00000947,-0.00000771,-0.00000040
 ,0.00000708,0.00000381,0.00000113,-0.00000421,0.00000343,0.00000091,0.
 00000752,-0.00000011,-0.00000055,-0.00000259,0.00000589,0.00000420,-0.
 00004444,-0.00001994,-0.00000996,0.00001155,-0.00000495,-0.00000601,0.
 00001975,0.00000447,0.00000057,-0.00001905,-0.00002363,0.00002324,-0.0
 0000170,0.00001660,-0.00000991,0.00000516,0.00002286,-0.00000622,-0.00
 001698,-0.00002884,0.00000377,0.00002992,0.00000583,-0.00000366,-0.000
 00546,0.00000426,-0.00000267,-0.00000697\\\@


 ART, GLORY, FREEDOM FAIL, BUT NATURE STILL IS FAIR.

                                           -- BYRON
 Job cpu time:       0 days  0 hours 32 minutes  3.3 seconds.
 Elapsed time:       0 days  0 hours  1 minutes  4.5 seconds.
 File lengths (MBytes):  RWF=    190 Int=      0 D2E=      0 Chk=      7 Scr=      1
 Normal termination of Gaussian 16 at Sat May 27 16:05:40 2023.
