 Entering Gaussian System, Link 0=/opt/soft/g16/g16
 Initial command:
 /opt/soft/g16/l1.exe "/scratch/gongke2021/RC2-/Gau-18288.inp" -scrdir="/scratch/gongke2021/RC2-/"
 Entering Link 1 = /opt/soft/g16/l1.exe PID=     18289.
  
 Copyright (c) 1988,1990,1992,1993,1995,1998,2003,2009,2016,
            Gaussian, Inc.  All Rights Reserved.
  
 This is part of the Gaussian(R) 16 program.  It is based on
 the Gaussian(R) 09 system (copyright 2009, Gaussian, Inc.),
 the Gaussian(R) 03 system (copyright 2003, Gaussian, Inc.),
 the Gaussian(R) 98 system (copyright 1998, Gaussian, Inc.),
 the Gaussian(R) 94 system (copyright 1995, Gaussian, Inc.),
 the Gaussian 92(TM) system (copyright 1992, Gaussian, Inc.),
 the Gaussian 90(TM) system (copyright 1990, Gaussian, Inc.),
 the Gaussian 88(TM) system (copyright 1988, Gaussian, Inc.),
 the Gaussian 86(TM) system (copyright 1986, Carnegie Mellon
 University), and the Gaussian 82(TM) system (copyright 1983,
 Carnegie Mellon University). Gaussian is a federally registered
 trademark of Gaussian, Inc.
  
 This software contains proprietary and confidential information,
 including trade secrets, belonging to Gaussian, Inc.
  
 This software is provided under written license and may be
 used, copied, transmitted, or stored only in accord with that
 written license.
  
 The following legend is applicable only to US Government
 contracts under FAR:
  
                    RESTRICTED RIGHTS LEGEND
  
 Use, reproduction and disclosure by the US Government is
 subject to restrictions as set forth in subparagraphs (a)
 and (c) of the Commercial Computer Software - Restricted
 Rights clause in FAR 52.227-19.
  
 Gaussian, Inc.
 340 Quinnipiac St., Bldg. 40, Wallingford CT 06492
  
  
 ---------------------------------------------------------------
 Warning -- This program may not be used in any manner that
 competes with the business of Gaussian, Inc. or will provide
 assistance to any competitor of Gaussian, Inc.  The licensee
 of this program is prohibited from giving any competitor of
 Gaussian, Inc. access to this program.  By using this program,
 the user acknowledges that Gaussian, Inc. is engaged in the
 business of creating and licensing software in the field of
 computational chemistry and represents and warrants to the
 licensee that it is not a competitor of Gaussian, Inc. and that
 it will not use this program in any manner prohibited above.
 ---------------------------------------------------------------
  

 Cite this work as:
 Gaussian 16, Revision A.03,
 M. J. Frisch, G. W. Trucks, H. B. Schlegel, G. E. Scuseria, 
 M. A. Robb, J. R. Cheeseman, G. Scalmani, V. Barone, 
 G. A. Petersson, H. Nakatsuji, X. Li, M. Caricato, A. V. Marenich, 
 J. Bloino, B. G. Janesko, R. Gomperts, B. Mennucci, H. P. Hratchian, 
 J. V. Ortiz, A. F. Izmaylov, J. L. Sonnenberg, D. Williams-Young, 
 F. Ding, F. Lipparini, F. Egidi, J. Goings, B. Peng, A. Petrone, 
 T. Henderson, D. Ranasinghe, V. G. Zakrzewski, J. Gao, N. Rega, 
 G. Zheng, W. Liang, M. Hada, M. Ehara, K. Toyota, R. Fukuda, 
 J. Hasegawa, M. Ishida, T. Nakajima, Y. Honda, O. Kitao, H. Nakai, 
 T. Vreven, K. Throssell, J. A. Montgomery, Jr., J. E. Peralta, 
 F. Ogliaro, M. J. Bearpark, J. J. Heyd, E. N. Brothers, K. N. Kudin, 
 V. N. Staroverov, T. A. Keith, R. Kobayashi, J. Normand, 
 K. Raghavachari, A. P. Rendell, J. C. Burant, S. S. Iyengar, 
 J. Tomasi, M. Cossi, J. M. Millam, M. Klene, C. Adamo, R. Cammi, 
 J. W. Ochterski, R. L. Martin, K. Morokuma, O. Farkas, 
 J. B. Foresman, and D. J. Fox, Gaussian, Inc., Wallingford CT, 2016.
 
 ******************************************
 Gaussian 16:  ES64L-G16RevA.03 25-Dec-2016
                25-Jul-2023 
 ******************************************
 %mem=10GB
 %nprocshared=24
 Will use up to   24 processors via shared memory.
 ----------------------------
 # opt freq 6-31+g(d,p) m062x
 ----------------------------
 1/18=20,19=15,26=3,38=1/1,3;
 2/9=110,12=2,17=6,18=5,40=1/2;
 3/5=1,6=6,7=111,11=2,25=1,30=1,71=1,74=-55/1,2,3;
 4//1;
 5/5=2,38=5/2;
 6/7=2,8=2,9=2,10=2,28=1/1;
 7//1,2,3,16;
 1/18=20,19=15,26=3/3(2);
 2/9=110/2;
 99//99;
 2/9=110/2;
 3/5=1,6=6,7=111,11=2,25=1,30=1,71=1,74=-55/1,2,3;
 4/5=5,16=3,69=1/1;
 5/5=2,38=5/2;
 7//1,2,3,16;
 1/18=20,19=15,26=3/3(-5);
 2/9=110/2;
 6/7=2,8=2,9=2,10=2,19=2,28=1/1;
 99/9=1/99;
 --
 RC
 --
 Symbolic Z-matrix:
 Charge = -2 Multiplicity = 1
 N                     0.01742  -0.13433   0.37659 
 N                    -0.7325    1.0511    0.29997 
 C                    -1.99925   0.6592   -0.13699 
 C                    -1.9665   -0.71678  -0.2061 
 N                    -0.75112  -1.21811   0.07096 
 H                    -2.80424   1.36651  -0.25649 
 H                    -2.78089  -1.38556  -0.45328 
 H                    -0.16551   1.76878  -0.15701 
 C                     1.47103  -0.01548  -0.02006 
 O                     1.78737   1.17626  -0.21909 
 O                     2.08542  -1.0765   -0.05428 
 

 GradGradGradGradGradGradGradGradGradGradGradGradGradGradGradGradGradGrad
 Berny optimization.
 Initialization pass.
                           ----------------------------
                           !    Initial Parameters    !
                           ! (Angstroms and Degrees)  !
 --------------------------                            --------------------------
 ! Name  Definition              Value          Derivative Info.                !
 --------------------------------------------------------------------------------
 ! R1    R(1,2)                  1.4048         estimate D2E/DX2                !
 ! R2    R(1,5)                  1.3633         estimate D2E/DX2                !
 ! R3    R(1,9)                  1.5114         estimate D2E/DX2                !
 ! R4    R(2,3)                  1.3961         estimate D2E/DX2                !
 ! R5    R(2,8)                  1.0224         estimate D2E/DX2                !
 ! R6    R(3,4)                  1.3781         estimate D2E/DX2                !
 ! R7    R(3,6)                  1.0782         estimate D2E/DX2                !
 ! R8    R(4,5)                  1.3436         estimate D2E/DX2                !
 ! R9    R(4,7)                  1.0824         estimate D2E/DX2                !
 ! R10   R(9,10)                 1.249          estimate D2E/DX2                !
 ! R11   R(9,11)                 1.2265         estimate D2E/DX2                !
 ! A1    A(2,1,5)              110.9565         estimate D2E/DX2                !
 ! A2    A(2,1,9)              115.6411         estimate D2E/DX2                !
 ! A3    A(5,1,9)              123.0818         estimate D2E/DX2                !
 ! A4    A(1,2,3)              105.3404         estimate D2E/DX2                !
 ! A5    A(1,2,8)              108.7032         estimate D2E/DX2                !
 ! A6    A(3,2,8)              124.0767         estimate D2E/DX2                !
 ! A7    A(2,3,4)              105.9264         estimate D2E/DX2                !
 ! A8    A(2,3,6)              121.867          estimate D2E/DX2                !
 ! A9    A(4,3,6)              131.8488         estimate D2E/DX2                !
 ! A10   A(3,4,5)              112.5636         estimate D2E/DX2                !
 ! A11   A(3,4,7)              127.6241         estimate D2E/DX2                !
 ! A12   A(5,4,7)              119.8114         estimate D2E/DX2                !
 ! A13   A(1,5,4)              105.0428         estimate D2E/DX2                !
 ! A14   A(1,9,10)             111.1273         estimate D2E/DX2                !
 ! A15   A(1,9,11)             114.9008         estimate D2E/DX2                !
 ! A16   A(10,9,11)            133.9549         estimate D2E/DX2                !
 ! D1    D(5,1,2,3)             -2.9124         estimate D2E/DX2                !
 ! D2    D(5,1,2,8)           -137.8444         estimate D2E/DX2                !
 ! D3    D(9,1,2,3)            143.4114         estimate D2E/DX2                !
 ! D4    D(9,1,2,8)              8.4795         estimate D2E/DX2                !
 ! D5    D(2,1,5,4)              0.5361         estimate D2E/DX2                !
 ! D6    D(9,1,5,4)           -142.8366         estimate D2E/DX2                !
 ! D7    D(2,1,9,10)             7.0154         estimate D2E/DX2                !
 ! D8    D(2,1,9,11)          -174.2735         estimate D2E/DX2                !
 ! D9    D(5,1,9,10)           148.845          estimate D2E/DX2                !
 ! D10   D(5,1,9,11)           -32.4439         estimate D2E/DX2                !
 ! D11   D(1,2,3,4)              4.0106         estimate D2E/DX2                !
 ! D12   D(1,2,3,6)            177.901          estimate D2E/DX2                !
 ! D13   D(8,2,3,4)            129.9562         estimate D2E/DX2                !
 ! D14   D(8,2,3,6)            -56.1534         estimate D2E/DX2                !
 ! D15   D(2,3,4,5)             -4.0041         estimate D2E/DX2                !
 ! D16   D(2,3,4,7)            176.3244         estimate D2E/DX2                !
 ! D17   D(6,3,4,5)           -177.0346         estimate D2E/DX2                !
 ! D18   D(6,3,4,7)              3.294          estimate D2E/DX2                !
 ! D19   D(3,4,5,1)              2.1797         estimate D2E/DX2                !
 ! D20   D(7,4,5,1)           -178.1201         estimate D2E/DX2                !
 --------------------------------------------------------------------------------
 Trust Radius=3.00D-01 FncErr=1.00D-07 GrdErr=1.00D-06 EigMax=2.50D+02 EigMin=1.00D-04
 Number of steps in this run=     57 maximum allowed number of steps=    100.
 GradGradGradGradGradGradGradGradGradGradGradGradGradGradGradGradGradGrad

                          Input orientation:                          
 ---------------------------------------------------------------------
 Center     Atomic      Atomic             Coordinates (Angstroms)
 Number     Number       Type             X           Y           Z
 ---------------------------------------------------------------------
      1          7           0        0.017415   -0.134328    0.376587
      2          7           0       -0.732499    1.051096    0.299973
      3          6           0       -1.999251    0.659196   -0.136986
      4          6           0       -1.966497   -0.716783   -0.206095
      5          7           0       -0.751122   -1.218109    0.070957
      6          1           0       -2.804241    1.366506   -0.256492
      7          1           0       -2.780889   -1.385558   -0.453284
      8          1           0       -0.165513    1.768779   -0.157012
      9          6           0        1.471033   -0.015479   -0.020062
     10          8           0        1.787373    1.176257   -0.219092
     11          8           0        2.085424   -1.076500   -0.054280
 ---------------------------------------------------------------------
                    Distance matrix (angstroms):
                    1          2          3          4          5
     1  N    0.000000
     2  N    1.404803   0.000000
     3  C    2.227191   1.396130   0.000000
     4  C    2.148180   2.214555   1.378103   0.000000
     5  N    1.363320   2.280808   2.263921   1.343585   0.000000
     6  H    3.258072   2.168237   1.078229   2.245985   3.317040
     7  H    3.175652   3.271174   2.211791   1.082403   2.103051
     8  H    1.984945   1.022437   2.143402   3.069849   3.052279
     9  C    1.511443   2.468918   3.537192   3.513267   2.528354
    10  O    2.281495   2.575820   3.822645   4.204201   3.501582
    11  O    2.313006   3.548641   4.438925   4.070689   2.842838
                    6          7          8          9         10
     6  H    0.000000
     7  H    2.759190   0.000000
     8  H    2.671068   4.108261   0.000000
     9  C    4.499305   4.488166   2.424998   0.000000
    10  O    4.595706   5.242782   2.041739   1.248967   0.000000
    11  O    5.469734   4.892415   3.629447   1.226545   2.278357
                   11
    11  O    0.000000
 Stoichiometry    C3H3N3O2(2-)
 Framework group  C1[X(C3H3N3O2)]
 Deg. of freedom    27
 Full point group                 C1      NOp   1
 Largest Abelian subgroup         C1      NOp   1
 Largest concise Abelian subgroup C1      NOp   1
                         Standard orientation:                         
 ---------------------------------------------------------------------
 Center     Atomic      Atomic             Coordinates (Angstroms)
 Number     Number       Type             X           Y           Z
 ---------------------------------------------------------------------
      1          7           0        0.017415   -0.134328    0.376587
      2          7           0       -0.732499    1.051096    0.299973
      3          6           0       -1.999251    0.659196   -0.136986
      4          6           0       -1.966497   -0.716783   -0.206095
      5          7           0       -0.751122   -1.218109    0.070957
      6          1           0       -2.804241    1.366506   -0.256492
      7          1           0       -2.780889   -1.385558   -0.453284
      8          1           0       -0.165513    1.768779   -0.157012
      9          6           0        1.471033   -0.015479   -0.020062
     10          8           0        1.787373    1.176257   -0.219092
     11          8           0        2.085424   -1.076500   -0.054280
 ---------------------------------------------------------------------
 Rotational constants (GHZ):           5.0216930           1.8242098           1.3756125
 Standard basis: 6-31+G(d,p) (6D, 7F)
 There are   167 symmetry adapted cartesian basis functions of A   symmetry.
 There are   167 symmetry adapted basis functions of A   symmetry.
   167 basis functions,   277 primitive gaussians,   167 cartesian basis functions
    30 alpha electrons       30 beta electrons
       nuclear repulsion energy       359.5344348658 Hartrees.
 NAtoms=   11 NActive=   11 NUniq=   11 SFac= 1.00D+00 NAtFMM=   60 NAOKFM=F Big=F
 Integral buffers will be    131072 words long.
 Raffenetti 2 integral format.
 Two-electron integral symmetry is turned on.
 One-electron integrals computed using PRISM.
 NBasis=   167 RedAO= T EigKep=  5.25D-05  NBF=   167
 NBsUse=   167 1.00D-06 EigRej= -1.00D+00 NBFU=   167
 ExpMin= 4.38D-02 ExpMax= 5.48D+03 ExpMxC= 8.25D+02 IAcc=3 IRadAn=         5 AccDes= 0.00D+00
 Harris functional with IExCor= 1009 and IRadAn=       5 diagonalized for initial guess.
 HarFok:  IExCor= 1009 AccDes= 0.00D+00 IRadAn=         5 IDoV= 1 UseB2=F ITyADJ=14
 ICtDFT=  3500011 ScaDFX=  1.000000  1.000000  1.000000  1.000000
 FoFCou: FMM=F IPFlag=           0 FMFlag=      100000 FMFlg1=           0
         NFxFlg=           0 DoJE=T BraDBF=F KetDBF=T FulRan=T
         wScrn=  0.000000 ICntrl=       500 IOpCl=  0 I1Cent=   200000004 NGrid=           0
         NMat0=    1 NMatS0=      1 NMatT0=    0 NMatD0=    1 NMtDS0=    0 NMtDT0=    0
 Petite list used in FoFCou.
 Keep R1 ints in memory in canonical form, NReq=122219251.
 Requested convergence on RMS density matrix=1.00D-08 within 128 cycles.
 Requested convergence on MAX density matrix=1.00D-06.
 Requested convergence on             energy=1.00D-06.
 No special actions if energy rises.
 SCF Done:  E(RM062X) =  -430.493956959     A.U. after   34 cycles
            NFock= 34  Conv=0.48D-08     -V/T= 2.0074

 **********************************************************************

            Population analysis using the SCF density.

 **********************************************************************

 Orbital symmetries:
       Occupied  (A) (A) (A) (A) (A) (A) (A) (A) (A) (A) (A) (A)
                 (A) (A) (A) (A) (A) (A) (A) (A) (A) (A) (A) (A)
                 (A) (A) (A) (A) (A) (A)
       Virtual   (A) (A) (A) (A) (A) (A) (A) (A) (A) (A) (A) (A)
                 (A) (A) (A) (A) (A) (A) (A) (A) (A) (A) (A) (A)
                 (A) (A) (A) (A) (A) (A) (A) (A) (A) (A) (A) (A)
                 (A) (A) (A) (A) (A) (A) (A) (A) (A) (A) (A) (A)
                 (A) (A) (A) (A) (A) (A) (A) (A) (A) (A) (A) (A)
                 (A) (A) (A) (A) (A) (A) (A) (A) (A) (A) (A) (A)
                 (A) (A) (A) (A) (A) (A) (A) (A) (A) (A) (A) (A)
                 (A) (A) (A) (A) (A) (A) (A) (A) (A) (A) (A) (A)
                 (A) (A) (A) (A) (A) (A) (A) (A) (A) (A) (A) (A)
                 (A) (A) (A) (A) (A) (A) (A) (A) (A) (A) (A) (A)
                 (A) (A) (A) (A) (A) (A) (A) (A) (A) (A) (A) (A)
                 (A) (A) (A) (A) (A)
 The electronic state is 1-A.
 Alpha  occ. eigenvalues --  -19.27866 -19.27360 -14.48387 -14.47059 -14.43639
 Alpha  occ. eigenvalues --  -10.34419 -10.26386 -10.24761  -0.86793  -0.82039
 Alpha  occ. eigenvalues --   -0.75914  -0.65045  -0.57563  -0.40552  -0.37240
 Alpha  occ. eigenvalues --   -0.32415  -0.25437  -0.22494  -0.19671  -0.19328
 Alpha  occ. eigenvalues --   -0.17886  -0.16453  -0.13855  -0.04716  -0.02826
 Alpha  occ. eigenvalues --   -0.02399  -0.00998  -0.00395   0.00369   0.18198
 Alpha virt. eigenvalues --    0.24871   0.25249   0.28732   0.29605   0.30322
 Alpha virt. eigenvalues --    0.30998   0.31585   0.32475   0.33192   0.33541
 Alpha virt. eigenvalues --    0.37537   0.39077   0.41340   0.41957   0.44141
 Alpha virt. eigenvalues --    0.46035   0.47809   0.48798   0.49059   0.50026
 Alpha virt. eigenvalues --    0.50832   0.51703   0.53493   0.54116   0.55180
 Alpha virt. eigenvalues --    0.55767   0.56424   0.56706   0.57456   0.58866
 Alpha virt. eigenvalues --    0.59933   0.60997   0.61348   0.62218   0.62833
 Alpha virt. eigenvalues --    0.63339   0.65618   0.67068   0.68290   0.70850
 Alpha virt. eigenvalues --    0.73373   0.79828   0.83734   0.84572   0.99461
 Alpha virt. eigenvalues --    1.01051   1.04716   1.08189   1.13049   1.16496
 Alpha virt. eigenvalues --    1.18859   1.20300   1.20583   1.23690   1.24019
 Alpha virt. eigenvalues --    1.28303   1.30048   1.32291   1.33382   1.36791
 Alpha virt. eigenvalues --    1.38509   1.40322   1.43084   1.45994   1.48232
 Alpha virt. eigenvalues --    1.48871   1.52166   1.55434   1.59530   1.61178
 Alpha virt. eigenvalues --    1.64289   1.66805   1.69127   1.70087   1.71667
 Alpha virt. eigenvalues --    1.73367   1.75461   1.82406   1.83756   1.83893
 Alpha virt. eigenvalues --    1.86217   1.87344   1.93493   1.95584   2.09404
 Alpha virt. eigenvalues --    2.11842   2.17539   2.20025   2.21495   2.23100
 Alpha virt. eigenvalues --    2.24828   2.27511   2.28752   2.33745   2.36976
 Alpha virt. eigenvalues --    2.37272   2.40988   2.44795   2.45790   2.49589
 Alpha virt. eigenvalues --    2.54832   2.58958   2.62410   2.65855   2.68600
 Alpha virt. eigenvalues --    2.76278   2.78379   2.80516   2.82988   2.85992
 Alpha virt. eigenvalues --    2.86769   2.97243   3.01908   3.03272   3.04432
 Alpha virt. eigenvalues --    3.11455   3.15997   3.19468   3.20704   3.25855
 Alpha virt. eigenvalues --    3.28813   3.41818   3.43957   3.49426   3.53278
 Alpha virt. eigenvalues --    3.59005   3.63155   3.79189   4.01991   4.38501
 Alpha virt. eigenvalues --    4.52696   4.58915   4.69892   4.72367   4.89581
 Alpha virt. eigenvalues --    4.93173   4.98194
          Condensed to atoms (all electrons):
               1          2          3          4          5          6
     1  N   12.286849  -0.607260  -9.701397  10.750084  -5.258750  -0.071193
     2  N   -0.607260   8.908840  -1.416780   0.291094  -0.698468   0.018761
     3  C   -9.701397  -1.416780  51.588078 -48.805890  14.279755   1.029003
     4  C   10.750084   0.291094 -48.805890  59.574622 -15.152329  -0.813086
     5  N   -5.258750  -0.698468  14.279755 -15.152329  14.827289   0.100404
     6  H   -0.071193   0.018761   1.029003  -0.813086   0.100404   0.604654
     7  H   -0.063843   0.007976   0.264641   0.054590   0.016416   0.002250
     8  H   -0.071176   0.361947   0.111775  -0.170832   0.063284   0.000907
     9  C    0.499974   0.320438  -2.117301   2.189158  -1.208460  -0.010622
    10  O   -0.306801  -0.018350   0.261532  -0.286678   0.180251   0.000623
    11  O   -0.309853   0.019206   0.110229  -0.127129   0.110183   0.000141
               7          8          9         10         11
     1  N   -0.063843  -0.071176   0.499974  -0.306801  -0.309853
     2  N    0.007976   0.361947   0.320438  -0.018350   0.019206
     3  C    0.264641   0.111775  -2.117301   0.261532   0.110229
     4  C    0.054590  -0.170832   2.189158  -0.286678  -0.127129
     5  N    0.016416   0.063284  -1.208460   0.180251   0.110183
     6  H    0.002250   0.000907  -0.010622   0.000623   0.000141
     7  H    0.642738  -0.000049  -0.001252   0.000187   0.000119
     8  H   -0.000049   0.359064  -0.020455   0.022489   0.003310
     9  C   -0.001252  -0.020455   5.028603   0.285696   0.473191
    10  O    0.000187   0.022489   0.285696   8.746483  -0.149159
    11  O    0.000119   0.003310   0.473191  -0.149159   8.547772
 Mulliken charges:
               1
     1  N   -0.146635
     2  N   -0.187405
     3  C    0.396354
     4  C   -1.503604
     5  N   -0.259576
     6  H    0.138158
     7  H    0.076226
     8  H    0.339735
     9  C    0.561031
    10  O   -0.736274
    11  O   -0.678011
 Sum of Mulliken charges =  -2.00000
 Mulliken charges with hydrogens summed into heavy atoms:
               1
     1  N   -0.146635
     2  N    0.152330
     3  C    0.534512
     4  C   -1.427378
     5  N   -0.259576
     9  C    0.561031
    10  O   -0.736274
    11  O   -0.678011
 Electronic spatial extent (au):  <R**2>=            883.1993
 Charge=             -2.0000 electrons
 Dipole moment (field-independent basis, Debye):
    X=             -0.4106    Y=             -1.5065    Z=              1.7898  Tot=              2.3751
 Quadrupole moment (field-independent basis, Debye-Ang):
   XX=            -95.7004   YY=            -78.4046   ZZ=            -63.8800
   XY=             10.0699   XZ=             -5.3602   YZ=              3.6821
 Traceless Quadrupole moment (field-independent basis, Debye-Ang):
   XX=            -16.3721   YY=              0.9237   ZZ=             15.4483
   XY=             10.0699   XZ=             -5.3602   YZ=              3.6821
 Octapole moment (field-independent basis, Debye-Ang**2):
  XXX=             39.2290  YYY=            -31.3422  ZZZ=             20.4234  XYY=             23.1024
  XXY=            -32.5425  XXZ=             28.3744  XZZ=             33.5128  YZZ=            -15.3945
  YYZ=              8.4622  XYZ=            -11.2643
 Hexadecapole moment (field-independent basis, Debye-Ang**3):
 XXXX=          -1233.9069 YYYY=           -537.6749 ZZZZ=           -168.4956 XXXY=            127.6138
 XXXZ=            -85.8240 YYYX=            102.8603 YYYZ=             30.9719 ZZZX=            -61.0985
 ZZZY=             27.0716 XXYY=           -338.5410 XXZZ=           -242.5726 YYZZ=           -119.8948
 XXYZ=             42.4689 YYXZ=            -29.3467 ZZXY=             35.4151
 N-N= 3.595344348658D+02 E-N=-1.747483545898D+03  KE= 4.273259817419D+02
 Calling FoFJK, ICntrl=      2127 FMM=F ISym2X=0 I1Cent= 0 IOpClX= 0 NMat=1 NMatS=1 NMatT=0.
 ***** Axes restored to original set *****
 -------------------------------------------------------------------
 Center     Atomic                   Forces (Hartrees/Bohr)
 Number     Number              X              Y              Z
 -------------------------------------------------------------------
      1        7           0.059063903    0.003774301    0.004481583
      2        7           0.007945781    0.040361766    0.020179716
      3        6          -0.025691544    0.007220999   -0.018810523
      4        6           0.017155456   -0.008884091   -0.003486590
      5        7          -0.030462802   -0.028359215   -0.001779593
      6        1          -0.000324792   -0.001354336    0.005015896
      7        1          -0.001780108   -0.001250035   -0.001044682
      8        1          -0.006416027   -0.010236901   -0.004842099
      9        6          -0.060775413    0.001563340    0.001944059
     10        8           0.017806741    0.015326532   -0.000856221
     11        8           0.023478806   -0.018162361   -0.000801546
 -------------------------------------------------------------------
 Cartesian Forces:  Max     0.060775413 RMS     0.020704128

 GradGradGradGradGradGradGradGradGradGradGradGradGradGradGradGradGradGrad
 Berny optimization.
 FormGI is forming the generalized inverse of G from B-inverse, IUseBI=4.
 Internal  Forces:  Max     0.033310374 RMS     0.010606925
 Search for a local minimum.
 Step number   1 out of a maximum of   57
 All quantities printed in internal units (Hartrees-Bohrs-Radians)
 Mixed Optimization -- RFO/linear search
 Second derivative matrix not updated -- first step.
 ITU=  0
     Eigenvalues ---    0.00230   0.00236   0.01494   0.02077   0.02170
     Eigenvalues ---    0.02318   0.02396   0.03654   0.10495   0.15842
     Eigenvalues ---    0.16000   0.21046   0.22272   0.23204   0.25000
     Eigenvalues ---    0.25000   0.31206   0.35706   0.36209   0.41012
     Eigenvalues ---    0.43455   0.43952   0.47446   0.50982   0.54411
     Eigenvalues ---    0.83620   0.92541
 RFO step:  Lambda=-1.81314600D-02 EMin= 2.30000000D-03
 Linear search not attempted -- first point.
 Iteration  1 RMS(Cart)=  0.04967330 RMS(Int)=  0.01592035
 Iteration  2 RMS(Cart)=  0.01777145 RMS(Int)=  0.00757742
 Iteration  3 RMS(Cart)=  0.00063520 RMS(Int)=  0.00755144
 Iteration  4 RMS(Cart)=  0.00001794 RMS(Int)=  0.00755143
 Iteration  5 RMS(Cart)=  0.00000070 RMS(Int)=  0.00755143
 Variable       Old X    -DE/DX   Delta X   Delta X   Delta X     New X
                                 (Linear)    (Quad)   (Total)
    R1        2.65469   0.02810   0.00000   0.06649   0.06681   2.72150
    R2        2.57630   0.03331   0.00000   0.06309   0.06258   2.63888
    R3        2.85621  -0.01892   0.00000  -0.05730  -0.05730   2.79891
    R4        2.63830   0.02412   0.00000   0.05225   0.05288   2.69118
    R5        1.93213  -0.00858   0.00000  -0.01875  -0.01875   1.91338
    R6        2.60424   0.01393   0.00000   0.02256   0.02264   2.62688
    R7        2.03756  -0.00120   0.00000  -0.00316  -0.00316   2.03440
    R8        2.53901  -0.00553   0.00000  -0.01378  -0.01435   2.52466
    R9        2.04545   0.00235   0.00000   0.00626   0.00626   2.05171
   R10        2.36021   0.01927   0.00000   0.02255   0.02255   2.38276
   R11        2.31783   0.02750   0.00000   0.02914   0.02914   2.34698
    A1        1.93656  -0.00579   0.00000  -0.01152  -0.01170   1.92485
    A2        2.01832   0.00489   0.00000   0.00770   0.00763   2.02595
    A3        2.14818   0.00045   0.00000  -0.00725  -0.00748   2.14070
    A4        1.83854  -0.00432   0.00000  -0.01222  -0.01400   1.82454
    A5        1.89723   0.00206   0.00000  -0.02484  -0.02964   1.86759
    A6        2.16555  -0.00488   0.00000  -0.07290  -0.07457   2.09098
    A7        1.84876  -0.00066   0.00000  -0.00419  -0.00393   1.84484
    A8        2.12698   0.00020   0.00000   0.00036   0.00010   2.12708
    A9        2.30120   0.00028   0.00000   0.00016  -0.00044   2.30076
   A10        1.96461   0.01008   0.00000   0.02907   0.02797   1.99257
   A11        2.22746  -0.00526   0.00000  -0.01567  -0.01582   2.21164
   A12        2.09110  -0.00481   0.00000  -0.01312  -0.01327   2.07783
   A13        1.83334   0.00060   0.00000  -0.00137  -0.00317   1.83017
   A14        1.93954   0.01118   0.00000   0.03836   0.01100   1.95053
   A15        2.00540   0.00681   0.00000   0.02206  -0.00514   2.00026
   A16        2.33795  -0.01820   0.00000  -0.07123  -0.10223   2.23572
    D1       -0.05083  -0.00392   0.00000  -0.07129  -0.07031  -0.12114
    D2       -2.40584   0.00408   0.00000   0.04929   0.04991  -2.35593
    D3        2.50300  -0.00455   0.00000  -0.09003  -0.08960   2.41340
    D4        0.14799   0.00345   0.00000   0.03055   0.03062   0.17861
    D5        0.00936   0.00473   0.00000   0.09270   0.09220   0.10156
    D6       -2.49297   0.00390   0.00000   0.10736   0.10717  -2.38580
    D7        0.12244   0.00678   0.00000   0.27579   0.26932   0.39176
    D8       -3.04165  -0.00163   0.00000  -0.13434  -0.12728   3.11426
    D9        2.59783   0.00407   0.00000   0.25392   0.24685   2.84469
   D10       -0.56625  -0.00433   0.00000  -0.15621  -0.14974  -0.71599
   D11        0.07000   0.00157   0.00000   0.02031   0.02053   0.09053
   D12        3.10496   0.00007   0.00000  -0.01086  -0.01101   3.09395
   D13        2.26816  -0.00392   0.00000  -0.08917  -0.08701   2.18116
   D14       -0.98006  -0.00543   0.00000  -0.12034  -0.11855  -1.09861
   D15       -0.06989   0.00076   0.00000   0.03613   0.03684  -0.03304
   D16        3.07744  -0.00120   0.00000  -0.02086  -0.02096   3.05648
   D17       -3.08984   0.00250   0.00000   0.07172   0.07281  -3.01702
   D18        0.05749   0.00053   0.00000   0.01472   0.01501   0.07250
   D19        0.03804  -0.00339   0.00000  -0.07932  -0.08010  -0.04206
   D20       -3.10878  -0.00160   0.00000  -0.02732  -0.02713  -3.13591
         Item               Value     Threshold  Converged?
 Maximum Force            0.033310     0.000450     NO 
 RMS     Force            0.010607     0.000300     NO 
 Maximum Displacement     0.235064     0.001800     NO 
 RMS     Displacement     0.060099     0.001200     NO 
 Predicted change in Energy=-1.114632D-02
 GradGradGradGradGradGradGradGradGradGradGradGradGradGradGradGradGradGrad

                          Input orientation:                          
 ---------------------------------------------------------------------
 Center     Atomic      Atomic             Coordinates (Angstroms)
 Number     Number       Type             X           Y           Z
 ---------------------------------------------------------------------
      1          7           0        0.045945   -0.124092    0.363261
      2          7           0       -0.732061    1.086870    0.315046
      3          6           0       -2.014912    0.669657   -0.141382
      4          6           0       -1.956241   -0.717383   -0.212181
      5          7           0       -0.766010   -1.231615    0.109986
      6          1           0       -2.835869    1.359336   -0.238065
      7          1           0       -2.773975   -1.390307   -0.451492
      8          1           0       -0.200314    1.759208   -0.223835
      9          6           0        1.438071   -0.023753   -0.132359
     10          8           0        1.863228    1.162712   -0.094702
     11          8           0        2.093372   -1.075555   -0.050063
 ---------------------------------------------------------------------
                    Distance matrix (angstroms):
                    1          2          3          4          5
     1  N    0.000000
     2  N    1.440155   0.000000
     3  C    2.265354   1.424114   0.000000
     4  C    2.166074   2.243193   1.390084   0.000000
     5  N    1.396433   2.327783   2.288619   1.335992   0.000000
     6  H    3.296513   2.192299   1.076557   2.255477   3.334438
     7  H    3.196728   3.300515   2.217159   1.085718   2.091019
     8  H    1.988000   1.012515   2.118180   3.035939   3.062103
     9  C    1.481122   2.478533   3.521930   3.465379   2.525002
    10  O    2.273348   2.628530   3.909635   4.258744   3.561964
    11  O    2.295230   3.576655   4.464538   4.068653   2.868107
                    6          7          8          9         10
     6  H    0.000000
     7  H    2.758607   0.000000
     8  H    2.665755   4.073697   0.000000
     9  C    4.493403   4.439667   2.423143   0.000000
    10  O    4.705393   5.305549   2.151903   1.260902   0.000000
    11  O    5.501041   4.894005   3.650627   1.241966   2.250510
                   11
    11  O    0.000000
 Stoichiometry    C3H3N3O2(2-)
 Framework group  C1[X(C3H3N3O2)]
 Deg. of freedom    27
 Full point group                 C1      NOp   1
 Largest Abelian subgroup         C1      NOp   1
 Largest concise Abelian subgroup C1      NOp   1
                         Standard orientation:                         
 ---------------------------------------------------------------------
 Center     Atomic      Atomic             Coordinates (Angstroms)
 Number     Number       Type             X           Y           Z
 ---------------------------------------------------------------------
      1          7           0        0.039266   -0.119200    0.356306
      2          7           0       -0.737861    1.091375    0.288270
      3          6           0       -2.023266    0.666653   -0.153821
      4          6           0       -1.966197   -0.721559   -0.197912
      5          7           0       -0.774902   -1.230623    0.128501
      6          1           0       -2.844050    1.355144   -0.259973
      7          1           0       -2.785681   -1.398188   -0.420180
      8          1           0       -0.208095    1.752576   -0.266120
      9          6           0        1.429088   -0.029911   -0.147820
     10          8           0        1.855500    1.156634   -0.135276
     11          8           0        2.083820   -1.080571   -0.048218
 ---------------------------------------------------------------------
 Rotational constants (GHZ):           4.9813453           1.7975441           1.3549825
 Standard basis: 6-31+G(d,p) (6D, 7F)
 There are   167 symmetry adapted cartesian basis functions of A   symmetry.
 There are   167 symmetry adapted basis functions of A   symmetry.
   167 basis functions,   277 primitive gaussians,   167 cartesian basis functions
    30 alpha electrons       30 beta electrons
       nuclear repulsion energy       356.9063092036 Hartrees.
 NAtoms=   11 NActive=   11 NUniq=   11 SFac= 1.00D+00 NAtFMM=   60 NAOKFM=F Big=F
 Integral buffers will be    131072 words long.
 Raffenetti 2 integral format.
 Two-electron integral symmetry is turned on.
 One-electron integrals computed using PRISM.
 NBasis=   167 RedAO= T EigKep=  5.14D-05  NBF=   167
 NBsUse=   167 1.00D-06 EigRej= -1.00D+00 NBFU=   167
 Initial guess from the checkpoint file:  "/scratch/gongke2021/RC2-/Gau-18289.chk"
 B after Tr=     0.000000   -0.000000   -0.000000
         Rot=    0.999991    0.002977    0.000030    0.002953 Ang=   0.48 deg.
 ExpMin= 4.38D-02 ExpMax= 5.48D+03 ExpMxC= 8.25D+02 IAcc=2 IRadAn=         4 AccDes= 0.00D+00
 Harris functional with IExCor= 1009 and IRadAn=       4 diagonalized for initial guess.
 HarFok:  IExCor= 1009 AccDes= 0.00D+00 IRadAn=         4 IDoV= 1 UseB2=F ITyADJ=14
 ICtDFT=  3500011 ScaDFX=  1.000000  1.000000  1.000000  1.000000
 FoFCou: FMM=F IPFlag=           0 FMFlag=      100000 FMFlg1=           0
         NFxFlg=           0 DoJE=T BraDBF=F KetDBF=T FulRan=T
         wScrn=  0.000000 ICntrl=       500 IOpCl=  0 I1Cent=   200000004 NGrid=           0
         NMat0=    1 NMatS0=      1 NMatT0=    0 NMatD0=    1 NMtDS0=    0 NMtDT0=    0
 Petite list used in FoFCou.
 Keep R1 ints in memory in canonical form, NReq=122219251.
 Requested convergence on RMS density matrix=1.00D-08 within 128 cycles.
 Requested convergence on MAX density matrix=1.00D-06.
 Requested convergence on             energy=1.00D-06.
 No special actions if energy rises.
 SCF Done:  E(RM062X) =  -430.496332535     A.U. after   26 cycles
            NFock= 26  Conv=0.66D-08     -V/T= 2.0078
 Calling FoFJK, ICntrl=      2127 FMM=F ISym2X=0 I1Cent= 0 IOpClX= 0 NMat=1 NMatS=1 NMatT=0.
 ***** Axes restored to original set *****
 -------------------------------------------------------------------
 Center     Atomic                   Forces (Hartrees/Bohr)
 Number     Number              X              Y              Z
 -------------------------------------------------------------------
      1        7           0.026651779    0.000405628   -0.009395685
      2        7           0.000070205    0.017481977    0.019983925
      3        6          -0.008794505   -0.003983971   -0.019499719
      4        6           0.008915708    0.000716404    0.003374156
      5        7          -0.017127025   -0.011043708   -0.006349014
      6        1          -0.002416125   -0.000034478    0.003655579
      7        1          -0.001951468   -0.000720217   -0.000283637
      8        1           0.000684223   -0.002399662   -0.006539120
      9        6          -0.021113306    0.002421385    0.062431329
     10        8           0.003637624    0.016176003   -0.024026912
     11        8           0.011442889   -0.019019362   -0.023350903
 -------------------------------------------------------------------
 Cartesian Forces:  Max     0.062431329 RMS     0.016363507

 GradGradGradGradGradGradGradGradGradGradGradGradGradGradGradGradGradGrad
 Berny optimization.
 Using GEDIIS/GDIIS optimizer.
 FormGI is forming the generalized inverse of G from B-inverse, IUseBI=4.
 Internal  Forces:  Max     0.029564210 RMS     0.010287398
 Search for a local minimum.
 Step number   2 out of a maximum of   57
 All quantities printed in internal units (Hartrees-Bohrs-Radians)
 Mixed Optimization -- RFO/linear search
 Update second derivatives using D2CorX and points    1    2
 DE= -2.38D-03 DEPred=-1.11D-02 R= 2.13D-01
 Trust test= 2.13D-01 RLast= 5.30D-01 DXMaxT set to 3.00D-01
 ITU=  0  0
 Use linear search instead of GDIIS.
     Eigenvalues ---    0.00236   0.01160   0.01607   0.02169   0.02400
     Eigenvalues ---    0.02464   0.03095   0.08917   0.11748   0.15716
     Eigenvalues ---    0.15938   0.16826   0.20926   0.22477   0.23189
     Eigenvalues ---    0.25249   0.28808   0.35055   0.35871   0.36236
     Eigenvalues ---    0.42736   0.44159   0.47429   0.47821   0.54435
     Eigenvalues ---    0.81532   0.89900
 RFO step:  Lambda=-3.53257506D-02 EMin= 2.35766479D-03
 Quartic linear search produced a step of -0.42532.
 Maximum step size (   0.300) exceeded in Quadratic search.
    -- Step size scaled by   0.613
 Iteration  1 RMS(Cart)=  0.06837885 RMS(Int)=  0.00863122
 Iteration  2 RMS(Cart)=  0.00927382 RMS(Int)=  0.00287653
 Iteration  3 RMS(Cart)=  0.00008264 RMS(Int)=  0.00287560
 Iteration  4 RMS(Cart)=  0.00000046 RMS(Int)=  0.00287560
 Variable       Old X    -DE/DX   Delta X   Delta X   Delta X     New X
                                 (Linear)    (Quad)   (Total)
    R1        2.72150   0.01302  -0.02841   0.11483   0.08657   2.80806
    R2        2.63888   0.01618  -0.02662   0.11045   0.08390   2.72278
    R3        2.79891  -0.01074   0.02437  -0.09861  -0.07424   2.72468
    R4        2.69118   0.01387  -0.02249   0.09259   0.07013   2.76131
    R5        1.91338   0.00224   0.00797  -0.02826  -0.02029   1.89309
    R6        2.62688   0.00093  -0.00963   0.03660   0.02683   2.65371
    R7        2.03440   0.00149   0.00134  -0.00373  -0.00239   2.03201
    R8        2.52466  -0.00405   0.00610  -0.02486  -0.01888   2.50578
    R9        2.05171   0.00198  -0.00266   0.01143   0.00877   2.06048
   R10        2.38276   0.01573  -0.00959   0.04288   0.03328   2.41604
   R11        2.34698   0.02060  -0.01239   0.05496   0.04257   2.38954
    A1        1.92485  -0.00334   0.00498  -0.02328  -0.01800   1.90686
    A2        2.02595   0.00041  -0.00324   0.01223   0.00871   2.03465
    A3        2.14070   0.00051   0.00318  -0.01075  -0.00788   2.13282
    A4        1.82454  -0.00359   0.00595  -0.02129  -0.01513   1.80941
    A5        1.86759  -0.00025   0.01260  -0.02891  -0.01706   1.85054
    A6        2.09098  -0.00353   0.03171  -0.09670  -0.06514   2.02584
    A7        1.84484   0.00065   0.00167  -0.00823  -0.00655   1.83828
    A8        2.12708  -0.00004  -0.00004   0.00206   0.00190   2.12898
    A9        2.30076  -0.00108   0.00019  -0.00009  -0.00001   2.30075
   A10        1.99257   0.00546  -0.01190   0.04727   0.03553   2.02811
   A11        2.21164  -0.00339   0.00673  -0.02734  -0.02042   2.19122
   A12        2.07783  -0.00202   0.00564  -0.02147  -0.01563   2.06220
   A13        1.83017   0.00042   0.00135  -0.00419  -0.00265   1.82752
   A14        1.95053   0.01309  -0.00468   0.09548   0.07948   2.03002
   A15        2.00026   0.01832   0.00218   0.07664   0.06751   2.06777
   A16        2.23572  -0.00472   0.04348  -0.08750  -0.05540   2.18032
    D1       -0.12114  -0.00278   0.02990  -0.07200  -0.04196  -0.16310
    D2       -2.35593   0.00369  -0.02123   0.07212   0.05102  -2.30491
    D3        2.41340  -0.00597   0.03811  -0.10666  -0.06849   2.34491
    D4        0.17861   0.00050  -0.01302   0.03747   0.02449   0.20310
    D5        0.10156   0.00151  -0.03922   0.07836   0.03932   0.14088
    D6       -2.38580   0.00513  -0.04558   0.10675   0.06114  -2.32465
    D7        0.39176  -0.02450  -0.11455  -0.04492  -0.16007   0.23169
    D8        3.11426   0.02794   0.05413   0.10165   0.15630  -3.01262
    D9        2.84469  -0.02956  -0.10499  -0.08740  -0.19291   2.65178
   D10       -0.71599   0.02288   0.06369   0.05917   0.12346  -0.59254
   D11        0.09053   0.00351  -0.00873   0.03890   0.02996   0.12049
   D12        3.09395   0.00039   0.00468  -0.00209   0.00228   3.09623
   D13        2.18116  -0.00194   0.03701  -0.07682  -0.03943   2.14173
   D14       -1.09861  -0.00506   0.05042  -0.11782  -0.06711  -1.16572
   D15       -0.03304  -0.00291  -0.01567   0.00855  -0.00723  -0.04027
   D16        3.05648  -0.00188   0.00892  -0.02706  -0.01826   3.03822
   D17       -3.01702   0.00050  -0.03097   0.05518   0.02420  -2.99282
   D18        0.07250   0.00153  -0.00638   0.01958   0.01317   0.08567
   D19       -0.04206   0.00079   0.03407  -0.05492  -0.02097  -0.06303
   D20       -3.13591  -0.00008   0.01154  -0.02188  -0.01049   3.13679
         Item               Value     Threshold  Converged?
 Maximum Force            0.029564     0.000450     NO 
 RMS     Force            0.010287     0.000300     NO 
 Maximum Displacement     0.240811     0.001800     NO 
 RMS     Displacement     0.069288     0.001200     NO 
 Predicted change in Energy=-2.147560D-02
 GradGradGradGradGradGradGradGradGradGradGradGradGradGradGradGradGradGrad

                          Input orientation:                          
 ---------------------------------------------------------------------
 Center     Atomic      Atomic             Coordinates (Angstroms)
 Number     Number       Type             X           Y           Z
 ---------------------------------------------------------------------
      1          7           0        0.064513   -0.118388    0.447822
      2          7           0       -0.744638    1.126517    0.388041
      3          6           0       -2.021986    0.681965   -0.165065
      4          6           0       -1.934041   -0.718353   -0.223241
      5          7           0       -0.781344   -1.249075    0.161342
      6          1           0       -2.850733    1.354442   -0.296245
      7          1           0       -2.743935   -1.393376   -0.501266
      8          1           0       -0.221415    1.769756   -0.174135
      9          6           0        1.419907   -0.030646   -0.036023
     10          8           0        1.880042    1.147591   -0.222133
     11          8           0        2.094862   -1.095354   -0.134884
 ---------------------------------------------------------------------
                    Distance matrix (angstroms):
                    1          2          3          4          5
     1  N    0.000000
     2  N    1.485963   0.000000
     3  C    2.317256   1.461222   0.000000
     4  C    2.191918   2.278572   1.404282   0.000000
     5  N    1.440833   2.386666   2.318329   1.326002   0.000000
     6  H    3.349854   2.226170   1.075292   2.267627   3.357090
     7  H    3.227033   3.337352   2.222900   1.090358   2.076447
     8  H    2.008401   1.001779   2.103670   3.020958   3.088593
     9  C    1.441838   2.490805   3.517257   3.428843   2.523694
    10  O    2.312507   2.694754   3.930125   4.246055   3.601949
    11  O    2.327300   3.643202   4.484218   4.047468   2.895504
                    6          7          8          9         10
     6  H    0.000000
     7  H    2.757525   0.000000
     8  H    2.664715   4.059005   0.000000
     9  C    4.497171   4.405799   2.440176   0.000000
    10  O    4.735875   5.283520   2.192149   1.278516   0.000000
    11  O    5.521453   4.861790   3.684500   1.264493   2.254897
                   11
    11  O    0.000000
 Stoichiometry    C3H3N3O2(2-)
 Framework group  C1[X(C3H3N3O2)]
 Deg. of freedom    27
 Full point group                 C1      NOp   1
 Largest Abelian subgroup         C1      NOp   1
 Largest concise Abelian subgroup C1      NOp   1
                         Standard orientation:                         
 ---------------------------------------------------------------------
 Center     Atomic      Atomic             Coordinates (Angstroms)
 Number     Number       Type             X           Y           Z
 ---------------------------------------------------------------------
      1          7           0        0.050878   -0.112755    0.439658
      2          7           0       -0.768456    1.123830    0.352280
      3          6           0       -2.034837    0.660032   -0.210161
      4          6           0       -1.933782   -0.740114   -0.247399
      5          7           0       -0.781306   -1.254949    0.158834
      6          1           0       -2.867808    1.323089   -0.361054
      7          1           0       -2.734146   -1.426264   -0.525784
      8          1           0       -0.243994    1.763799   -0.212468
      9          6           0        1.411358   -0.019592   -0.028652
     10          8           0        1.863324    1.160017   -0.225759
     11          8           0        2.096890   -1.079449   -0.104094
 ---------------------------------------------------------------------
 Rotational constants (GHZ):           4.7547353           1.7777871           1.3455188
 Standard basis: 6-31+G(d,p) (6D, 7F)
 There are   167 symmetry adapted cartesian basis functions of A   symmetry.
 There are   167 symmetry adapted basis functions of A   symmetry.
   167 basis functions,   277 primitive gaussians,   167 cartesian basis functions
    30 alpha electrons       30 beta electrons
       nuclear repulsion energy       353.1073228048 Hartrees.
 NAtoms=   11 NActive=   11 NUniq=   11 SFac= 1.00D+00 NAtFMM=   60 NAOKFM=F Big=F
 Integral buffers will be    131072 words long.
 Raffenetti 2 integral format.
 Two-electron integral symmetry is turned on.
 One-electron integrals computed using PRISM.
 NBasis=   167 RedAO= T EigKep=  6.01D-05  NBF=   167
 NBsUse=   167 1.00D-06 EigRej= -1.00D+00 NBFU=   167
 Initial guess from the checkpoint file:  "/scratch/gongke2021/RC2-/Gau-18289.chk"
 B after Tr=    -0.000000    0.000000    0.000000
         Rot=    0.999994    0.001944    0.000614   -0.002944 Ang=   0.41 deg.
 ExpMin= 4.38D-02 ExpMax= 5.48D+03 ExpMxC= 8.25D+02 IAcc=2 IRadAn=         4 AccDes= 0.00D+00
 Harris functional with IExCor= 1009 and IRadAn=       4 diagonalized for initial guess.
 HarFok:  IExCor= 1009 AccDes= 0.00D+00 IRadAn=         4 IDoV= 1 UseB2=F ITyADJ=14
 ICtDFT=  3500011 ScaDFX=  1.000000  1.000000  1.000000  1.000000
 FoFCou: FMM=F IPFlag=           0 FMFlag=      100000 FMFlg1=           0
         NFxFlg=           0 DoJE=T BraDBF=F KetDBF=T FulRan=T
         wScrn=  0.000000 ICntrl=       500 IOpCl=  0 I1Cent=   200000004 NGrid=           0
         NMat0=    1 NMatS0=      1 NMatT0=    0 NMatD0=    1 NMtDS0=    0 NMtDT0=    0
 Petite list used in FoFCou.
 Keep R1 ints in memory in canonical form, NReq=122219251.
 Requested convergence on RMS density matrix=1.00D-08 within 128 cycles.
 Requested convergence on MAX density matrix=1.00D-06.
 Requested convergence on             energy=1.00D-06.
 No special actions if energy rises.
 SCF Done:  E(RM062X) =  -430.509234589     A.U. after   23 cycles
            NFock= 23  Conv=0.13D-08     -V/T= 2.0085
 Calling FoFJK, ICntrl=      2127 FMM=F ISym2X=0 I1Cent= 0 IOpClX= 0 NMat=1 NMatS=1 NMatT=0.
 ***** Axes restored to original set *****
 -------------------------------------------------------------------
 Center     Atomic                   Forces (Hartrees/Bohr)
 Number     Number              X              Y              Z
 -------------------------------------------------------------------
      1        7           0.002367291    0.004216541    0.000527458
      2        7          -0.008772184   -0.007017937    0.019213399
      3        6           0.011849226   -0.016627499   -0.010045447
      4        6           0.000174787    0.014966665    0.003806894
      5        7           0.003400958    0.000572807   -0.003838775
      6        1          -0.003401978    0.001151734    0.003145202
      7        1          -0.000300439    0.000434122   -0.000074156
      8        1           0.009815728    0.003014052   -0.014150544
      9        6           0.010354205   -0.001628596   -0.002041782
     10        8          -0.013242852   -0.002133431    0.002366351
     11        8          -0.012244741    0.003051542    0.001091398
 -------------------------------------------------------------------
 Cartesian Forces:  Max     0.019213399 RMS     0.007959560

 GradGradGradGradGradGradGradGradGradGradGradGradGradGradGradGradGradGrad
 Berny optimization.
 Using GEDIIS/GDIIS optimizer.
 FormGI is forming the generalized inverse of G from B-inverse, IUseBI=4.
 Internal  Forces:  Max     0.015971855 RMS     0.005817375
 Search for a local minimum.
 Step number   3 out of a maximum of   57
 All quantities printed in internal units (Hartrees-Bohrs-Radians)
 Mixed Optimization -- RFO/linear search
 Update second derivatives using D2CorX and points    1    2    3
 DE= -1.29D-02 DEPred=-2.15D-02 R= 6.01D-01
 TightC=F SS=  1.41D+00  RLast= 4.20D-01 DXNew= 5.0454D-01 1.2611D+00
 Trust test= 6.01D-01 RLast= 4.20D-01 DXMaxT set to 5.05D-01
 ITU=  1  0  0
 Use linear search instead of GDIIS.
     Eigenvalues ---    0.00231   0.01507   0.01979   0.02203   0.02402
     Eigenvalues ---    0.02560   0.03765   0.09358   0.11779   0.15624
     Eigenvalues ---    0.15972   0.18524   0.20630   0.22473   0.24216
     Eigenvalues ---    0.25274   0.29513   0.35698   0.36211   0.38050
     Eigenvalues ---    0.43053   0.45332   0.47528   0.50984   0.54497
     Eigenvalues ---    0.82532   0.90477
 RFO step:  Lambda=-6.87895271D-03 EMin= 2.31131769D-03
 Quartic linear search produced a step of -0.03162.
 Iteration  1 RMS(Cart)=  0.07124743 RMS(Int)=  0.00335926
 Iteration  2 RMS(Cart)=  0.00367114 RMS(Int)=  0.00119144
 Iteration  3 RMS(Cart)=  0.00001076 RMS(Int)=  0.00119137
 Iteration  4 RMS(Cart)=  0.00000002 RMS(Int)=  0.00119137
 Variable       Old X    -DE/DX   Delta X   Delta X   Delta X     New X
                                 (Linear)    (Quad)   (Total)
    R1        2.80806  -0.00920  -0.00274   0.00215   0.00009   2.80816
    R2        2.72278  -0.00443  -0.00265   0.00861   0.00614   2.72892
    R3        2.72468  -0.01474   0.00235  -0.05364  -0.05129   2.67339
    R4        2.76131  -0.00346  -0.00222   0.00629   0.00424   2.76555
    R5        1.89309   0.01500   0.00064   0.02363   0.02427   1.91736
    R6        2.65371  -0.01369  -0.00085  -0.02062  -0.02202   2.63169
    R7        2.03201   0.00296   0.00008   0.00579   0.00587   2.03787
    R8        2.50578  -0.00113   0.00060  -0.00717  -0.00714   2.49864
    R9        2.06048  -0.00003  -0.00028   0.00129   0.00102   2.06150
   R10        2.41604  -0.00708  -0.00105  -0.00271  -0.00376   2.41228
   R11        2.38954  -0.00919  -0.00135  -0.00255  -0.00389   2.38565
    A1        1.90686   0.00419   0.00057   0.00709   0.00648   1.91333
    A2        2.03465  -0.00641  -0.00028  -0.04672  -0.04939   1.98527
    A3        2.13282  -0.00039   0.00025  -0.02744  -0.02962   2.10320
    A4        1.80941  -0.00378   0.00048  -0.01714  -0.01648   1.79294
    A5        1.85054  -0.00263   0.00054  -0.06859  -0.07225   1.77829
    A6        2.02584  -0.00173   0.00206  -0.06898  -0.07042   1.95542
    A7        1.83828   0.00258   0.00021   0.00687   0.00664   1.84492
    A8        2.12898  -0.00157  -0.00006  -0.00931  -0.01048   2.11850
    A9        2.30075  -0.00136   0.00000  -0.01065  -0.01186   2.28889
   A10        2.02811   0.00169  -0.00112   0.00899   0.00775   2.03585
   A11        2.19122  -0.00131   0.00065  -0.00711  -0.00642   2.18481
   A12        2.06220  -0.00025   0.00049  -0.00145  -0.00091   2.06129
   A13        1.82752  -0.00484   0.00008  -0.01189  -0.01112   1.81640
   A14        2.03002  -0.01171  -0.00251  -0.02655  -0.02863   2.00139
   A15        2.06777  -0.00400  -0.00213  -0.00649  -0.00820   2.05957
   A16        2.18032   0.01597   0.00175   0.03771   0.03989   2.22021
    D1       -0.16310  -0.00108   0.00133  -0.03589  -0.03339  -0.19649
    D2       -2.30491   0.00402  -0.00161   0.08399   0.08132  -2.22360
    D3        2.34491  -0.00436   0.00217  -0.13236  -0.12909   2.21582
    D4        0.20310   0.00075  -0.00077  -0.01248  -0.01439   0.18871
    D5        0.14088  -0.00069  -0.00124   0.01408   0.01234   0.15322
    D6       -2.32465   0.00525  -0.00193   0.12430   0.12280  -2.20185
    D7        0.23169  -0.00044   0.00506   0.06581   0.06961   0.30130
    D8       -3.01262   0.00316  -0.00494   0.11532   0.10908  -2.90354
    D9        2.65178  -0.00285   0.00610  -0.03234  -0.02495   2.62683
   D10       -0.59254   0.00075  -0.00390   0.01717   0.01453  -0.57801
   D11        0.12049   0.00230  -0.00095   0.04313   0.04118   0.16167
   D12        3.09623   0.00034  -0.00007  -0.02862  -0.02972   3.06650
   D13        2.14173  -0.00429   0.00125  -0.08706  -0.08430   2.05743
   D14       -1.16572  -0.00625   0.00212  -0.15881  -0.15521  -1.32093
   D15       -0.04027  -0.00331   0.00023  -0.04055  -0.03995  -0.08022
   D16        3.03822  -0.00084   0.00058  -0.03220  -0.03145   3.00677
   D17       -2.99282  -0.00111  -0.00077   0.04075   0.04015  -2.95267
   D18        0.08567   0.00137  -0.00042   0.04910   0.04865   0.13432
   D19       -0.06303   0.00278   0.00066   0.01711   0.01777  -0.04526
   D20        3.13679   0.00054   0.00033   0.00966   0.01013  -3.13627
         Item               Value     Threshold  Converged?
 Maximum Force            0.015972     0.000450     NO 
 RMS     Force            0.005817     0.000300     NO 
 Maximum Displacement     0.208401     0.001800     NO 
 RMS     Displacement     0.073179     0.001200     NO 
 Predicted change in Energy=-3.765139D-03
 GradGradGradGradGradGradGradGradGradGradGradGradGradGradGradGradGradGrad

                          Input orientation:                          
 ---------------------------------------------------------------------
 Center     Atomic      Atomic             Coordinates (Angstroms)
 Number     Number       Type             X           Y           Z
 ---------------------------------------------------------------------
      1          7           0        0.066271   -0.121052    0.527988
      2          7           0       -0.730201    1.130181    0.436972
      3          6           0       -1.968258    0.678724   -0.199536
      4          6           0       -1.898166   -0.712039   -0.216234
      5          7           0       -0.774074   -1.254405    0.220261
      6          1           0       -2.799619    1.349105   -0.349088
      7          1           0       -2.709102   -1.378709   -0.512863
      8          1           0       -0.163879    1.693398   -0.188748
      9          6           0        1.361103   -0.014149   -0.031789
     10          8           0        1.769761    1.182797   -0.204523
     11          8           0        2.007397   -1.078773   -0.238225
 ---------------------------------------------------------------------
                    Distance matrix (angstroms):
                    1          2          3          4          5
     1  N    0.000000
     2  N    1.486013   0.000000
     3  C    2.303962   1.463468   0.000000
     4  C    2.182234   2.276970   1.392628   0.000000
     5  N    1.444080   2.394815   2.310691   1.322222   0.000000
     6  H    3.338256   2.224480   1.078396   2.253571   3.347425
     7  H    3.219902   3.333581   2.209084   1.090897   2.072982
     8  H    1.964410   1.014623   2.070136   2.965574   3.037955
     9  C    1.414697   2.429564   3.404828   3.338248   2.482085
    10  O    2.266820   2.581491   3.771856   4.128465   3.548449
    11  O    2.296145   3.581873   4.346967   3.922805   2.824472
                    6          7          8          9         10
     6  H    0.000000
     7  H    2.734224   0.000000
     8  H    2.662964   4.002631   0.000000
     9  C    4.389846   4.319725   2.294760   0.000000
    10  O    4.574691   5.168810   1.999981   1.276525   0.000000
    11  O    5.386491   4.734000   3.521622   1.262433   2.274270
                   11
    11  O    0.000000
 Stoichiometry    C3H3N3O2(2-)
 Framework group  C1[X(C3H3N3O2)]
 Deg. of freedom    27
 Full point group                 C1      NOp   1
 Largest Abelian subgroup         C1      NOp   1
 Largest concise Abelian subgroup C1      NOp   1
                         Standard orientation:                         
 ---------------------------------------------------------------------
 Center     Atomic      Atomic             Coordinates (Angstroms)
 Number     Number       Type             X           Y           Z
 ---------------------------------------------------------------------
      1          7           0        0.064332   -0.116473    0.515139
      2          7           0       -0.729568    1.131786    0.374393
      3          6           0       -1.953188    0.663845   -0.277929
      4          6           0       -1.883113   -0.726869   -0.257529
      5          7           0       -0.769219   -1.257570    0.217726
      6          1           0       -2.780814    1.329935   -0.463124
      7          1           0       -2.687386   -1.401143   -0.555111
      8          1           0       -0.149231    1.679011   -0.252674
      9          6           0        1.371397   -0.023508   -0.018064
     10          8           0        1.784141    1.168760   -0.212120
     11          8           0        2.021865   -1.092861   -0.182725
 ---------------------------------------------------------------------
 Rotational constants (GHZ):           4.6235041           1.8877123           1.4144605
 Standard basis: 6-31+G(d,p) (6D, 7F)
 There are   167 symmetry adapted cartesian basis functions of A   symmetry.
 There are   167 symmetry adapted basis functions of A   symmetry.
   167 basis functions,   277 primitive gaussians,   167 cartesian basis functions
    30 alpha electrons       30 beta electrons
       nuclear repulsion energy       357.0238376373 Hartrees.
 NAtoms=   11 NActive=   11 NUniq=   11 SFac= 1.00D+00 NAtFMM=   60 NAOKFM=F Big=F
 Integral buffers will be    131072 words long.
 Raffenetti 2 integral format.
 Two-electron integral symmetry is turned on.
 One-electron integrals computed using PRISM.
 NBasis=   167 RedAO= T EigKep=  5.79D-05  NBF=   167
 NBsUse=   167 1.00D-06 EigRej= -1.00D+00 NBFU=   167
 Initial guess from the checkpoint file:  "/scratch/gongke2021/RC2-/Gau-18289.chk"
 B after Tr=    -0.000000   -0.000000    0.000000
         Rot=    0.999997   -0.000302   -0.000759    0.002178 Ang=  -0.27 deg.
 ExpMin= 4.38D-02 ExpMax= 5.48D+03 ExpMxC= 8.25D+02 IAcc=2 IRadAn=         4 AccDes= 0.00D+00
 Harris functional with IExCor= 1009 and IRadAn=       4 diagonalized for initial guess.
 HarFok:  IExCor= 1009 AccDes= 0.00D+00 IRadAn=         4 IDoV= 1 UseB2=F ITyADJ=14
 ICtDFT=  3500011 ScaDFX=  1.000000  1.000000  1.000000  1.000000
 FoFCou: FMM=F IPFlag=           0 FMFlag=      100000 FMFlg1=           0
         NFxFlg=           0 DoJE=T BraDBF=F KetDBF=T FulRan=T
         wScrn=  0.000000 ICntrl=       500 IOpCl=  0 I1Cent=   200000004 NGrid=           0
         NMat0=    1 NMatS0=      1 NMatT0=    0 NMatD0=    1 NMtDS0=    0 NMtDT0=    0
 Petite list used in FoFCou.
 Keep R1 ints in memory in canonical form, NReq=122219251.
 Requested convergence on RMS density matrix=1.00D-08 within 128 cycles.
 Requested convergence on MAX density matrix=1.00D-06.
 Requested convergence on             energy=1.00D-06.
 No special actions if energy rises.
 SCF Done:  E(RM062X) =  -430.512677559     A.U. after   22 cycles
            NFock= 22  Conv=0.35D-08     -V/T= 2.0082
 Calling FoFJK, ICntrl=      2127 FMM=F ISym2X=0 I1Cent= 0 IOpClX= 0 NMat=1 NMatS=1 NMatT=0.
 ***** Axes restored to original set *****
 -------------------------------------------------------------------
 Center     Atomic                   Forces (Hartrees/Bohr)
 Number     Number              X              Y              Z
 -------------------------------------------------------------------
      1        7          -0.011283597    0.000997136    0.006014720
      2        7          -0.007152994   -0.000329561    0.004949698
      3        6           0.005953437   -0.007658933   -0.005561082
      4        6          -0.004925910    0.007137401   -0.000176390
      5        7           0.004349320   -0.001069702    0.001146542
      6        1          -0.002716220   -0.000073336    0.003634870
      7        1          -0.000261296   -0.000045250   -0.000931568
      8        1           0.003863549    0.002432715   -0.002401612
      9        6           0.012708402   -0.004436690   -0.008066499
     10        8           0.001902933   -0.002702846   -0.000643123
     11        8          -0.002437624    0.005749067    0.002034442
 -------------------------------------------------------------------
 Cartesian Forces:  Max     0.012708402 RMS     0.004956727

 GradGradGradGradGradGradGradGradGradGradGradGradGradGradGradGradGradGrad
 Berny optimization.
 Using GEDIIS/GDIIS optimizer.
 FormGI is forming the generalized inverse of G from B-inverse, IUseBI=4.
 Internal  Forces:  Max     0.013677719 RMS     0.003061019
 Search for a local minimum.
 Step number   4 out of a maximum of   57
 All quantities printed in internal units (Hartrees-Bohrs-Radians)
 Mixed Optimization -- RFO/linear search
 Update second derivatives using D2CorX and points    3    4
 DE= -3.44D-03 DEPred=-3.77D-03 R= 9.14D-01
 TightC=F SS=  1.41D+00  RLast= 3.45D-01 DXNew= 8.4853D-01 1.0343D+00
 Trust test= 9.14D-01 RLast= 3.45D-01 DXMaxT set to 8.49D-01
 ITU=  1  1  0  0
 Use linear search instead of GDIIS.
     Eigenvalues ---    0.00238   0.01486   0.01817   0.02221   0.02402
     Eigenvalues ---    0.03284   0.04522   0.08754   0.11282   0.15271
     Eigenvalues ---    0.15975   0.18513   0.20388   0.22282   0.23691
     Eigenvalues ---    0.25472   0.30898   0.35744   0.36153   0.41692
     Eigenvalues ---    0.43147   0.46336   0.47580   0.49593   0.56096
     Eigenvalues ---    0.81878   0.89822
 RFO step:  Lambda=-2.11469883D-03 EMin= 2.38311982D-03
 Quartic linear search produced a step of -0.05544.
 Iteration  1 RMS(Cart)=  0.05197919 RMS(Int)=  0.00223547
 Iteration  2 RMS(Cart)=  0.00241597 RMS(Int)=  0.00047166
 Iteration  3 RMS(Cart)=  0.00000513 RMS(Int)=  0.00047165
 Iteration  4 RMS(Cart)=  0.00000000 RMS(Int)=  0.00047165
 Variable       Old X    -DE/DX   Delta X   Delta X   Delta X     New X
                                 (Linear)    (Quad)   (Total)
    R1        2.80816   0.00164  -0.00001  -0.00651  -0.00676   2.80140
    R2        2.72892  -0.00065  -0.00034  -0.00930  -0.00998   2.71893
    R3        2.67339   0.01368   0.00284   0.03362   0.03647   2.70986
    R4        2.76555   0.00037  -0.00024  -0.00618  -0.00617   2.75939
    R5        1.91736   0.00499  -0.00135   0.02026   0.01892   1.93627
    R6        2.63169  -0.00628   0.00122  -0.02148  -0.01993   2.61175
    R7        2.03787   0.00154  -0.00033   0.00603   0.00571   2.04358
    R8        2.49864   0.00333   0.00040   0.00560   0.00602   2.50465
    R9        2.06150   0.00048  -0.00006   0.00057   0.00051   2.06201
   R10        2.41228  -0.00184   0.00021  -0.00707  -0.00687   2.40542
   R11        2.38565  -0.00643   0.00022  -0.01266  -0.01245   2.37320
    A1        1.91333  -0.00065  -0.00036   0.00190   0.00133   1.91466
    A2        1.98527   0.00578   0.00274   0.01014   0.01301   1.99828
    A3        2.10320  -0.00471   0.00164  -0.03142  -0.02948   2.07372
    A4        1.79294  -0.00130   0.00091  -0.00933  -0.00810   1.78484
    A5        1.77829   0.00021   0.00401  -0.02571  -0.02161   1.75668
    A6        1.95542   0.00020   0.00390  -0.01118  -0.00742   1.94799
    A7        1.84492   0.00242  -0.00037   0.00786   0.00661   1.85153
    A8        2.11850  -0.00079   0.00058  -0.01208  -0.01366   2.10485
    A9        2.28889  -0.00204   0.00066  -0.02154  -0.02267   2.26622
   A10        2.03585  -0.00065  -0.00043  -0.00446  -0.00447   2.03139
   A11        2.18481   0.00002   0.00036  -0.00029  -0.00018   2.18463
   A12        2.06129   0.00061   0.00005   0.00425   0.00408   2.06537
   A13        1.81640   0.00007   0.00062  -0.00390  -0.00353   1.81287
   A14        2.00139   0.00413   0.00159   0.00121   0.00279   2.00418
   A15        2.05957  -0.00154   0.00045  -0.01210  -0.01165   2.04792
   A16        2.22021  -0.00267  -0.00221   0.01042   0.00820   2.22841
    D1       -0.19649  -0.00036   0.00185  -0.03591  -0.03405  -0.23054
    D2       -2.22360  -0.00021  -0.00451  -0.01146  -0.01604  -2.23964
    D3        2.21582  -0.00218   0.00716  -0.07059  -0.06347   2.15235
    D4        0.18871  -0.00202   0.00080  -0.04614  -0.04546   0.14325
    D5        0.15322   0.00066  -0.00068   0.02722   0.02662   0.17984
    D6       -2.20185  -0.00263  -0.00681   0.04310   0.03608  -2.16577
    D7        0.30130  -0.00017  -0.00386  -0.08710  -0.09083   0.21047
    D8       -2.90354  -0.00151  -0.00605  -0.09412  -0.10004  -3.00357
    D9        2.62683   0.00038   0.00138  -0.10796  -0.10671   2.52012
   D10       -0.57801  -0.00097  -0.00081  -0.11498  -0.11592  -0.69392
   D11        0.16167   0.00031  -0.00228   0.03111   0.02873   0.19041
   D12        3.06650  -0.00151   0.00165  -0.06847  -0.06706   2.99945
   D13        2.05743  -0.00003   0.00467  -0.00714  -0.00247   2.05496
   D14       -1.32093  -0.00185   0.00861  -0.10673  -0.09826  -1.41919
   D15       -0.08022   0.00013   0.00222  -0.01742  -0.01505  -0.09527
   D16        3.00677  -0.00030   0.00174  -0.02825  -0.02624   2.98052
   D17       -2.95267   0.00185  -0.00223   0.09326   0.09050  -2.86217
   D18        0.13432   0.00142  -0.00270   0.08244   0.07930   0.21363
   D19       -0.04526  -0.00061  -0.00098  -0.00603  -0.00714  -0.05241
   D20       -3.13627  -0.00020  -0.00056   0.00413   0.00337  -3.13290
         Item               Value     Threshold  Converged?
 Maximum Force            0.013678     0.000450     NO 
 RMS     Force            0.003061     0.000300     NO 
 Maximum Displacement     0.238909     0.001800     NO 
 RMS     Displacement     0.052168     0.001200     NO 
 Predicted change in Energy=-1.146517D-03
 GradGradGradGradGradGradGradGradGradGradGradGradGradGradGradGradGradGrad

                          Input orientation:                          
 ---------------------------------------------------------------------
 Center     Atomic      Atomic             Coordinates (Angstroms)
 Number     Number       Type             X           Y           Z
 ---------------------------------------------------------------------
      1          7           0        0.057046   -0.116899    0.545413
      2          7           0       -0.744479    1.128032    0.472477
      3          6           0       -1.951995    0.679639   -0.215306
      4          6           0       -1.887172   -0.700659   -0.242208
      5          7           0       -0.771771   -1.247165    0.220297
      6          1           0       -2.806828    1.335121   -0.310514
      7          1           0       -2.696474   -1.361880   -0.555994
      8          1           0       -0.152247    1.699039   -0.138329
      9          6           0        1.359124   -0.021252   -0.047700
     10          8           0        1.731847    1.162430   -0.330948
     11          8           0        2.024183   -1.081328   -0.152975
 ---------------------------------------------------------------------
                    Distance matrix (angstroms):
                    1          2          3          4          5
     1  N    0.000000
     2  N    1.482436   0.000000
     3  C    2.291159   1.460204   0.000000
     4  C    2.177408   2.271703   1.382081   0.000000
     5  N    1.438797   2.388702   2.301141   1.325405   0.000000
     6  H    3.323063   2.215681   1.081416   2.234912   3.330378
     7  H    3.216356   3.326815   2.199572   1.091166   2.078526
     8  H    1.951650   1.024632   2.069829   2.962989   3.031920
     9  C    1.433994   2.452873   3.388635   3.322328   2.472933
    10  O    2.282466   2.603625   3.717142   4.071397   3.518255
    11  O    2.299456   3.596936   4.349124   3.930848   2.825631
                    6          7          8          9         10
     6  H    0.000000
     7  H    2.710397   0.000000
     8  H    2.684936   4.002094   0.000000
     9  C    4.389074   4.301572   2.291693   0.000000
    10  O    4.542004   5.102236   1.968466   1.272892   0.000000
    11  O    5.403953   4.746128   3.530935   1.255845   2.269710
                   11
    11  O    0.000000
 Stoichiometry    C3H3N3O2(2-)
 Framework group  C1[X(C3H3N3O2)]
 Deg. of freedom    27
 Full point group                 C1      NOp   1
 Largest Abelian subgroup         C1      NOp   1
 Largest concise Abelian subgroup C1      NOp   1
                         Standard orientation:                         
 ---------------------------------------------------------------------
 Center     Atomic      Atomic             Coordinates (Angstroms)
 Number     Number       Type             X           Y           Z
 ---------------------------------------------------------------------
      1          7           0        0.057544   -0.125286    0.533405
      2          7           0       -0.758579    1.109125    0.445148
      3          6           0       -1.942471    0.647456   -0.274196
      4          6           0       -1.858453   -0.731733   -0.304619
      5          7           0       -0.747660   -1.265180    0.183514
      6          1           0       -2.803403    1.291855   -0.388245
      7          1           0       -2.650736   -1.402414   -0.640949
      8          1           0       -0.159060    1.690460   -0.148569
      9          6           0        1.372574   -0.009864   -0.026696
     10          8           0        1.736285    1.179826   -0.296148
     11          8           0        2.054234   -1.060535   -0.119307
 ---------------------------------------------------------------------
 Rotational constants (GHZ):           4.6144081           1.8914092           1.4281770
 Standard basis: 6-31+G(d,p) (6D, 7F)
 There are   167 symmetry adapted cartesian basis functions of A   symmetry.
 There are   167 symmetry adapted basis functions of A   symmetry.
   167 basis functions,   277 primitive gaussians,   167 cartesian basis functions
    30 alpha electrons       30 beta electrons
       nuclear repulsion energy       357.4276826959 Hartrees.
 NAtoms=   11 NActive=   11 NUniq=   11 SFac= 1.00D+00 NAtFMM=   60 NAOKFM=F Big=F
 Integral buffers will be    131072 words long.
 Raffenetti 2 integral format.
 Two-electron integral symmetry is turned on.
 One-electron integrals computed using PRISM.
 NBasis=   167 RedAO= T EigKep=  5.64D-05  NBF=   167
 NBsUse=   167 1.00D-06 EigRej= -1.00D+00 NBFU=   167
 Initial guess from the checkpoint file:  "/scratch/gongke2021/RC2-/Gau-18289.chk"
 B after Tr=     0.000000   -0.000000   -0.000000
         Rot=    0.999974   -0.002085    0.000632   -0.006915 Ang=  -0.83 deg.
 ExpMin= 4.38D-02 ExpMax= 5.48D+03 ExpMxC= 8.25D+02 IAcc=2 IRadAn=         4 AccDes= 0.00D+00
 Harris functional with IExCor= 1009 and IRadAn=       4 diagonalized for initial guess.
 HarFok:  IExCor= 1009 AccDes= 0.00D+00 IRadAn=         4 IDoV= 1 UseB2=F ITyADJ=14
 ICtDFT=  3500011 ScaDFX=  1.000000  1.000000  1.000000  1.000000
 FoFCou: FMM=F IPFlag=           0 FMFlag=      100000 FMFlg1=           0
         NFxFlg=           0 DoJE=T BraDBF=F KetDBF=T FulRan=T
         wScrn=  0.000000 ICntrl=       500 IOpCl=  0 I1Cent=   200000004 NGrid=           0
         NMat0=    1 NMatS0=      1 NMatT0=    0 NMatD0=    1 NMtDS0=    0 NMtDT0=    0
 Petite list used in FoFCou.
 Keep R1 ints in memory in canonical form, NReq=122219251.
 Requested convergence on RMS density matrix=1.00D-08 within 128 cycles.
 Requested convergence on MAX density matrix=1.00D-06.
 Requested convergence on             energy=1.00D-06.
 No special actions if energy rises.
 SCF Done:  E(RM062X) =  -430.513886468     A.U. after   22 cycles
            NFock= 22  Conv=0.24D-08     -V/T= 2.0081
 Calling FoFJK, ICntrl=      2127 FMM=F ISym2X=0 I1Cent= 0 IOpClX= 0 NMat=1 NMatS=1 NMatT=0.
 ***** Axes restored to original set *****
 -------------------------------------------------------------------
 Center     Atomic                   Forces (Hartrees/Bohr)
 Number     Number              X              Y              Z
 -------------------------------------------------------------------
      1        7           0.000345857   -0.001621613    0.007089506
      2        7           0.000722686    0.003079086   -0.002038166
      3        6          -0.000162781    0.004870118   -0.007902928
      4        6          -0.002447494   -0.002886459    0.001895928
      5        7          -0.000611040   -0.002795639    0.000674964
      6        1          -0.001469553   -0.001143964    0.003550120
      7        1           0.000169382   -0.000188004   -0.001136330
      8        1          -0.001102144   -0.000505662    0.001824584
      9        6           0.001473965   -0.000975370   -0.003771373
     10        8           0.003042496    0.000142485    0.000390853
     11        8           0.000038627    0.002025022   -0.000577158
 -------------------------------------------------------------------
 Cartesian Forces:  Max     0.007902928 RMS     0.002659278

 GradGradGradGradGradGradGradGradGradGradGradGradGradGradGradGradGradGrad
 Berny optimization.
 Using GEDIIS/GDIIS optimizer.
 FormGI is forming the generalized inverse of G from B-inverse, IUseBI=4.
 Internal  Forces:  Max     0.005851810 RMS     0.001699569
 Search for a local minimum.
 Step number   5 out of a maximum of   57
 All quantities printed in internal units (Hartrees-Bohrs-Radians)
 Mixed Optimization -- RFO/linear search
 Update second derivatives using D2CorX and points    3    4    5
 DE= -1.21D-03 DEPred=-1.15D-03 R= 1.05D+00
 TightC=F SS=  1.41D+00  RLast= 2.97D-01 DXNew= 1.4270D+00 8.9103D-01
 Trust test= 1.05D+00 RLast= 2.97D-01 DXMaxT set to 8.91D-01
 ITU=  1  1  1  0  0
 Use linear search instead of GDIIS.
     Eigenvalues ---    0.00366   0.00770   0.01616   0.02277   0.02411
     Eigenvalues ---    0.03452   0.04794   0.08815   0.12050   0.14647
     Eigenvalues ---    0.15972   0.18369   0.22022   0.22699   0.23426
     Eigenvalues ---    0.25408   0.30924   0.35727   0.36069   0.40668
     Eigenvalues ---    0.43098   0.45997   0.47572   0.53489   0.61018
     Eigenvalues ---    0.82176   0.88997
 RFO step:  Lambda=-2.28853635D-03 EMin= 3.65864105D-03
 Quartic linear search produced a step of  0.16515.
 Iteration  1 RMS(Cart)=  0.07406711 RMS(Int)=  0.00528850
 Iteration  2 RMS(Cart)=  0.00589998 RMS(Int)=  0.00249865
 Iteration  3 RMS(Cart)=  0.00002162 RMS(Int)=  0.00249859
 Iteration  4 RMS(Cart)=  0.00000003 RMS(Int)=  0.00249859
 Variable       Old X    -DE/DX   Delta X   Delta X   Delta X     New X
                                 (Linear)    (Quad)   (Total)
    R1        2.80140   0.00373  -0.00112   0.00139  -0.00040   2.80100
    R2        2.71893   0.00315  -0.00165  -0.00241  -0.00532   2.71361
    R3        2.70986   0.00585   0.00602   0.04408   0.05011   2.75996
    R4        2.75939   0.00293  -0.00102   0.00132   0.00141   2.76080
    R5        1.93627  -0.00200   0.00312   0.02270   0.02582   1.96210
    R6        2.61175   0.00363  -0.00329  -0.01998  -0.02221   2.58954
    R7        2.04358   0.00016   0.00094   0.00843   0.00937   2.05295
    R8        2.50465   0.00211   0.00099   0.00838   0.00918   2.51383
    R9        2.06201   0.00031   0.00008   0.00180   0.00188   2.06389
   R10        2.40542   0.00094  -0.00113  -0.00690  -0.00803   2.39739
   R11        2.37320  -0.00164  -0.00206  -0.01599  -0.01805   2.35515
    A1        1.91466  -0.00091   0.00022  -0.00637  -0.00799   1.90667
    A2        1.99828  -0.00007   0.00215  -0.00904  -0.00832   1.98996
    A3        2.07372   0.00027  -0.00487  -0.04546  -0.05091   2.02281
    A4        1.78484   0.00068  -0.00134  -0.00504  -0.00387   1.78097
    A5        1.75668   0.00060  -0.00357  -0.03089  -0.03522   1.72146
    A6        1.94799  -0.00003  -0.00123  -0.01970  -0.02181   1.92618
    A7        1.85153  -0.00052   0.00109   0.00030  -0.00352   1.84801
    A8        2.10485   0.00068  -0.00226  -0.02477  -0.03860   2.06625
    A9        2.26622  -0.00092  -0.00374  -0.04682  -0.05977   2.20646
   A10        2.03139  -0.00000  -0.00074  -0.00106   0.00019   2.03158
   A11        2.18463   0.00006  -0.00003  -0.00179  -0.00289   2.18174
   A12        2.06537  -0.00004   0.00067   0.00378   0.00344   2.06881
   A13        1.81287   0.00075  -0.00058  -0.00088  -0.00162   1.81124
   A14        2.00418   0.00286   0.00046   0.00584   0.00630   2.01047
   A15        2.04792   0.00008  -0.00192  -0.01395  -0.01588   2.03204
   A16        2.22841  -0.00303   0.00135   0.00840   0.00975   2.23816
    D1       -0.23054   0.00001  -0.00562  -0.04721  -0.05245  -0.28300
    D2       -2.23964  -0.00037  -0.00265  -0.01445  -0.01722  -2.25686
    D3        2.15235  -0.00061  -0.01048  -0.13047  -0.14102   2.01132
    D4        0.14325  -0.00099  -0.00751  -0.09771  -0.10579   0.03746
    D5        0.17984  -0.00026   0.00440   0.01687   0.02139   0.20123
    D6       -2.16577   0.00059   0.00596   0.08523   0.09030  -2.07547
    D7        0.21047   0.00226  -0.01500   0.20784   0.19247   0.40293
    D8       -3.00357   0.00092  -0.01652   0.21210   0.19521  -2.80836
    D9        2.52012   0.00102  -0.01762   0.13638   0.11913   2.63924
   D10       -0.69392  -0.00032  -0.01914   0.14064   0.12187  -0.57205
   D11        0.19041   0.00025   0.00475   0.05932   0.06316   0.25356
   D12        2.99945  -0.00197  -0.01107  -0.13730  -0.14875   2.85070
   D13        2.05496   0.00125  -0.00041   0.01516   0.01473   2.06969
   D14       -1.41919  -0.00097  -0.01623  -0.18147  -0.19717  -1.61636
   D15       -0.09527  -0.00039  -0.00249  -0.05661  -0.05758  -0.15286
   D16        2.98052  -0.00007  -0.00433  -0.03942  -0.04206   2.93847
   D17       -2.86217   0.00168   0.01495   0.15768   0.16970  -2.69247
   D18        0.21363   0.00200   0.01310   0.17487   0.18523   0.39885
   D19       -0.05241   0.00035  -0.00118   0.02465   0.02252  -0.02989
   D20       -3.13290   0.00005   0.00056   0.00889   0.00828  -3.12462
         Item               Value     Threshold  Converged?
 Maximum Force            0.005852     0.000450     NO 
 RMS     Force            0.001700     0.000300     NO 
 Maximum Displacement     0.262692     0.001800     NO 
 RMS     Displacement     0.074388     0.001200     NO 
 Predicted change in Energy=-1.414020D-03
 GradGradGradGradGradGradGradGradGradGradGradGradGradGradGradGradGradGrad

                          Input orientation:                          
 ---------------------------------------------------------------------
[...]
    A2        2.01222  -0.00000   0.00000  -0.00003  -0.00003   2.01220
    A3        2.01641   0.00001   0.00000   0.00011   0.00011   2.01652
    A4        1.82887   0.00000   0.00000   0.00001   0.00001   1.82888
    A5        1.81850  -0.00000   0.00000  -0.00013  -0.00013   1.81837
    A6        1.91850  -0.00000   0.00000  -0.00005  -0.00005   1.91846
    A7        1.76754  -0.00001   0.00000  -0.00001  -0.00001   1.76753
    A8        1.96933   0.00001   0.00000   0.00003   0.00003   1.96936
    A9        1.99154  -0.00000   0.00000  -0.00018  -0.00018   1.99135
   A10        2.03760  -0.00002   0.00000  -0.00011  -0.00011   2.03749
   A11        2.19527  -0.00001   0.00000  -0.00010  -0.00010   2.19516
   A12        2.05032   0.00003   0.00000   0.00022   0.00022   2.05054
   A13        1.83439   0.00004   0.00000   0.00023   0.00023   1.83462
   A14        2.01481   0.00000   0.00000   0.00000   0.00000   2.01481
   A15        2.02886  -0.00001   0.00000  -0.00003  -0.00003   2.02883
   A16        2.23890   0.00001   0.00000   0.00003   0.00003   2.23893
    D1        0.35024  -0.00000   0.00000  -0.00033  -0.00033   0.34991
    D2       -1.66535   0.00000   0.00000  -0.00022  -0.00022  -1.66557
    D3        2.64001  -0.00000   0.00000  -0.00018  -0.00018   2.63982
    D4        0.62443   0.00000   0.00000  -0.00008  -0.00008   0.62434
    D5       -0.28861   0.00000   0.00000   0.00031   0.00031  -0.28830
    D6       -2.57611   0.00001   0.00000   0.00025   0.00025  -2.57586
    D7        0.14672   0.00000   0.00000   0.00010   0.00010   0.14682
    D8       -3.02947   0.00000   0.00000   0.00010   0.00010  -3.02936
    D9        2.37481  -0.00000   0.00000   0.00020   0.00020   2.37501
   D10       -0.80137  -0.00000   0.00000   0.00020   0.00020  -0.80118
   D11       -0.26382   0.00000   0.00000   0.00021   0.00021  -0.26361
   D12        1.87245   0.00000   0.00000  -0.00000  -0.00000   1.87245
   D13        1.68103  -0.00000   0.00000   0.00004   0.00004   1.68107
   D14       -2.46589  -0.00000   0.00000  -0.00017  -0.00017  -2.46606
   D15        0.10104   0.00000   0.00000   0.00001   0.00001   0.10105
   D16       -3.03953   0.00000   0.00000  -0.00018  -0.00018  -3.03971
   D17       -2.01977  -0.00001   0.00000   0.00008   0.00008  -2.01969
   D18        1.12284  -0.00001   0.00000  -0.00011  -0.00011   1.12273
   D19        0.11357  -0.00000   0.00000  -0.00019  -0.00019   0.11338
   D20       -3.02896   0.00000   0.00000  -0.00001  -0.00001  -3.02897
         Item               Value     Threshold  Converged?
 Maximum Force            0.000051     0.000450     YES
 RMS     Force            0.000015     0.000300     YES
 Maximum Displacement     0.000511     0.001800     YES
 RMS     Displacement     0.000140     0.001200     YES
 Predicted change in Energy=-3.281724D-08
 Optimization completed.
    -- Stationary point found.
                           ----------------------------
                           !   Optimized Parameters   !
                           ! (Angstroms and Degrees)  !
 --------------------------                            --------------------------
 ! Name  Definition              Value          Derivative Info.                !
 --------------------------------------------------------------------------------
 ! R1    R(1,2)                  1.4611         -DE/DX =    0.0                 !
 ! R2    R(1,5)                  1.4292         -DE/DX =   -0.0001              !
 ! R3    R(1,9)                  1.4592         -DE/DX =    0.0                 !
 ! R4    R(2,3)                  1.4796         -DE/DX =    0.0                 !
 ! R5    R(2,8)                  1.0228         -DE/DX =    0.0                 !
 ! R6    R(3,4)                  1.4473         -DE/DX =    0.0                 !
 ! R7    R(3,6)                  1.1039         -DE/DX =    0.0                 !
 ! R8    R(4,5)                  1.2994         -DE/DX =    0.0                 !
 ! R9    R(4,7)                  1.0937         -DE/DX =    0.0                 !
 ! R10   R(9,10)                 1.2604         -DE/DX =    0.0                 !
 ! R11   R(9,11)                 1.2529         -DE/DX =    0.0                 !
 ! A1    A(2,1,5)              108.3202         -DE/DX =    0.0                 !
 ! A2    A(2,1,9)              115.2919         -DE/DX =    0.0                 !
 ! A3    A(5,1,9)              115.5316         -DE/DX =    0.0                 !
 ! A4    A(1,2,3)              104.7863         -DE/DX =    0.0                 !
 ! A5    A(1,2,8)              104.1926         -DE/DX =    0.0                 !
 ! A6    A(3,2,8)              109.9222         -DE/DX =    0.0                 !
 ! A7    A(2,3,4)              101.2727         -DE/DX =    0.0                 !
 ! A8    A(2,3,6)              112.8343         -DE/DX =    0.0                 !
 ! A9    A(4,3,6)              114.1066         -DE/DX =    0.0                 !
 ! A10   A(3,4,5)              116.7457         -DE/DX =    0.0                 !
 ! A11   A(3,4,7)              125.7795         -DE/DX =    0.0                 !
 ! A12   A(5,4,7)              117.4747         -DE/DX =    0.0                 !
 ! A13   A(1,5,4)              105.1031         -DE/DX =    0.0                 !
 ! A14   A(1,9,10)             115.4398         -DE/DX =    0.0                 !
 ! A15   A(1,9,11)             116.2451         -DE/DX =    0.0                 !
 ! A16   A(10,9,11)            128.2797         -DE/DX =    0.0                 !
 ! D1    D(5,1,2,3)             20.0671         -DE/DX =    0.0                 !
 ! D2    D(5,1,2,8)            -95.4173         -DE/DX =    0.0                 !
 ! D3    D(9,1,2,3)            151.2613         -DE/DX =    0.0                 !
 ! D4    D(9,1,2,8)             35.777          -DE/DX =    0.0                 !
 ! D5    D(2,1,5,4)            -16.5362         -DE/DX =    0.0                 !
 ! D6    D(9,1,5,4)           -147.6            -DE/DX =    0.0                 !
 ! D7    D(2,1,9,10)             8.4065         -DE/DX =    0.0                 !
 ! D8    D(2,1,9,11)          -173.5756         -DE/DX =    0.0                 !
 ! D9    D(5,1,9,10)           136.0667         -DE/DX =    0.0                 !
 ! D10   D(5,1,9,11)           -45.9154         -DE/DX =    0.0                 !
 ! D11   D(1,2,3,4)            -15.1156         -DE/DX =    0.0                 !
 ! D12   D(1,2,3,6)            107.2834         -DE/DX =    0.0                 !
 ! D13   D(8,2,3,4)             96.3158         -DE/DX =    0.0                 !
 ! D14   D(8,2,3,6)           -141.2852         -DE/DX =    0.0                 !
 ! D15   D(2,3,4,5)              5.7893         -DE/DX =    0.0                 !
 ! D16   D(2,3,4,7)           -174.1524         -DE/DX =    0.0                 !
 ! D17   D(6,3,4,5)           -115.7241         -DE/DX =    0.0                 !
 ! D18   D(6,3,4,7)             64.3342         -DE/DX =    0.0                 !
 ! D19   D(3,4,5,1)              6.5068         -DE/DX =    0.0                 !
 ! D20   D(7,4,5,1)           -173.5465         -DE/DX =    0.0                 !
 --------------------------------------------------------------------------------
 GradGradGradGradGradGradGradGradGradGradGradGradGradGradGradGradGradGrad


 ----------------------------------------------------------------------

 Electric dipole moment (input orientation):
 (Debye = 10**-18 statcoulomb cm , SI units = C m)
                  (au)            (Debye)         (10**-30 SI)
   Tot        0.807469D+00      0.205238D+01      0.684601D+01
   x         -0.638738D+00     -0.162351D+01     -0.541545D+01
   y         -0.477028D+00     -0.121248D+01     -0.404441D+01
   z          0.128316D+00      0.326148D+00      0.108791D+01

 Dipole polarizability, Alpha (input orientation).
 (esu units = cm**3 , SI units = C**2 m**2 J**-1)
 Alpha(0;0):
               (au)            (10**-24 esu)      (10**-40 SI)
   iso        0.107842D+03      0.159805D+02      0.177807D+02
   aniso      0.646219D+02      0.957597D+01      0.106547D+02
   xx         0.129958D+03      0.192578D+02      0.214271D+02
   yx        -0.219248D+02     -0.324891D+01     -0.361490D+01
   yy         0.113342D+03      0.167955D+02      0.186875D+02
   zx         0.125628D+02      0.186161D+01      0.207132D+01
   zy        -0.106064D+02     -0.157171D+01     -0.174876D+01
   zz         0.802267D+02      0.118884D+02      0.132276D+02

 ----------------------------------------------------------------------

 Dipole orientation:
     7          0.66725529          0.44407617          0.17030993
     7         -1.35090291          2.27812386         -0.26215839
     6         -2.71273751          2.42862236          2.17521990
     6         -1.77349658          0.19916600          3.45097740
     7          0.00477256         -1.05711664          2.31546674
     1         -2.34999776          4.21111782          3.19652899
     1         -2.42925792         -0.51504147          5.27631134
     1         -2.47445367          1.44123807         -1.59378242
     6          1.47945300         -0.96142941         -2.05881137
     8          0.57136317         -0.21067329         -4.12868566
     8          3.03800872         -2.70458131         -1.68706110

 Electric dipole moment (dipole orientation):
 (Debye = 10**-18 statcoulomb cm , SI units = C m)
                  (au)            (Debye)         (10**-30 SI)
   Tot        0.807469D+00      0.205238D+01      0.684601D+01
   x          0.000000D+00      0.000000D+00      0.000000D+00
   y          0.000000D+00      0.000000D+00      0.000000D+00
   z          0.807469D+00      0.205238D+01      0.684601D+01

 Dipole polarizability, Alpha (dipole orientation).
 (esu units = cm**3 , SI units = C**2 m**2 J**-1)
 Alpha(0;0):
               (au)            (10**-24 esu)      (10**-40 SI)
   iso        0.107842D+03      0.159805D+02      0.177807D+02
   aniso      0.646219D+02      0.957597D+01      0.106547D+02
   xx         0.120182D+03      0.178092D+02      0.198154D+02
   yx        -0.331015D+02     -0.490514D+01     -0.545770D+01
   yy         0.102100D+03      0.151296D+02      0.168340D+02
   zx        -0.125507D+02     -0.185982D+01     -0.206933D+01
   zy         0.493672D+01      0.731546D+00      0.813955D+00
   zz         0.101244D+03      0.150028D+02      0.166929D+02

 ----------------------------------------------------------------------
 1\1\GINC-NODE6\Freq\RM062X\6-31+G(d,p)\C3H3N3O2(2-)\GONGKE2021\25-Jul-
 2023\0\\#N Geom=AllCheck Guess=TCheck SCRF=Check GenChk RM062X/6-31+G(
 d,p) Freq\\RC\\-2,1\N,-0.0036044105,-0.0313991731,0.4324616706\N,-0.70
 52633801,1.212703509,0.124658373\C,-2.0892061973,0.7969794366,-0.19338
 95394\C,-1.918840133,-0.6267561107,-0.3899184991\N,-0.7425160635,-1.11
 58201524,-0.1337660434\H,-2.8087728528,1.0594863204,0.6015833998\H,-2.
 6901692846,-1.321589002,-0.734198944\H,-0.2428018517,1.5592542708,-0.7
 192664671\C,1.4271508951,-0.027616392,0.1456031533\O,1.9123182163,1.09
 0884482,-0.1738805888\O,2.022938062,-1.1210501886,0.2843274852\\Versio
 n=ES64L-G16RevA.03\State=1-A\HF=-430.5204719\RMSD=0.000e+00\RMSF=3.199
 e-05\ZeroPoint=0.0698065\Thermal=0.076294\Dipole=-0.6387381,-0.4770276
 ,0.1283164\DipoleDeriv=-1.5942116,0.0682317,-0.0307187,-0.5217668,-0.0
 021714,-0.0053961,0.0410375,0.1856233,-0.4321471,-0.4176643,-0.0662252
 ,0.059604,-0.1187414,-0.4602619,-0.1026624,-0.310493,-0.1438081,-0.123
 6427,-0.2430809,0.22509,-0.4241106,0.7048306,-1.136168,0.2760375,-0.20
 57367,0.1925548,-0.3103205,0.5549267,-0.3196777,0.1671864,-0.8520033,1
 .1711794,-0.1498603,-0.0617471,0.3178628,-0.1558237,-0.4499747,0.54448
 49,0.0543285,0.946891,-0.9649311,0.1763337,0.3796293,-0.3027775,-0.033
 3253,-0.0694142,-0.1541575,0.305683,-0.0586246,0.167143,-0.1095047,0.4
 424308,-0.2142889,-0.2288946,-0.1163959,-0.2331475,-0.0550163,-0.15060
 85,-0.1845479,-0.0657252,-0.1449768,-0.0357678,0.0453649,0.1356048,0.0
 351673,0.0685877,0.0730171,0.1937608,0.0140092,0.1322045,-0.0330323,0.
 0620425,2.8484431,-0.3494621,-0.026187,-0.1507082,2.0432803,-0.4150852
 ,-0.4276665,-0.3384514,0.2953342,-1.2749255,-0.3539091,0.0360621,-0.56
 98454,-1.3644099,0.1924538,0.1546284,0.2373235,-0.5590762,-1.3733075,0
 .6036053,-0.1554191,0.6975596,-1.4628732,0.1893996,0.0006895,0.1347616
 ,-0.5595114\Polar=129.9578045,-21.9247598,113.3416186,12.5627802,-10.6
 064304,80.2266867\Quadrupole=-14.1438415,1.2411487,12.9026928,7.005658
 3,-3.9801834,1.8063042\PG=C01 [X(C3H3N3O2)]\NImag=0\\0.55712298,0.0115
 4331,0.42048093,0.07159189,-0.03295210,0.14426707,-0.09310861,0.010163
 68,0.00841594,0.44685059,0.00532633,-0.13712329,0.00882686,0.08284168,
 0.37306563,-0.02525401,0.07504254,-0.05829002,-0.11601325,-0.12440203,
 0.41119152,-0.04673523,0.01530856,-0.01738600,-0.16280349,-0.00684689,
 0.00183196,0.43875777,0.01942261,0.00286209,0.00657732,-0.06485792,-0.
 07468663,-0.00556272,-0.04603037,0.39601286,-0.00195628,-0.00623176,-0
 .00701246,-0.02562583,0.00339899,-0.06876667,-0.11142302,0.11863990,0.
 24883092,-0.06882314,-0.02459058,-0.03147773,-0.02142625,-0.02845129,-
 0.01045864,-0.07633288,0.00878573,0.02782563,0.77832634,-0.05174172,-0
 .00470372,-0.02069216,-0.02726600,-0.03009780,-0.00998960,-0.00578115,
 -0.22695813,-0.06412532,0.01444876,0.60027574,-0.04919459,-0.02071911,
 -0.01047541,-0.02042225,-0.01031312,-0.00278147,0.01208688,-0.01106062
 ,-0.05612120,0.16837890,0.10556825,0.20982619,-0.11186687,-0.04947558,
 -0.01928416,-0.00183281,-0.00287197,-0.00233274,-0.01918541,0.06537931
 ,-0.01884590,-0.43353236,0.16386251,-0.06252383,0.61599063,0.01696786,
 -0.12480752,0.00071182,0.00686301,-0.06036325,-0.01338624,0.04203512,-
 0.05535200,0.00046571,0.11863763,-0.14496077,0.02101272,-0.14572034,0.
 37259569,-0.03848504,-0.03712809,-0.04542213,0.01616399,-0.01178042,0.
 00559495,-0.00378732,-0.01557376,0.03023473,-0.08695507,0.03534632,-0.
 07231081,0.12026445,0.00430269,0.09947253,-0.00249539,0.00153651,0.002
 88700,-0.02280502,-0.00331541,0.01720149,-0.12430199,0.02899318,0.1063
 2986,-0.00349095,0.00848192,0.00277216,0.00292960,-0.00204182,-0.00098
 437,0.15835267,0.00165061,-0.00018269,-0.00205066,-0.00985238,0.000004
 90,0.00914518,0.02757825,-0.03868669,-0.05318036,0.02918770,-0.0135879
 4,-0.02346788,-0.00610383,-0.00403444,0.00398091,-0.03808235,0.0566607
 5,0.00129222,0.00300053,0.00249415,-0.00186249,0.01201862,0.00593539,0
 .13597241,-0.08510541,-0.15973773,-0.00401562,0.01518869,-0.00794998,0
 .00006804,-0.00985187,-0.00047226,-0.12891408,0.06420412,0.15888664,-0
 .00569677,0.00196645,-0.00079389,-0.00048659,0.00309864,-0.00166654,0.
 00751238,-0.00052959,0.00051596,-0.17245640,-0.10843167,-0.05780297,-0
 .02411903,-0.02268814,-0.01279632,-0.00127894,-0.00098103,-0.00042074,
 0.19578474,0.00462889,-0.00201165,0.00034732,-0.00398009,-0.00552721,-
 0.00489743,-0.01920723,-0.00449493,-0.00356188,-0.12032004,-0.16466909
 ,-0.05697754,0.00941350,0.00965512,0.00581085,0.00132597,-0.00095449,-
 0.00117826,0.12836753,0.16709699,-0.00525657,-0.00041081,0.00796997,0.
 00085783,-0.00180252,0.00439690,-0.00508690,0.00573855,0.00064002,-0.0
 5886501,-0.06288399,-0.06229764,-0.00464766,0.00121482,-0.00739198,0.0
 0074141,0.00062168,0.00028295,0.07377708,0.06039805,0.05629610,0.00582
 288,0.01452592,-0.01596488,-0.11253022,-0.04929514,0.13066717,-0.01890
 681,-0.00522434,0.02035169,-0.00044299,-0.00281834,0.00071545,-0.00371
 332,-0.00085619,-0.00129617,-0.00515517,-0.00376849,0.00034042,-0.0000
 0673,0.00030839,-0.00006080,0.13264369,-0.00333003,-0.02939841,0.03422
 939,-0.03240806,-0.06620697,0.07719479,-0.00688419,0.00132654,0.004487
 11,0.00072064,-0.00385036,-0.00114789,0.00019273,0.00036670,0.00280040
 ,0.00101453,0.00083792,-0.00037888,0.00016234,0.00012178,-0.00031389,0
 .04285400,0.09900115,-0.01152573,0.01260692,-0.00663992,0.14596593,0.1
 2024037,-0.29521232,-0.00797751,-0.01536697,0.01274082,-0.00444471,0.0
 0307815,0.00106079,0.00436740,-0.00279961,-0.00354040,0.00004139,0.000
 93617,0.00085404,0.00004438,-0.00029384,-0.00018212,-0.13251376,-0.117
 21730,0.29002187,-0.13427710,0.01936190,-0.02263516,-0.01807472,0.0095
 5165,0.00541139,0.00370213,-0.01007199,0.00138134,0.00156794,0.0155050
 8,0.01036799,-0.02302762,-0.02785349,0.00208971,-0.00009326,-0.0000727
 3,-0.00424824,0.00275203,0.00019625,0.00064796,0.00311404,-0.00184573,
 0.00656967,0.53067937,-0.00322578,-0.09508982,-0.00381624,0.02504911,-
 0.00069032,-0.00749507,0.00400441,-0.00834634,0.00219432,-0.00488828,-
 0.00636522,-0.00318582,-0.02471674,-0.00067628,0.00832298,-0.00047871,
 -0.00025137,0.00099339,-0.00155780,-0.00019835,-0.00197248,0.00832238,
 -0.00192750,0.00723779,-0.04372688,0.94805358,0.03751545,-0.00762291,-
 0.05660997,-0.00774730,0.00195360,-0.00489098,-0.00695863,0.00321867,-
 0.00323414,-0.00036796,-0.00522361,0.00004970,-0.02278982,0.00264701,-
 0.00780305,0.00101519,0.00001060,-0.00026005,-0.00173092,0.00052011,0.
 00008461,-0.00512368,0.00342174,-0.00025693,-0.01698485,-0.13392055,0.
 27868077,-0.04828101,-0.04808748,0.01723586,-0.00653955,-0.00597396,0.
 00046629,0.00018031,0.00110202,0.00157034,-0.00215105,-0.00567049,-0.0
 0341096,-0.00285937,0.00834938,0.00757369,-0.00040694,0.00005748,0.001
 24700,-0.00116355,-0.00035764,-0.00172886,-0.00000871,-0.00079383,0.00
 061476,-0.16723190,-0.13146292,0.04083913,0.19122904,-0.04252136,-0.02
 049014,0.02131176,0.00950605,-0.00131611,0.00120204,-0.00361109,0.0068
 8084,-0.00099290,0.00280448,-0.00664524,-0.00273924,-0.00254909,0.0106
 4668,0.00189026,0.00124416,0.00010081,0.00153630,-0.00039677,0.0005490
 1,-0.00071778,-0.00256469,-0.00021036,-0.00672659,-0.14034771,-0.41162
 284,0.08919786,0.17402256,0.52944311,0.01518718,0.01950011,0.01505148,
 0.00108547,0.00105446,-0.00066075,0.00079925,-0.00155106,0.00158589,-0
 .00007196,0.00342266,0.00076767,0.00460953,-0.00494018,-0.00006977,-0.
 00068403,-0.00024950,-0.00024825,0.00077321,-0.00006588,0.00025222,0.0
 0163085,-0.00221462,0.00082499,0.04255666,0.08916217,-0.11349590,-0.06
 209925,-0.13464490,0.07189896,-0.05166173,0.04774731,0.00741112,-0.007
 24332,-0.00406365,0.00014687,-0.00188679,0.00303136,-0.00012380,-0.001
 23826,-0.00058889,-0.00096678,0.00121656,0.00630699,-0.00178756,-0.001
 25461,0.00038677,0.00054107,-0.00084113,-0.00037553,-0.00037846,-0.000
 81666,0.00031761,-0.00114183,-0.19911090,0.17268122,-0.01766661,0.0372
 3273,0.00441347,-0.00378691,0.22560411,0.04127928,-0.00953577,-0.01249
 331,0.00394093,0.00294103,0.00314855,-0.00056542,0.00144240,-0.0010938
 1,0.00366523,0.00156255,0.00303025,-0.00741048,-0.00306994,0.00202786,
 0.00132203,0.00009325,-0.00042724,0.00099004,0.00043282,0.00012836,-0.
 00148351,-0.00006049,-0.00169509,0.17930365,-0.42288552,0.04579748,0.0
 0881490,-0.10733576,0.03052674,-0.22985666,0.53641543,0.00608547,-0.00
 508532,0.01466724,-0.00081806,0.00080519,0.00348344,0.00192888,0.00004
 608,0.00083982,0.00045216,0.00031060,0.00023215,0.00111469,0.00062313,
 0.00170819,-0.00040601,0.00004974,0.00021510,0.00010076,-0.00010149,-0
 .00005103,0.00125372,-0.00086085,0.00032918,-0.02515649,0.04247952,-0.
 09226404,-0.00230800,0.03068319,0.02409346,0.01775288,-0.06894979,0.04
 674649\\-0.00001546,0.00007843,0.00001339,0.00001641,-0.00002335,-0.00
 000665,-0.00001404,-0.00004639,-0.00000579,-0.00001140,0.00009345,0.00
 002225,-0.00000939,-0.00008906,-0.00003210,0.00001697,-0.00000089,-0.0
 0000401,0.00001404,-0.00001209,-0.00000611,-0.00000512,0.00000423,0.00
 001404,-0.00000088,-0.00005411,0.00001377,0.00001402,0.00002765,-0.000
 00487,-0.00000517,0.00002213,-0.00000391\\\@


 A MAN BEGINS CUTTING HIS WISDOM TEETH THE 1ST
 TIME HE BITES OFF MORE THAN HE CAN CHEW.
 Job cpu time:       0 days  0 hours 23 minutes 18.8 seconds.
 Elapsed time:       0 days  0 hours  0 minutes 59.0 seconds.
 File lengths (MBytes):  RWF=     40 Int=      0 D2E=      0 Chk=      3 Scr=      1
 Normal termination of Gaussian 16 at Tue Jul 25 11:15:36 2023.
