 Entering Gaussian System, Link 0=/opt/soft/g16/g16
 Initial command:
 /opt/soft/g16/l1.exe "/scratch/gongke2021/TS/Gau-9839.inp" -scrdir="/scratch/gongke2021/TS/"
 Entering Link 1 = /opt/soft/g16/l1.exe PID=      9840.
  
 Copyright (c) 1988,1990,1992,1993,1995,1998,2003,2009,2016,
            Gaussian, Inc.  All Rights Reserved.
  
 This is part of the Gaussian(R) 16 program.  It is based on
 the Gaussian(R) 09 system (copyright 2009, Gaussian, Inc.),
 the Gaussian(R) 03 system (copyright 2003, Gaussian, Inc.),
 the Gaussian(R) 98 system (copyright 1998, Gaussian, Inc.),
 the Gaussian(R) 94 system (copyright 1995, Gaussian, Inc.),
 the Gaussian 92(TM) system (copyright 1992, Gaussian, Inc.),
 the Gaussian 90(TM) system (copyright 1990, Gaussian, Inc.),
 the Gaussian 88(TM) system (copyright 1988, Gaussian, Inc.),
 the Gaussian 86(TM) system (copyright 1986, Carnegie Mellon
 University), and the Gaussian 82(TM) system (copyright 1983,
 Carnegie Mellon University). Gaussian is a federally registered
 trademark of Gaussian, Inc.
  
 This software contains proprietary and confidential information,
 including trade secrets, belonging to Gaussian, Inc.
  
 This software is provided under written license and may be
 used, copied, transmitted, or stored only in accord with that
 written license.
  
 The following legend is applicable only to US Government
 contracts under FAR:
  
                    RESTRICTED RIGHTS LEGEND
  
 Use, reproduction and disclosure by the US Government is
 subject to restrictions as set forth in subparagraphs (a)
 and (c) of the Commercial Computer Software - Restricted
 Rights clause in FAR 52.227-19.
  
 Gaussian, Inc.
 340 Quinnipiac St., Bldg. 40, Wallingford CT 06492
  
  
 ---------------------------------------------------------------
 Warning -- This program may not be used in any manner that
 competes with the business of Gaussian, Inc. or will provide
 assistance to any competitor of Gaussian, Inc.  The licensee
 of this program is prohibited from giving any competitor of
 Gaussian, Inc. access to this program.  By using this program,
 the user acknowledges that Gaussian, Inc. is engaged in the
 business of creating and licensing software in the field of
 computational chemistry and represents and warrants to the
 licensee that it is not a competitor of Gaussian, Inc. and that
 it will not use this program in any manner prohibited above.
 ---------------------------------------------------------------
  

 Cite this work as:
 Gaussian 16, Revision A.03,
 M. J. Frisch, G. W. Trucks, H. B. Schlegel, G. E. Scuseria, 
 M. A. Robb, J. R. Cheeseman, G. Scalmani, V. Barone, 
 G. A. Petersson, H. Nakatsuji, X. Li, M. Caricato, A. V. Marenich, 
 J. Bloino, B. G. Janesko, R. Gomperts, B. Mennucci, H. P. Hratchian, 
 J. V. Ortiz, A. F. Izmaylov, J. L. Sonnenberg, D. Williams-Young, 
 F. Ding, F. Lipparini, F. Egidi, J. Goings, B. Peng, A. Petrone, 
 T. Henderson, D. Ranasinghe, V. G. Zakrzewski, J. Gao, N. Rega, 
 G. Zheng, W. Liang, M. Hada, M. Ehara, K. Toyota, R. Fukuda, 
 J. Hasegawa, M. Ishida, T. Nakajima, Y. Honda, O. Kitao, H. Nakai, 
 T. Vreven, K. Throssell, J. A. Montgomery, Jr., J. E. Peralta, 
 F. Ogliaro, M. J. Bearpark, J. J. Heyd, E. N. Brothers, K. N. Kudin, 
 V. N. Staroverov, T. A. Keith, R. Kobayashi, J. Normand, 
 K. Raghavachari, A. P. Rendell, J. C. Burant, S. S. Iyengar, 
 J. Tomasi, M. Cossi, J. M. Millam, M. Klene, C. Adamo, R. Cammi, 
 J. W. Ochterski, R. L. Martin, K. Morokuma, O. Farkas, 
 J. B. Foresman, and D. J. Fox, Gaussian, Inc., Wallingford CT, 2016.
 
 ******************************************
 Gaussian 16:  ES64L-G16RevA.03 25-Dec-2016
                 9-May-2023 
 ******************************************
 %mem=10GB
 %nprocshared=24
 Will use up to   24 processors via shared memory.
 ----------------------------------------------------------------------
 # opt=(calcfc,ts,noeigentest) freq 6-31+g(d,p) integral=grid=ultrafine
  m062x
 ----------------------------------------------------------------------
 1/5=1,10=4,11=1,18=20,26=4,38=1/1,3;
 2/9=110,12=2,17=6,18=5,40=1/2;
 3/5=1,6=6,7=111,11=2,25=1,30=1,71=2,74=-55,75=-5,140=1/1,2,3;
 4//1;
 5/5=2,38=5/2;
 8/6=4,10=90,11=11/1;
 11/6=1,8=1,9=11,15=111,16=1/1,2,10;
 10/6=1,13=1/2;
 6/7=2,8=2,9=2,10=2,28=1/1;
 7/10=1,18=20,25=1/1,2,3,16;
 1/5=1,10=4,11=1,18=20,26=4/3(2);
 2/9=110/2;
 99//99;
 2/9=110/2;
 3/5=1,6=6,7=111,11=2,25=1,30=1,71=1,74=-55,75=-5/1,2,3;
 4/5=5,16=3,69=1/1;
 5/5=2,38=5/2;
 7//1,2,3,16;
 1/5=1,11=1,18=20,26=4/3(-5);
 2/9=110/2;
 6/7=2,8=2,9=2,10=2,19=2,28=1/1;
 99/9=1/99;
 --
 RC
 --
 Symbolic Z-matrix:
 Charge = -1 Multiplicity = 2
 N                     0.01742  -0.13433   0.37659 
 N                    -0.7325    1.0511    0.29997 
 C                    -1.99925   0.6592   -0.13699 
 C                    -1.9665   -0.71678  -0.2061 
 N                    -0.75112  -1.21811   0.07096 
 H                    -2.80424   1.36651  -0.25649 
 H                    -2.78089  -1.38556  -0.45328 
 H                     0.37799   1.79911  -0.29731 
 C                     1.47103  -0.01548  -0.02006 
 O                     1.78737   1.17626  -0.21909 
 O                     2.08542  -1.0765   -0.05428 
 
 Add virtual bond connecting atoms H8         and N2         Dist= 2.77D+00.
 Add virtual bond connecting atoms H8         and O10        Dist= 2.92D+00.

 GradGradGradGradGradGradGradGradGradGradGradGradGradGradGradGradGradGrad
 Berny optimization.
 Initialization pass.
                           ----------------------------
                           !    Initial Parameters    !
                           ! (Angstroms and Degrees)  !
 --------------------------                            --------------------------
 ! Name  Definition              Value          Derivative Info.                !
 --------------------------------------------------------------------------------
 ! R1    R(1,2)                  1.4048         calculate D2E/DX2 analytically  !
 ! R2    R(1,5)                  1.3633         calculate D2E/DX2 analytically  !
 ! R3    R(1,9)                  1.5114         calculate D2E/DX2 analytically  !
 ! R4    R(2,3)                  1.3961         calculate D2E/DX2 analytically  !
 ! R5    R(2,8)                  1.4661         calculate D2E/DX2 analytically  !
 ! R6    R(3,4)                  1.3781         calculate D2E/DX2 analytically  !
 ! R7    R(3,6)                  1.0782         calculate D2E/DX2 analytically  !
 ! R8    R(4,5)                  1.3436         calculate D2E/DX2 analytically  !
 ! R9    R(4,7)                  1.0824         calculate D2E/DX2 analytically  !
 ! R10   R(8,10)                 1.5429         calculate D2E/DX2 analytically  !
 ! R11   R(9,10)                 1.249          calculate D2E/DX2 analytically  !
 ! R12   R(9,11)                 1.2265         calculate D2E/DX2 analytically  !
 ! A1    A(2,1,5)              110.9565         calculate D2E/DX2 analytically  !
 ! A2    A(2,1,9)              115.6411         calculate D2E/DX2 analytically  !
 ! A3    A(5,1,9)              123.0818         calculate D2E/DX2 analytically  !
 ! A4    A(1,2,3)              105.3404         calculate D2E/DX2 analytically  !
 ! A5    A(1,2,8)               92.7749         calculate D2E/DX2 analytically  !
 ! A6    A(3,2,8)              134.665          calculate D2E/DX2 analytically  !
 ! A7    A(2,3,4)              105.9264         calculate D2E/DX2 analytically  !
 ! A8    A(2,3,6)              121.867          calculate D2E/DX2 analytically  !
 ! A9    A(4,3,6)              131.8488         calculate D2E/DX2 analytically  !
 ! A10   A(3,4,5)              112.5636         calculate D2E/DX2 analytically  !
 ! A11   A(3,4,7)              127.6241         calculate D2E/DX2 analytically  !
 ! A12   A(5,4,7)              119.8114         calculate D2E/DX2 analytically  !
 ! A13   A(1,5,4)              105.0428         calculate D2E/DX2 analytically  !
 ! A14   A(2,8,10)             117.7287         calculate D2E/DX2 analytically  !
 ! A15   A(1,9,10)             111.1273         calculate D2E/DX2 analytically  !
 ! A16   A(1,9,11)             114.9008         calculate D2E/DX2 analytically  !
 ! A17   A(10,9,11)            133.9549         calculate D2E/DX2 analytically  !
 ! A18   A(8,10,9)              99.3179         calculate D2E/DX2 analytically  !
 ! D1    D(5,1,2,3)             -2.9124         calculate D2E/DX2 analytically  !
 ! D2    D(5,1,2,8)           -140.9072         calculate D2E/DX2 analytically  !
 ! D3    D(9,1,2,3)            143.4114         calculate D2E/DX2 analytically  !
 ! D4    D(9,1,2,8)              5.4166         calculate D2E/DX2 analytically  !
 ! D5    D(2,1,5,4)              0.5361         calculate D2E/DX2 analytically  !
 ! D6    D(9,1,5,4)           -142.8366         calculate D2E/DX2 analytically  !
 ! D7    D(2,1,9,10)             7.0154         calculate D2E/DX2 analytically  !
 ! D8    D(2,1,9,11)          -174.2735         calculate D2E/DX2 analytically  !
 ! D9    D(5,1,9,10)           148.845          calculate D2E/DX2 analytically  !
 ! D10   D(5,1,9,11)           -32.4439         calculate D2E/DX2 analytically  !
 ! D11   D(1,2,3,4)              4.0106         calculate D2E/DX2 analytically  !
 ! D12   D(1,2,3,6)            177.901          calculate D2E/DX2 analytically  !
 ! D13   D(8,2,3,4)            113.9924         calculate D2E/DX2 analytically  !
 ! D14   D(8,2,3,6)            -72.1171         calculate D2E/DX2 analytically  !
 ! D15   D(1,2,8,10)           -15.1025         calculate D2E/DX2 analytically  !
 ! D16   D(3,2,8,10)          -129.9566         calculate D2E/DX2 analytically  !
 ! D17   D(2,3,4,5)             -4.0041         calculate D2E/DX2 analytically  !
 ! D18   D(2,3,4,7)            176.3244         calculate D2E/DX2 analytically  !
 ! D19   D(6,3,4,5)           -177.0346         calculate D2E/DX2 analytically  !
 ! D20   D(6,3,4,7)              3.294          calculate D2E/DX2 analytically  !
 ! D21   D(3,4,5,1)              2.1797         calculate D2E/DX2 analytically  !
 ! D22   D(7,4,5,1)           -178.1201         calculate D2E/DX2 analytically  !
 ! D23   D(2,8,10,9)            20.3561         calculate D2E/DX2 analytically  !
 ! D24   D(1,9,10,8)           -14.3267         calculate D2E/DX2 analytically  !
 ! D25   D(11,9,10,8)          167.2974         calculate D2E/DX2 analytically  !
 --------------------------------------------------------------------------------
 Trust Radius=3.00D-01 FncErr=1.00D-07 GrdErr=1.00D-06 EigMax=2.50D+02 EigMin=1.00D-04
 Number of steps in this run=     65 maximum allowed number of steps=    100.
 Search for a saddle point of order  1.
 GradGradGradGradGradGradGradGradGradGradGradGradGradGradGradGradGradGrad

                          Input orientation:                          
 ---------------------------------------------------------------------
 Center     Atomic      Atomic             Coordinates (Angstroms)
 Number     Number       Type             X           Y           Z
 ---------------------------------------------------------------------
      1          7           0        0.017415   -0.134328    0.376587
      2          7           0       -0.732499    1.051096    0.299973
      3          6           0       -1.999251    0.659196   -0.136986
      4          6           0       -1.966497   -0.716783   -0.206095
      5          7           0       -0.751122   -1.218109    0.070957
      6          1           0       -2.804241    1.366506   -0.256492
      7          1           0       -2.780889   -1.385558   -0.453284
      8          1           0        0.377987    1.799114   -0.297310
      9          6           0        1.471033   -0.015479   -0.020062
     10          8           0        1.787373    1.176257   -0.219092
     11          8           0        2.085424   -1.076500   -0.054280
 ---------------------------------------------------------------------
                    Distance matrix (angstroms):
                    1          2          3          4          5
     1  N    0.000000
     2  N    1.404803   0.000000
     3  C    2.227191   1.396130   0.000000
     4  C    2.148180   2.214555   1.378103   0.000000
     5  N    1.363320   2.280808   2.263921   1.343585   0.000000
     6  H    3.258072   2.168237   1.078229   2.245985   3.317040
     7  H    3.175652   3.271174   2.211791   1.082403   2.103051
     8  H    2.079026   1.466103   2.641283   3.440155   3.242552
     9  C    1.511443   2.468918   3.537192   3.513267   2.528354
    10  O    2.281495   2.575820   3.822645   4.204201   3.501582
    11  O    2.313006   3.548641   4.438925   4.070689   2.842838
                    6          7          8          9         10
     6  H    0.000000
     7  H    2.759190   0.000000
     8  H    3.211758   4.488314   0.000000
     9  C    4.499305   4.488166   2.136438   0.000000
    10  O    4.595706   5.242782   1.542867   1.248967   0.000000
    11  O    5.469734   4.892415   3.353143   1.226545   2.278357
                   11
    11  O    0.000000
 Stoichiometry    C3H3N3O2(1-,2)
 Framework group  C1[X(C3H3N3O2)]
 Deg. of freedom    27
 Full point group                 C1      NOp   1
 Largest Abelian subgroup         C1      NOp   1
 Largest concise Abelian subgroup C1      NOp   1
                         Standard orientation:                         
 ---------------------------------------------------------------------
 Center     Atomic      Atomic             Coordinates (Angstroms)
 Number     Number       Type             X           Y           Z
 ---------------------------------------------------------------------
      1          7           0        0.006253   -0.136924    0.378296
      2          7           0       -0.731100    1.056697    0.307243
      3          6           0       -2.001463    0.680431   -0.132963
      4          6           0       -1.983086   -0.695433   -0.209308
      5          7           0       -0.773315   -1.210948    0.066228
      6          1           0       -2.798866    1.396776   -0.249485
      7          1           0       -2.804207   -1.354306   -0.460786
      8          1           0        0.387766    1.796151   -0.285044
      9          6           0        1.461431   -0.031258   -0.016361
     10          8           0        1.790459    1.158123   -0.208799
     11          8           0        2.064684   -1.098477   -0.055608
 ---------------------------------------------------------------------
 Rotational constants (GHZ):           5.0134966           1.8233290           1.3749709
 Standard basis: 6-31+G(d,p) (6D, 7F)
 There are   167 symmetry adapted cartesian basis functions of A   symmetry.
 There are   167 symmetry adapted basis functions of A   symmetry.
   167 basis functions,   277 primitive gaussians,   167 cartesian basis functions
    30 alpha electrons       29 beta electrons
       nuclear repulsion energy       358.7909741343 Hartrees.
 NAtoms=   11 NActive=   11 NUniq=   11 SFac= 1.00D+00 NAtFMM=   60 NAOKFM=F Big=F
 Integral buffers will be    131072 words long.
 Raffenetti 2 integral format.
 Two-electron integral symmetry is turned on.
 One-electron integrals computed using PRISM.
 NBasis=   167 RedAO= T EigKep=  5.23D-05  NBF=   167
 NBsUse=   167 1.00D-06 EigRej= -1.00D+00 NBFU=   167
 ExpMin= 4.38D-02 ExpMax= 5.48D+03 ExpMxC= 8.25D+02 IAcc=3 IRadAn=         5 AccDes= 0.00D+00
 Harris functional with IExCor= 1009 and IRadAn=       5 diagonalized for initial guess.
 HarFok:  IExCor= 1009 AccDes= 0.00D+00 IRadAn=         5 IDoV= 1 UseB2=F ITyADJ=14
 ICtDFT=  3500011 ScaDFX=  1.000000  1.000000  1.000000  1.000000
 FoFCou: FMM=F IPFlag=           0 FMFlag=      100000 FMFlg1=           0
         NFxFlg=           0 DoJE=T BraDBF=F KetDBF=T FulRan=T
         wScrn=  0.000000 ICntrl=       500 IOpCl=  0 I1Cent=   200000004 NGrid=           0
         NMat0=    1 NMatS0=      1 NMatT0=    0 NMatD0=    1 NMtDS0=    0 NMtDT0=    0
 Petite list used in FoFCou.
 Initial guess <Sx>= 0.0000 <Sy>= 0.0000 <Sz>= 0.5000 <S**2>= 0.7500 S= 0.5000
 Keep R1 and R2 ints in memory in canonical form, NReq=220618657.
 Requested convergence on RMS density matrix=1.00D-08 within 128 cycles.
 Requested convergence on MAX density matrix=1.00D-06.
 Requested convergence on             energy=1.00D-06.
 No special actions if energy rises.
 SCF Done:  E(UM062X) =  -430.616516508     A.U. after   19 cycles
            NFock= 19  Conv=0.62D-08     -V/T= 2.0088
 <Sx>= 0.0000 <Sy>= 0.0000 <Sz>= 0.5000 <S**2>= 0.7650 S= 0.5075
 <L.S>=  0.00000000000    
 Annihilation of the first spin contaminant:
 S**2 before annihilation     0.7650,   after     0.7501
 DoSCS=F DFT=T ScalE2(SS,OS)=  1.000000  1.000000
 Range of M.O.s used for correlation:     1   167
 NBasis=   167 NAE=    30 NBE=    29 NFC=     0 NFV=     0
 NROrb=    167 NOA=    30 NOB=    29 NVA=   137 NVB=   138

 **** Warning!!: The largest alpha MO coefficient is  0.42432437D+02


 **** Warning!!: The largest beta MO coefficient is  0.52593321D+02

 Symmetrizing basis deriv contribution to polar:
 IMax=3 JMax=2 DiffMx= 0.00D+00
 G2DrvN: will do    12 centers at a time, making    1 passes.
 Calling FoFCou, ICntrl=  3107 FMM=F I1Cent=   0 AccDes= 0.00D+00.
 End of G2Drv F.D. properties file   721 does not exist.
 End of G2Drv F.D. properties file   722 does not exist.
 End of G2Drv F.D. properties file   788 does not exist.
          IDoAtm=11111111111
          Differentiating once with respect to nuclear coordinates.
 Keep R1 and R2 ints in memory in canonical form, NReq=220545618.
          There are    36 degrees of freedom in the 1st order CPHF.  IDoFFX=6 NUNeed=     0.
     30 vectors produced by pass  0 Test12= 2.25D-14 2.78D-09 XBig12= 3.53D-01 1.28D-01.
 AX will form    30 AO Fock derivatives at one time.
     30 vectors produced by pass  1 Test12= 2.25D-14 2.78D-09 XBig12= 5.25D-02 4.90D-02.
     30 vectors produced by pass  2 Test12= 2.25D-14 2.78D-09 XBig12= 2.04D-03 7.83D-03.
     30 vectors produced by pass  3 Test12= 2.25D-14 2.78D-09 XBig12= 5.22D-05 9.80D-04.
     30 vectors produced by pass  4 Test12= 2.25D-14 2.78D-09 XBig12= 1.09D-06 1.57D-04.
     30 vectors produced by pass  5 Test12= 2.25D-14 2.78D-09 XBig12= 2.07D-08 2.01D-05.
     30 vectors produced by pass  6 Test12= 2.25D-14 2.78D-09 XBig12= 2.46D-10 1.61D-06.
     27 vectors produced by pass  7 Test12= 2.25D-14 2.78D-09 XBig12= 2.00D-12 1.45D-07.
     10 vectors produced by pass  8 Test12= 2.25D-14 2.78D-09 XBig12= 1.74D-14 1.27D-08.
 InvSVY:  IOpt=1 It=  1 EMax= 1.55D-15
 Solved reduced A of dimension   247 with    30 vectors.
 End of Minotr F.D. properties file   721 does not exist.
 End of Minotr F.D. properties file   722 does not exist.
 End of Minotr F.D. properties file   788 does not exist.

 **********************************************************************

            Population analysis using the SCF density.

 **********************************************************************

 Orbital symmetries:
 Alpha Orbitals:
       Occupied  (A) (A) (A) (A) (A) (A) (A) (A) (A) (A) (A) (A)
                 (A) (A) (A) (A) (A) (A) (A) (A) (A) (A) (A) (A)
                 (A) (A) (A) (A) (A) (A)
       Virtual   (A) (A) (A) (A) (A) (A) (A) (A) (A) (A) (A) (A)
                 (A) (A) (A) (A) (A) (A) (A) (A) (A) (A) (A) (A)
                 (A) (A) (A) (A) (A) (A) (A) (A) (A) (A) (A) (A)
                 (A) (A) (A) (A) (A) (A) (A) (A) (A) (A) (A) (A)
                 (A) (A) (A) (A) (A) (A) (A) (A) (A) (A) (A) (A)
                 (A) (A) (A) (A) (A) (A) (A) (A) (A) (A) (A) (A)
                 (A) (A) (A) (A) (A) (A) (A) (A) (A) (A) (A) (A)
                 (A) (A) (A) (A) (A) (A) (A) (A) (A) (A) (A) (A)
                 (A) (A) (A) (A) (A) (A) (A) (A) (A) (A) (A) (A)
                 (A) (A) (A) (A) (A) (A) (A) (A) (A) (A) (A) (A)
                 (A) (A) (A) (A) (A) (A) (A) (A) (A) (A) (A) (A)
                 (A) (A) (A) (A) (A)
 Beta  Orbitals:
       Occupied  (A) (A) (A) (A) (A) (A) (A) (A) (A) (A) (A) (A)
                 (A) (A) (A) (A) (A) (A) (A) (A) (A) (A) (A) (A)
                 (A) (A) (A) (A) (A)
       Virtual   (A) (A) (A) (A) (A) (A) (A) (A) (A) (A) (A) (A)
                 (A) (A) (A) (A) (A) (A) (A) (A) (A) (A) (A) (A)
                 (A) (A) (A) (A) (A) (A) (A) (A) (A) (A) (A) (A)
                 (A) (A) (A) (A) (A) (A) (A) (A) (A) (A) (A) (A)
                 (A) (A) (A) (A) (A) (A) (A) (A) (A) (A) (A) (A)
                 (A) (A) (A) (A) (A) (A) (A) (A) (A) (A) (A) (A)
                 (A) (A) (A) (A) (A) (A) (A) (A) (A) (A) (A) (A)
                 (A) (A) (A) (A) (A) (A) (A) (A) (A) (A) (A) (A)
                 (A) (A) (A) (A) (A) (A) (A) (A) (A) (A) (A) (A)
                 (A) (A) (A) (A) (A) (A) (A) (A) (A) (A) (A) (A)
                 (A) (A) (A) (A) (A) (A) (A) (A) (A) (A) (A) (A)
                 (A) (A) (A) (A) (A) (A)
 The electronic state is 2-A.
 Alpha  occ. eigenvalues --  -19.48065 -19.44300 -14.67708 -14.64972 -14.61688
 Alpha  occ. eigenvalues --  -10.52539 -10.42402 -10.42316  -1.05186  -0.99859
 Alpha  occ. eigenvalues --   -0.94248  -0.80964  -0.75396  -0.57487  -0.53571
 Alpha  occ. eigenvalues --   -0.46823  -0.44071  -0.40819  -0.37224  -0.36421
 Alpha  occ. eigenvalues --   -0.33988  -0.32076  -0.30052  -0.23394  -0.20977
 Alpha  occ. eigenvalues --   -0.19831  -0.18579  -0.17782  -0.17490  -0.01477
 Alpha virt. eigenvalues --    0.13392   0.14130   0.16330   0.17955   0.18804
 Alpha virt. eigenvalues --    0.19083   0.19259   0.21069   0.21392   0.21824
 Alpha virt. eigenvalues --    0.24143   0.25733   0.26921   0.27194   0.28596
 Alpha virt. eigenvalues --    0.30986   0.32928   0.34682   0.35556   0.36228
 Alpha virt. eigenvalues --    0.37063   0.37501   0.38048   0.39528   0.40437
 Alpha virt. eigenvalues --    0.41077   0.41962   0.42977   0.43474   0.44068
 Alpha virt. eigenvalues --    0.46278   0.46482   0.47075   0.47581   0.48405
 Alpha virt. eigenvalues --    0.49065   0.50201   0.51597   0.53472   0.55634
 Alpha virt. eigenvalues --    0.56935   0.63251   0.66429   0.68720   0.81621
 Alpha virt. eigenvalues --    0.84988   0.88675   0.92121   0.96857   0.97895
 Alpha virt. eigenvalues --    1.01979   1.04001   1.04937   1.07437   1.08557
 Alpha virt. eigenvalues --    1.10789   1.13194   1.14719   1.17057   1.18094
 Alpha virt. eigenvalues --    1.22131   1.24493   1.27324   1.30410   1.32052
 Alpha virt. eigenvalues --    1.32962   1.37372   1.39419   1.43348   1.44555
 Alpha virt. eigenvalues --    1.48950   1.50409   1.52586   1.53565   1.56503
 Alpha virt. eigenvalues --    1.57278   1.58543   1.64761   1.65547   1.67464
 Alpha virt. eigenvalues --    1.68863   1.71835   1.75010   1.77438   1.78979
 Alpha virt. eigenvalues --    1.92586   1.93648   2.00703   2.02345   2.02873
 Alpha virt. eigenvalues --    2.06782   2.08185   2.13036   2.16332   2.17797
 Alpha virt. eigenvalues --    2.19553   2.22836   2.23966   2.30296   2.32734
 Alpha virt. eigenvalues --    2.35648   2.37880   2.41747   2.45734   2.48373
 Alpha virt. eigenvalues --    2.51418   2.57838   2.61378   2.66087   2.68922
 Alpha virt. eigenvalues --    2.69400   2.77198   2.79501   2.85700   2.86111
 Alpha virt. eigenvalues --    2.95170   2.95810   3.01464   3.03474   3.08360
 Alpha virt. eigenvalues --    3.12465   3.16092   3.24562   3.27064   3.32093
 Alpha virt. eigenvalues --    3.39924   3.42780   3.45681   3.84682   4.16836
 Alpha virt. eigenvalues --    4.34747   4.38294   4.47537   4.55531   4.73112
 Alpha virt. eigenvalues --    4.78116   4.80711
  Beta  occ. eigenvalues --  -19.48029 -19.44220 -14.67324 -14.64581 -14.61244
  Beta  occ. eigenvalues --  -10.52496 -10.42470 -10.42161  -1.04665  -0.99096
  Beta  occ. eigenvalues --   -0.94041  -0.79637  -0.74517  -0.56480  -0.52984
  Beta  occ. eigenvalues --   -0.45870  -0.43546  -0.39262  -0.36562  -0.36109
  Beta  occ. eigenvalues --   -0.33671  -0.31038  -0.28864  -0.21988  -0.19194
  Beta  occ. eigenvalues --   -0.18527  -0.17311  -0.16169  -0.15257
  Beta virt. eigenvalues --    0.12809   0.14076   0.14385   0.16042   0.17295
  Beta virt. eigenvalues --    0.18548   0.18778   0.19462   0.20242   0.20714
  Beta virt. eigenvalues --    0.21839   0.24792   0.25092   0.26623   0.28182
  Beta virt. eigenvalues --    0.28415   0.31550   0.32667   0.34720   0.35493
  Beta virt. eigenvalues --    0.36081   0.37039   0.37409   0.37910   0.39527
  Beta virt. eigenvalues --    0.40346   0.41363   0.41818   0.42843   0.43152
  Beta virt. eigenvalues --    0.43962   0.46259   0.46500   0.47109   0.47715
  Beta virt. eigenvalues --    0.48522   0.49075   0.50045   0.51662   0.53268
  Beta virt. eigenvalues --    0.56014   0.56784   0.63668   0.66517   0.69108
  Beta virt. eigenvalues --    0.81991   0.85213   0.88812   0.92674   0.97045
  Beta virt. eigenvalues --    0.98213   1.02181   1.04128   1.05064   1.07668
  Beta virt. eigenvalues --    1.08848   1.10991   1.14455   1.15703   1.18218
  Beta virt. eigenvalues --    1.18874   1.22816   1.24838   1.27911   1.30599
  Beta virt. eigenvalues --    1.31969   1.33408   1.38143   1.39919   1.43264
  Beta virt. eigenvalues --    1.44847   1.49006   1.50838   1.52806   1.53773
  Beta virt. eigenvalues --    1.56988   1.57342   1.59123   1.65136   1.66208
  Beta virt. eigenvalues --    1.68020   1.69151   1.72332   1.75784   1.77874
  Beta virt. eigenvalues --    1.79450   1.92763   1.93933   2.00951   2.02448
  Beta virt. eigenvalues --    2.03056   2.07315   2.08455   2.13561   2.16596
  Beta virt. eigenvalues --    2.17904   2.19737   2.23138   2.24367   2.30571
  Beta virt. eigenvalues --    2.33524   2.36296   2.38158   2.42224   2.46124
  Beta virt. eigenvalues --    2.48832   2.51842   2.58353   2.61650   2.66383
  Beta virt. eigenvalues --    2.69333   2.69821   2.77828   2.80183   2.86146
  Beta virt. eigenvalues --    2.86647   2.95476   2.96274   3.01998   3.03737
  Beta virt. eigenvalues --    3.08681   3.13193   3.16939   3.24853   3.27317
  Beta virt. eigenvalues --    3.32286   3.40183   3.43054   3.45977   3.85133
  Beta virt. eigenvalues --    4.17293   4.34874   4.38551   4.47702   4.55875
  Beta virt. eigenvalues --    4.73596   4.78266   4.81091
          Condensed to atoms (all electrons):
               1          2          3          4          5          6
     1  N    8.087681  -0.219262  -0.020702  -0.006255  -0.355138   0.003439
     2  N   -0.219262   7.730058  -0.376416   0.336901  -0.371252  -0.039406
     3  C   -0.020702  -0.376416   6.708909  -0.717755   0.421427   0.362323
     4  C   -0.006255   0.336901  -0.717755   6.280631  -0.200261   0.005611
     5  N   -0.355138  -0.371252   0.421427  -0.200261   7.783076  -0.006906
     6  H    0.003439  -0.039406   0.362323   0.005611  -0.006906   0.545684
     7  H    0.003533   0.000340  -0.044535   0.406812  -0.060643   0.000601
     8  H   -0.138560   0.273735  -0.032273   0.016592  -0.014059  -0.000048
     9  C   -0.023118   0.118816  -0.079575   0.021437  -0.005885   0.001410
    10  O   -0.079738  -0.133549   0.014682   0.000721  -0.003890   0.000014
    11  O   -0.158071   0.003636   0.010651  -0.017258   0.021886   0.000013
               7          8          9         10         11
     1  N    0.003533  -0.138560  -0.023118  -0.079738  -0.158071
     2  N    0.000340   0.273735   0.118816  -0.133549   0.003636
     3  C   -0.044535  -0.032273  -0.079575   0.014682   0.010651
     4  C    0.406812   0.016592   0.021437   0.000721  -0.017258
     5  N   -0.060643  -0.014059  -0.005885  -0.003890   0.021886
     6  H    0.000601  -0.000048   0.001410   0.000014   0.000013
     7  H    0.574419  -0.000025   0.000766   0.000103  -0.000055
     8  H   -0.000025   0.476386   0.056109   0.040956   0.003081
     9  C    0.000766   0.056109   4.521454   0.283603   0.502421
    10  O    0.000103   0.040956   0.283603   8.594542  -0.130913
    11  O   -0.000055   0.003081   0.502421  -0.130913   8.345022
          Atomic-Atomic Spin Densities.
               1          2          3          4          5          6
     1  N    0.549674  -0.275667   0.168277  -0.052878  -0.179426  -0.005259
     2  N   -0.275667   0.500352  -0.255798   0.000797   0.140520   0.002290
     3  C    0.168277  -0.255798   0.559010  -0.003763  -0.132341  -0.003240
     4  C   -0.052878   0.000797  -0.003763  -0.116135  -0.006850   0.004731
     5  N   -0.179426   0.140520  -0.132341  -0.006850   0.515083   0.001323
     6  H   -0.005259   0.002290  -0.003240   0.004731   0.001323  -0.012665
     7  H    0.001089   0.000080   0.000654   0.001572  -0.002411   0.000007
     8  H   -0.120991   0.110780  -0.033590   0.021089   0.002224   0.000309
     9  C   -0.023520   0.038199  -0.031258   0.021276  -0.006965   0.000570
    10  O    0.051440  -0.041679   0.008407  -0.007109   0.000443  -0.000047
    11  O    0.005149  -0.007556  -0.001281  -0.000197   0.004193  -0.000001
               7          8          9         10         11
     1  N    0.001089  -0.120991  -0.023520   0.051440   0.005149
     2  N    0.000080   0.110780   0.038199  -0.041679  -0.007556
     3  C    0.000654  -0.033590  -0.031258   0.008407  -0.001281
     4  C    0.001572   0.021089   0.021276  -0.007109  -0.000197
     5  N   -0.002411   0.002224  -0.006965   0.000443   0.004193
     6  H    0.000007   0.000309   0.000570  -0.000047  -0.000001
     7  H    0.003271   0.000001   0.000083  -0.000001   0.000004
     8  H    0.000001   0.167766   0.030593  -0.048965  -0.002032
     9  C    0.000083   0.030593   0.063935  -0.015005  -0.023515
    10  O   -0.000001  -0.048965  -0.015005   0.035866   0.003178
    11  O    0.000004  -0.002032  -0.023515   0.003178   0.057969
 Mulliken charges and spin densities:
               1          2
     1  N   -0.093808   0.117889
     2  N   -0.323601   0.212320
     3  C   -0.246735   0.275077
     4  C   -0.127177  -0.137465
     5  N   -0.208354   0.335793
     6  H    0.127265  -0.011982
     7  H    0.118685   0.004350
     8  H    0.318107   0.127186
     9  C    0.602562   0.054393
    10  O   -0.586531  -0.013471
    11  O   -0.580413   0.035911
 Sum of Mulliken charges =  -1.00000   1.00000
 Mulliken charges and spin densities with hydrogens summed into heavy atoms:
               1          2
     1  N   -0.093808   0.117889
     2  N   -0.005494   0.339506
     3  C   -0.119469   0.263095
     4  C   -0.008492  -0.133115
     5  N   -0.208354   0.335793
     9  C    0.602562   0.054393
    10  O   -0.586531  -0.013471
    11  O   -0.580413   0.035911
 APT charges:
               1
     1  N   -0.196320
     2  N   -0.367488
     3  C   -0.637369
     4  C   -0.358280
     5  N   -0.450890
     6  H    0.623841
     7  H    0.606537
     8  H    0.395012
     9  C    0.231568
    10  O   -0.490237
    11  O   -0.356373
 Sum of APT charges =  -1.00000
 APT charges with hydrogens summed into heavy atoms:
               1
     1  N   -0.196320
     2  N    0.027524
     3  C   -0.013528
     4  C    0.248257
     5  N   -0.450890
     9  C    0.231568
    10  O   -0.490237
    11  O   -0.356373
 Electronic spatial extent (au):  <R**2>=            836.1894
 Charge=             -1.0000 electrons
 Dipole moment (field-independent basis, Debye):
    X=             -4.6023    Y=              2.1506    Z=             -0.6335  Tot=              5.1194
 Quadrupole moment (field-independent basis, Debye-Ang):
   XX=            -63.8317   YY=            -58.5393   ZZ=            -51.0297
   XY=              1.7315   XZ=              2.4914   YZ=             -0.5392
 Traceless Quadrupole moment (field-independent basis, Debye-Ang):
   XX=             -6.0315   YY=             -0.7390   ZZ=              6.7705
   XY=              1.7315   XZ=              2.4914   YZ=             -0.5392
 Octapole moment (field-independent basis, Debye-Ang**2):
  XXX=            -25.1808  YYY=             10.4382  ZZZ=              0.5796  XYY=             -7.3882
  XXY=              1.9934  XXZ=              0.4939  XZZ=              9.2693  YZZ=             -1.3501
  YYZ=             -2.6416  XYZ=              0.6219
 Hexadecapole moment (field-independent basis, Debye-Ang**3):
 XXXX=           -835.9197 YYYY=           -325.0629 ZZZZ=            -75.3172 XXXY=             11.5924
 XXXZ=             16.9981 YYYX=              1.6182 YYYZ=             -3.0754 ZZZX=             -3.2484
 ZZZY=             -0.5982 XXYY=           -197.8979 XXZZ=           -150.5971 YYZZ=            -68.0026
 XXYZ=              3.0000 YYXZ=              4.9385 ZZXY=              2.2716
 N-N= 3.587909741343D+02 E-N=-1.735615715575D+03  KE= 4.268640119881D+02
  Exact polarizability:   0.000   0.000   0.000   0.000   0.000   0.000
 Approx polarizability: 112.053  -2.263 111.424   1.980  -2.281  60.355
                          Isotropic Fermi Contact Couplings
        Atom                 a.u.       MegaHertz       Gauss      10(-4) cm-1
     1  N(14)              0.10138      32.75680      11.68844      10.92649
     2  N(14)              0.15873      51.28711      18.30052      17.10754
     3  C(13)              0.03960      44.51548      15.88423      14.84877
     4  C(13)             -0.03035     -34.12368     -12.17618     -11.38243
     5  N(14)              0.08992      29.05311      10.36687       9.69107
     6  H(1)              -0.00374     -16.71852      -5.96558      -5.57670
     7  H(1)               0.00093       4.16604       1.48655       1.38964
     8  H(1)               0.04807     214.88929      76.67784      71.67935
     9  C(13)              0.01697      19.07313       6.80577       6.36211
    10  O(17)              0.02758     -16.71964      -5.96598      -5.57707
    11  O(17)              0.00969      -5.87539      -2.09649      -1.95982
 --------------------------------------------------------
       Center         ----  Spin Dipole Couplings  ----
                      3XX-RR        3YY-RR        3ZZ-RR
 --------------------------------------------------------
     1   Atom       -0.259167     -0.249362      0.508529
     2   Atom       -0.263451     -0.217345      0.480797
     3   Atom       -0.114546     -0.125080      0.239626
     4   Atom        0.044243      0.048792     -0.093035
     5   Atom       -0.308230     -0.340748      0.648978
     6   Atom        0.003890     -0.001954     -0.001936
     7   Atom        0.003302      0.002396     -0.005698
     8   Atom        0.001051      0.004222     -0.005273
     9   Atom        0.060870     -0.030709     -0.030161
    10   Atom       -0.040824      0.073869     -0.033045
    11   Atom        0.000872     -0.060823      0.059951
 --------------------------------------------------------
                        XY            XZ            YZ
 --------------------------------------------------------
     1   Atom       -0.005167      0.032459     -0.057253
     2   Atom       -0.038880     -0.014479      0.210335
     3   Atom       -0.003833     -0.016281      0.002070
     4   Atom       -0.009797      0.043589      0.003214
     5   Atom        0.005963     -0.193831     -0.046087
     6   Atom       -0.020527      0.003491     -0.004606
     7   Atom       -0.002125      0.002747     -0.000283
     8   Atom        0.011589     -0.001535     -0.005631
     9   Atom        0.012240      0.038705      0.007257
    10   Atom       -0.030258     -0.051422      0.069029
    11   Atom        0.038802      0.114377      0.060604
 --------------------------------------------------------


 ---------------------------------------------------------------------------------
              Anisotropic Spin Dipole Couplings in Principal Axis System
 ---------------------------------------------------------------------------------

       Atom             a.u.   MegaHertz   Gauss  10(-4) cm-1        Axes

              Baa    -0.2615   -10.085    -3.599    -3.364  0.9439  0.3299 -0.0153
     1 N(14)  Bbb    -0.2527    -9.747    -3.478    -3.251 -0.3276  0.9410  0.0847
              Bcc     0.5142    19.832     7.077     6.615  0.0423 -0.0750  0.9963
 
              Baa    -0.3041   -11.727    -4.185    -3.912  0.6437  0.7421 -0.1870
     2 N(14)  Bbb    -0.2359    -9.100    -3.247    -3.035  0.7647 -0.6140  0.1956
              Bcc     0.5400    20.827     7.432     6.947 -0.0304  0.2689  0.9627
 
              Baa    -0.1264   -16.956    -6.050    -5.656  0.3197  0.9475  0.0089
     3 C(13)  Bbb    -0.1140   -15.302    -5.460    -5.104  0.9464 -0.3198  0.0454
              Bcc     0.2404    32.258    11.510    10.760 -0.0459  0.0061  0.9989
 
              Baa    -0.1059   -14.214    -5.072    -4.741 -0.2808 -0.0377  0.9590
     4 C(13)  Bbb     0.0436     5.849     2.087     1.951  0.5073  0.8424  0.1817
              Bcc     0.0623     8.366     2.985     2.790  0.8147 -0.5375  0.2174
 
              Baa    -0.3478   -13.413    -4.786    -4.474  0.8373  0.5140  0.1866
     5 N(14)  Bbb    -0.3411   -13.154    -4.694    -4.388 -0.5124  0.8566 -0.0604
              Bcc     0.6888    26.567     9.480     8.862 -0.1909 -0.0450  0.9806
 
              Baa    -0.0198   -10.590    -3.779    -3.533  0.6467  0.7596  0.0693
     6 H(1)   Bbb    -0.0031    -1.674    -0.597    -0.558 -0.2129  0.0925  0.9727
              Bcc     0.0230    12.265     4.376     4.091  0.7325 -0.6437  0.2216
 
              Baa    -0.0065    -3.458    -1.234    -1.154 -0.2773 -0.0357  0.9601
     7 H(1)   Bbb     0.0010     0.513     0.183     0.171  0.5329  0.8258  0.1847
              Bcc     0.0055     2.945     1.051     0.982  0.7994 -0.5629  0.2100
 
              Baa    -0.0106    -5.654    -2.017    -1.886 -0.5702  0.6411  0.5137
     8 H(1)   Bbb    -0.0051    -2.706    -0.965    -0.903  0.5413 -0.1771  0.8219
              Bcc     0.0157     8.360     2.983     2.788  0.6179  0.7467 -0.2461
 
              Baa    -0.0449    -6.028    -2.151    -2.011 -0.3159 -0.2013  0.9272
     9 C(13)  Bbb    -0.0320    -4.294    -1.532    -1.432 -0.1890  0.9710  0.1464
              Bcc     0.0769    10.322     3.683     3.443  0.9298  0.1290  0.3448
 
              Baa    -0.0936     6.771     2.416     2.259  0.6230 -0.1992  0.7564
    10 O(17)  Bbb    -0.0298     2.156     0.769     0.719  0.7227  0.5167 -0.4591
              Bcc     0.1234    -8.927    -3.185    -2.978 -0.2994  0.8327  0.4659
 
              Baa    -0.0920     6.654     2.374     2.219 -0.5526 -0.5427  0.6326
    11 O(17)  Bbb    -0.0788     5.701     2.034     1.902 -0.5994  0.7861  0.1508
              Bcc     0.1707   -12.355    -4.408    -4.121  0.5791  0.2959  0.7597
 

 ---------------------------------------------------------------------------------

 Calling FoFJK, ICntrl=    100147 FMM=F ISym2X=0 I1Cent= 0 IOpClX= 1 NMat=1 NMatS=1 NMatT=0.
 ***** Axes restored to original set *****
 -------------------------------------------------------------------
 Center     Atomic                   Forces (Hartrees/Bohr)
 Number     Number              X              Y              Z
 -------------------------------------------------------------------
      1        7          -0.008378769    0.012419414   -0.000565380
      2        7           0.044972509    0.032416705   -0.023162523
      3        6           0.017657813    0.003360093    0.005189429
      4        6           0.001685438   -0.005639477   -0.001386341
      5        7           0.000575492   -0.008392540   -0.003417660
      6        1           0.000480071    0.000492385    0.000134139
      7        1           0.000272014   -0.001051085   -0.000139017
      8        1          -0.022852979   -0.039808833    0.023444350
      9        6          -0.028490380   -0.040027181    0.010171266
     10        8          -0.010342279    0.034573983   -0.008211351
     11        8           0.004421070    0.011656535   -0.002056913
 -------------------------------------------------------------------
 Cartesian Forces:  Max     0.044972509 RMS     0.018264662
 FormGI is forming the generalized inverse of G from B-inverse, IUseBI=4.

 GradGradGradGradGradGradGradGradGradGradGradGradGradGradGradGradGradGrad
 Berny optimization.
 Internal  Forces:  Max     0.052467455 RMS     0.010103769
 Search for a saddle point.
 Step number   1 out of a maximum of   65
 All quantities printed in internal units (Hartrees-Bohrs-Radians)
 Swapping is turned off.
 Second derivative matrix not updated -- analytic derivatives used.
 ITU=  0
     Eigenvalues ---   -0.05926  -0.01255   0.00749   0.00864   0.01289
     Eigenvalues ---    0.01621   0.02343   0.02811   0.04786   0.05759
     Eigenvalues ---    0.07326   0.09500   0.10789   0.12188   0.18324
     Eigenvalues ---    0.19716   0.25162   0.27050   0.29320   0.30006
     Eigenvalues ---    0.37464   0.38517   0.40638   0.44066   0.51130
     Eigenvalues ---    0.59460   0.82759
 Eigenvectors required to have negative eigenvalues:
                          R10       R5        A6        A5        D13
   1                   -0.67527   0.65401   0.12258  -0.12158  -0.12129
                          R3        A18       D14       A17       D16
   1                   -0.11410   0.09433  -0.08850  -0.08477   0.07654
 RFO step:  Lambda0=4.082890560D-03 Lambda=-6.29833739D-02.
 Linear search not attempted -- option 19 set.
 Maximum step size (   0.300) exceeded in Quadratic search.
    -- Step size scaled by   0.277
 Iteration  1 RMS(Cart)=  0.03768343 RMS(Int)=  0.00291476
 Iteration  2 RMS(Cart)=  0.00267031 RMS(Int)=  0.00052361
 Iteration  3 RMS(Cart)=  0.00000424 RMS(Int)=  0.00052359
 Iteration  4 RMS(Cart)=  0.00000000 RMS(Int)=  0.00052359
 Variable       Old X    -DE/DX   Delta X   Delta X   Delta X     New X
                                 (Linear)    (Quad)   (Total)
    R1        2.65469  -0.00642   0.00000   0.00353   0.00292   2.65761
    R2        2.57630   0.00268   0.00000   0.01213   0.01202   2.58832
    R3        2.85621  -0.01704   0.00000  -0.06518  -0.06632   2.78990
    R4        2.63830  -0.01200   0.00000  -0.00249  -0.00248   2.63582
    R5        2.77053  -0.05247   0.00000  -0.14951  -0.14850   2.62204
    R6        2.60424   0.00715   0.00000  -0.00009   0.00008   2.60431
    R7        2.03756  -0.00005   0.00000   0.00045   0.00045   2.03801
    R8        2.53901  -0.00623   0.00000   0.00784   0.00794   2.54695
    R9        2.04545   0.00048   0.00000   0.00033   0.00033   2.04577
   R10        2.91560  -0.02251   0.00000  -0.21552  -0.21453   2.70107
   R11        2.36021   0.02256   0.00000   0.03308   0.03268   2.39288
   R12        2.31783  -0.00781   0.00000  -0.00313  -0.00313   2.31471
    A1        1.93656   0.01277   0.00000   0.01064   0.01114   1.94770
    A2        2.01832  -0.00832   0.00000  -0.03820  -0.03939   1.97893
    A3        2.14818  -0.00597   0.00000   0.02107   0.02177   2.16995
    A4        1.83854  -0.00935   0.00000  -0.00830  -0.00846   1.83008
    A5        1.61923   0.01037   0.00000  -0.01461  -0.01403   1.60520
    A6        2.35035  -0.00353   0.00000   0.03251   0.03249   2.38284
    A7        1.84876   0.00755   0.00000   0.00699   0.00694   1.85571
    A8        2.12698  -0.00444   0.00000  -0.00105  -0.00103   2.12595
    A9        2.30120  -0.00305   0.00000  -0.00579  -0.00577   2.29543
   A10        1.96461  -0.00176   0.00000   0.00380   0.00381   1.96842
   A11        2.22746   0.00187   0.00000  -0.00154  -0.00155   2.22591
   A12        2.09110  -0.00011   0.00000  -0.00227  -0.00228   2.08882
   A13        1.83334  -0.00909   0.00000  -0.01333  -0.01364   1.81970
   A14        2.05475   0.01064   0.00000   0.09308   0.09491   2.14967
   A15        1.93954  -0.00716   0.00000  -0.01577  -0.01738   1.92216
   A16        2.00540   0.01512   0.00000   0.04399   0.04479   2.05018
   A17        2.33795  -0.00792   0.00000  -0.02827  -0.02746   2.31049
   A18        1.73342  -0.00531   0.00000  -0.01722  -0.01719   1.71623
    D1       -0.05083   0.00168   0.00000  -0.00140  -0.00133  -0.05216
    D2       -2.45929   0.00428   0.00000  -0.02737  -0.02753  -2.48683
    D3        2.50300  -0.00239   0.00000  -0.00216  -0.00175   2.50125
    D4        0.09454   0.00022   0.00000  -0.02813  -0.02796   0.06658
    D5        0.00936  -0.00111   0.00000   0.00009  -0.00000   0.00935
    D6       -2.49297   0.00350   0.00000   0.02478   0.02527  -2.46770
    D7        0.12244  -0.00189   0.00000   0.00607   0.00593   0.12837
    D8       -3.04165  -0.00074   0.00000   0.00359   0.00339  -3.03826
    D9        2.59783   0.00022   0.00000  -0.00242  -0.00265   2.59518
   D10       -0.56625   0.00137   0.00000  -0.00490  -0.00520  -0.57145
   D11        0.07000  -0.00167   0.00000   0.00219   0.00216   0.07215
   D12        3.10496  -0.00124   0.00000   0.00315   0.00308   3.10804
   D13        1.98954   0.00134   0.00000  -0.00883  -0.00870   1.98084
   D14       -1.25868   0.00177   0.00000  -0.00787  -0.00777  -1.26645
   D15       -0.26359  -0.00314   0.00000   0.01013   0.01035  -0.25324
   D16       -2.26817   0.00112   0.00000   0.02217   0.02260  -2.24557
   D17       -0.06989   0.00061   0.00000  -0.00288  -0.00294  -0.07282
   D18        3.07744   0.00042   0.00000   0.00035   0.00035   3.07779
   D19       -3.08984   0.00011   0.00000  -0.00453  -0.00454  -3.09437
   D20        0.05749  -0.00008   0.00000  -0.00130  -0.00126   0.05623
   D21        0.03804  -0.00007   0.00000   0.00147   0.00156   0.03960
   D22       -3.10878   0.00011   0.00000  -0.00148  -0.00144  -3.11022
   D23        0.35528   0.00045   0.00000  -0.01097  -0.01070   0.34458
   D24       -0.25005   0.00301   0.00000   0.01297   0.01260  -0.23744
   D25        2.91989   0.00115   0.00000   0.01474   0.01434   2.93423
         Item               Value     Threshold  Converged?
 Maximum Force            0.052467     0.000450     NO 
 RMS     Force            0.010104     0.000300     NO 
 Maximum Displacement     0.147259     0.001800     NO 
 RMS     Displacement     0.039657     0.001200     NO 
 Predicted change in Energy=-1.727028D-02
 GradGradGradGradGradGradGradGradGradGradGradGradGradGradGradGradGradGrad

                          Input orientation:                          
 ---------------------------------------------------------------------
 Center     Atomic      Atomic             Coordinates (Angstroms)
 Number     Number       Type             X           Y           Z
 ---------------------------------------------------------------------
      1          7           0        0.022485   -0.151911    0.377416
      2          7           0       -0.704410    1.048391    0.284091
      3          6           0       -1.973334    0.665183   -0.150074
      4          6           0       -1.966660   -0.712096   -0.198397
      5          7           0       -0.759130   -1.238481    0.086775
      6          1           0       -2.768268    1.381388   -0.285055
      7          1           0       -2.794001   -1.367649   -0.438666
      8          1           0        0.383304    1.721188   -0.253903
      9          6           0        1.436910   -0.012963   -0.022215
     10          8           0        1.716214    1.206203   -0.219791
     11          8           0        2.111624   -1.033842   -0.076264
 ---------------------------------------------------------------------
                    Distance matrix (angstroms):
                    1          2          3          4          5
     1  N    0.000000
     2  N    1.406347   0.000000
     3  C    2.220176   1.394817   0.000000
     4  C    2.145242   2.219321   1.378143   0.000000
     5  N    1.369681   2.296021   2.270314   1.347788   0.000000
     6  H    3.252411   2.166639   1.078467   2.243382   3.322440
     7  H    3.174366   3.275060   2.211150   1.082576   2.105581
     8  H    2.009293   1.387522   2.584506   3.383236   3.190746
     9  C    1.476350   2.409470   3.479366   3.479097   2.517214
    10  O    2.251633   2.477544   3.729655   4.152576   3.492534
    11  O    2.312602   3.520738   4.424818   4.092778   2.882653
                    6          7          8          9         10
     6  H    0.000000
     7  H    2.753446   0.000000
     8  H    3.169991   4.435123   0.000000
     9  C    4.438110   4.461974   2.042313   0.000000
    10  O    4.488377   5.197563   1.429343   1.266259   0.000000
    11  O    5.448878   4.930306   3.257121   1.224890   2.279200
                   11
    11  O    0.000000
 Stoichiometry    C3H3N3O2(1-,2)
 Framework group  C1[X(C3H3N3O2)]
 Deg. of freedom    27
 Full point group                 C1      NOp   1
 Largest Abelian subgroup         C1      NOp   1
 Largest concise Abelian subgroup C1      NOp   1
                         Standard orientation:                         
 ---------------------------------------------------------------------
 Center     Atomic      Atomic             Coordinates (Angstroms)
 Number     Number       Type             X           Y           Z
 ---------------------------------------------------------------------
      1          7           0        0.013178   -0.162595    0.381405
      2          7           0       -0.692719    1.051036    0.300034
      3          6           0       -1.967210    0.694597   -0.140579
      4          6           0       -1.984201   -0.681977   -0.204074
      5          7           0       -0.786493   -1.232242    0.077416
      6          1           0       -2.749404    1.425866   -0.269063
      7          1           0       -2.822254   -1.320462   -0.453023
      8          1           0        0.407493    1.710821   -0.228580
      9          6           0        1.430571   -0.043710   -0.014161
     10          8           0        1.731252    1.172549   -0.197786
     11          8           0        2.087678   -1.075434   -0.078269
 ---------------------------------------------------------------------
 Rotational constants (GHZ):           5.0103992           1.8577976           1.3938065
 Standard basis: 6-31+G(d,p) (6D, 7F)
 There are   167 symmetry adapted cartesian basis functions of A   symmetry.
 There are   167 symmetry adapted basis functions of A   symmetry.
   167 basis functions,   277 primitive gaussians,   167 cartesian basis functions
    30 alpha electrons       29 beta electrons
       nuclear repulsion energy       360.4966260136 Hartrees.
 NAtoms=   11 NActive=   11 NUniq=   11 SFac= 1.00D+00 NAtFMM=   60 NAOKFM=F Big=F
 Integral buffers will be    131072 words long.
 Raffenetti 2 integral format.
 Two-electron integral symmetry is turned on.
 One-electron integrals computed using PRISM.
 NBasis=   167 RedAO= T EigKep=  5.25D-05  NBF=   167
 NBsUse=   167 1.00D-06 EigRej= -1.00D+00 NBFU=   167
 Initial guess from the checkpoint file:  "/scratch/gongke2021/TS/Gau-9840.chk"
 B after Tr=     0.000000    0.000000    0.000000
         Rot=    0.999995   -0.002872   -0.000989   -0.000423 Ang=  -0.35 deg.
 Initial guess <Sx>= 0.0000 <Sy>= 0.0000 <Sz>= 0.5000 <S**2>= 0.7648 S= 0.5074
 ExpMin= 4.38D-02 ExpMax= 5.48D+03 ExpMxC= 8.25D+02 IAcc=2 IRadAn=         4 AccDes= 0.00D+00
 Harris functional with IExCor= 1009 and IRadAn=       4 diagonalized for initial guess.
 HarFok:  IExCor= 1009 AccDes= 0.00D+00 IRadAn=         4 IDoV= 1 UseB2=F ITyADJ=14
 ICtDFT=  3500011 ScaDFX=  1.000000  1.000000  1.000000  1.000000
 FoFCou: FMM=F IPFlag=           0 FMFlag=      100000 FMFlg1=           0
         NFxFlg=           0 DoJE=T BraDBF=F KetDBF=T FulRan=T
         wScrn=  0.000000 ICntrl=       500 IOpCl=  0 I1Cent=   200000004 NGrid=           0
         NMat0=    1 NMatS0=      1 NMatT0=    0 NMatD0=    1 NMtDS0=    0 NMtDT0=    0
 Petite list used in FoFCou.
 Keep R1 and R2 ints in memory in canonical form, NReq=220618657.
 Requested convergence on RMS density matrix=1.00D-08 within 128 cycles.
 Requested convergence on MAX density matrix=1.00D-06.
 Requested convergence on             energy=1.00D-06.
 No special actions if energy rises.
 SCF Done:  E(UM062X) =  -430.632814128     A.U. after   18 cycles
            NFock= 18  Conv=0.60D-08     -V/T= 2.0087
 <Sx>= 0.0000 <Sy>= 0.0000 <Sz>= 0.5000 <S**2>= 0.7649 S= 0.5074
 <L.S>=  0.00000000000    
 Annihilation of the first spin contaminant:
 S**2 before annihilation     0.7649,   after     0.7501
 Calling FoFJK, ICntrl=      2127 FMM=F ISym2X=0 I1Cent= 0 IOpClX= 1 NMat=1 NMatS=1 NMatT=0.
 ***** Axes restored to original set *****
 -------------------------------------------------------------------
 Center     Atomic                   Forces (Hartrees/Bohr)
 Number     Number              X              Y              Z
 -------------------------------------------------------------------
      1        7          -0.007498701    0.009737795   -0.000140944
      2        7           0.033750024    0.026009621   -0.020846204
      3        6           0.015705281    0.002170446    0.005487985
      4        6           0.001333797   -0.004959523   -0.001537989
      5        7          -0.000308612   -0.005386016   -0.001911337
      6        1           0.000303836    0.000313147    0.000010665
      7        1           0.000241775   -0.000855081   -0.000149487
      8        1          -0.014069457   -0.034007424    0.021447328
      9        6          -0.020525868   -0.030642337    0.007055112
     10        8          -0.012414430    0.028713096   -0.008134629
     11        8           0.003482355    0.008906276   -0.001280500
 -------------------------------------------------------------------
 Cartesian Forces:  Max     0.034007424 RMS     0.014675780

 GradGradGradGradGradGradGradGradGradGradGradGradGradGradGradGradGradGrad
 Berny optimization.
 FormGI is forming the generalized inverse of G from B-inverse, IUseBI=4.
 Internal  Forces:  Max     0.042063485 RMS     0.008244710
 Search for a saddle point.
 Step number   2 out of a maximum of   65
 All quantities printed in internal units (Hartrees-Bohrs-Radians)
 Swapping is turned off.
 Update second derivatives using D2CorX and points    1    2
 ITU=  0  0
     Eigenvalues ---   -0.06005   0.00437   0.00792   0.00872   0.01404
     Eigenvalues ---    0.02330   0.02726   0.03021   0.04822   0.05761
     Eigenvalues ---    0.07393   0.09500   0.10789   0.12539   0.18317
     Eigenvalues ---    0.19836   0.25160   0.27105   0.29335   0.30007
     Eigenvalues ---    0.37468   0.38517   0.40661   0.44071   0.51169
     Eigenvalues ---    0.59452   0.82765
 Eigenvectors required to have negative eigenvalues:
                          R10       R5        A6        R3        D13
   1                   -0.71144   0.61231   0.12581  -0.12278  -0.11960
                          A5        D14       A17       D16       A18
   1                   -0.11956  -0.08760  -0.08679   0.08521   0.08383
 RFO step:  Lambda0=8.333086848D-04 Lambda=-4.01040260D-02.
 Linear search not attempted -- option 19 set.
 Maximum step size (   0.300) exceeded in Quadratic search.
    -- Step size scaled by   0.398
 Iteration  1 RMS(Cart)=  0.04115344 RMS(Int)=  0.00230429
 Iteration  2 RMS(Cart)=  0.00185677 RMS(Int)=  0.00066340
 Iteration  3 RMS(Cart)=  0.00000581 RMS(Int)=  0.00066338
 Iteration  4 RMS(Cart)=  0.00000000 RMS(Int)=  0.00066338
 Variable       Old X    -DE/DX   Delta X   Delta X   Delta X     New X
                                 (Linear)    (Quad)   (Total)
    R1        2.65761  -0.00551   0.00000   0.00064  -0.00018   2.65743
    R2        2.58832   0.00156   0.00000   0.00838   0.00824   2.59656
    R3        2.78990  -0.01203   0.00000  -0.04670  -0.04804   2.74186
    R4        2.63582  -0.01088   0.00000  -0.00893  -0.00895   2.62687
    R5        2.62204  -0.04206   0.00000  -0.18033  -0.17914   2.44290
    R6        2.60431   0.00571   0.00000   0.00249   0.00272   2.60703
    R7        2.03801  -0.00002   0.00000   0.00059   0.00059   2.03860
    R8        2.54695  -0.00538   0.00000   0.00541   0.00557   2.55252
    R9        2.04577   0.00037   0.00000   0.00024   0.00024   2.04601
   R10        2.70107  -0.02159   0.00000  -0.18760  -0.18634   2.51473
   R11        2.39288   0.01719   0.00000   0.02899   0.02865   2.42154
   R12        2.31471  -0.00545   0.00000  -0.00402  -0.00402   2.31069
    A1        1.94770   0.00992   0.00000   0.01176   0.01236   1.96006
    A2        1.97893  -0.00748   0.00000  -0.04187  -0.04342   1.93551
    A3        2.16995  -0.00376   0.00000   0.02020   0.02118   2.19113
    A4        1.83008  -0.00718   0.00000  -0.00858  -0.00870   1.82138
    A5        1.60520   0.00719   0.00000  -0.01093  -0.01043   1.59476
    A6        2.38284  -0.00128   0.00000   0.03438   0.03429   2.41713
    A7        1.85571   0.00611   0.00000   0.00858   0.00847   1.86418
    A8        2.12595  -0.00346   0.00000  -0.00067  -0.00061   2.12534
    A9        2.29543  -0.00258   0.00000  -0.00746  -0.00742   2.28801
   A10        1.96842  -0.00175   0.00000   0.00082   0.00085   1.96928
   A11        2.22591   0.00170   0.00000   0.00007   0.00006   2.22597
   A12        2.08882   0.00006   0.00000  -0.00091  -0.00092   2.08790
   A13        1.81970  -0.00700   0.00000  -0.01243  -0.01284   1.80685
   A14        2.14967   0.01184   0.00000   0.10899   0.11098   2.26065
   A15        1.92216  -0.00607   0.00000  -0.02170  -0.02367   1.89849
   A16        2.05018   0.01226   0.00000   0.04159   0.04255   2.09273
   A17        2.31049  -0.00616   0.00000  -0.01991  -0.01892   2.29158
   A18        1.71623  -0.00494   0.00000  -0.02384  -0.02371   1.69253
    D1       -0.05216   0.00137   0.00000   0.00189   0.00196  -0.05020
    D2       -2.48683   0.00216   0.00000  -0.02779  -0.02780  -2.51463
    D3        2.50125  -0.00175   0.00000  -0.00376  -0.00305   2.49821
    D4        0.06658  -0.00096   0.00000  -0.03343  -0.03281   0.03377
    D5        0.00935  -0.00089   0.00000  -0.00102  -0.00113   0.00822
    D6       -2.46770   0.00330   0.00000   0.03060   0.03120  -2.43650
    D7        0.12837  -0.00140   0.00000   0.00576   0.00554   0.13391
    D8       -3.03826  -0.00050   0.00000   0.00423   0.00372  -3.03454
    D9        2.59518   0.00005   0.00000  -0.00832  -0.00849   2.58670
   D10       -0.57145   0.00095   0.00000  -0.00985  -0.01030  -0.58175
   D11        0.07215  -0.00139   0.00000  -0.00191  -0.00192   0.07023
   D12        3.10804  -0.00085   0.00000   0.00156   0.00151   3.10956
   D13        1.98084   0.00053   0.00000  -0.00731  -0.00716   1.97368
   D14       -1.26645   0.00107   0.00000  -0.00385  -0.00372  -1.27018
   D15       -0.25324  -0.00161   0.00000   0.02148   0.02210  -0.23113
   D16       -2.24557   0.00168   0.00000   0.02995   0.03065  -2.21493
   D17       -0.07282   0.00056   0.00000   0.00091   0.00086  -0.07196
   D18        3.07779   0.00045   0.00000   0.00227   0.00226   3.08005
   D19       -3.09437  -0.00007   0.00000  -0.00378  -0.00376  -3.09814
   D20        0.05623  -0.00018   0.00000  -0.00242  -0.00236   0.05388
   D21        0.03960  -0.00013   0.00000  -0.00033  -0.00023   0.03937
   D22       -3.11022  -0.00002   0.00000  -0.00157  -0.00151  -3.11173
   D23        0.34458  -0.00032   0.00000  -0.02193  -0.02180   0.32278
   D24       -0.23744   0.00295   0.00000   0.02181   0.02073  -0.21671
   D25        2.93423   0.00151   0.00000   0.02246   0.02165   2.95587
         Item               Value     Threshold  Converged?
 Maximum Force            0.042063     0.000450     NO 
 RMS     Force            0.008245     0.000300     NO 
 Maximum Displacement     0.156465     0.001800     NO 
 RMS     Displacement     0.042059     0.001200     NO 
 Predicted change in Energy=-1.438918D-02
 GradGradGradGradGradGradGradGradGradGradGradGradGradGradGradGradGradGrad

                          Input orientation:                          
 ---------------------------------------------------------------------
 Center     Atomic      Atomic             Coordinates (Angstroms)
 Number     Number       Type             X           Y           Z
 ---------------------------------------------------------------------
      1          7           0        0.025589   -0.170065    0.381497
      2          7           0       -0.673778    1.044532    0.266709
      3          6           0       -1.942389    0.672549   -0.162923
      4          6           0       -1.965556   -0.706546   -0.191313
      5          7           0       -0.768521   -1.257073    0.106194
      6          1           0       -2.725991    1.398170   -0.315268
      7          1           0       -2.805948   -1.347514   -0.426151
      8          1           0        0.372816    1.638390   -0.205638
      9          6           0        1.408951   -0.011245   -0.026278
     10          8           0        1.640328    1.233502   -0.224048
     11          8           0        2.139232   -0.989289   -0.098867
 ---------------------------------------------------------------------
                    Distance matrix (angstroms):
                    1          2          3          4          5
     1  N    0.000000
     2  N    1.406249   0.000000
     3  C    2.208920   1.390082   0.000000
     4  C    2.140230   2.223680   1.379582   0.000000
     5  N    1.374041   2.309140   2.274605   1.350734   0.000000
     6  H    3.242844   2.162253   1.078781   2.241307   3.325603
     7  H    3.171165   3.278428   2.212618   1.082704   2.107766
     8  H    1.932823   1.292724   2.508953   3.311634   3.127874
     9  C    1.450929   2.353352   3.423116   3.449345   2.512175
    10  O    2.223525   2.373106   3.626880   4.094784   3.480599
    11  O    2.317188   3.490429   4.407429   4.115552   2.927249
                    6          7          8          9         10
     6  H    0.000000
     7  H    2.749085   0.000000
     8  H    3.110037   4.366783   0.000000
     9  C    4.378095   4.439695   1.956283   0.000000
    10  O    4.370375   5.145081   1.330737   1.281422   0.000000
    11  O    5.423761   4.968928   3.168016   1.222763   2.281529
                   11
    11  O    0.000000
 Stoichiometry    C3H3N3O2(1-,2)
 Framework group  C1[X(C3H3N3O2)]
 Deg. of freedom    27
 Full point group                 C1      NOp   1
 Largest Abelian subgroup         C1      NOp   1
 Largest concise Abelian subgroup C1      NOp   1
                         Standard orientation:                         
 ---------------------------------------------------------------------
 Center     Atomic      Atomic             Coordinates (Angstroms)
 Number     Number       Type             X           Y           Z
 ---------------------------------------------------------------------
      1          7           0        0.017030   -0.189727    0.387286
      2          7           0       -0.653403    1.042812    0.292923
      3          6           0       -1.928748    0.708639   -0.147704
      4          6           0       -1.983956   -0.668772   -0.201915
      5          7           0       -0.801186   -1.252567    0.089152
      6          1           0       -2.694654    1.455087   -0.289022
      7          1           0       -2.838191   -1.285441   -0.451412
      8          1           0        0.408485    1.620719   -0.164846
      9          6           0        1.405212   -0.055737   -0.012951
     10          8           0        1.666272    1.186722   -0.186690
     11          8           0        2.112756   -1.049067   -0.101414
 ---------------------------------------------------------------------
 Rotational constants (GHZ):           5.0106606           1.8933517           1.4139645
 Standard basis: 6-31+G(d,p) (6D, 7F)
 There are   167 symmetry adapted cartesian basis functions of A   symmetry.
 There are   167 symmetry adapted basis functions of A   symmetry.
   167 basis functions,   277 primitive gaussians,   167 cartesian basis functions
    30 alpha electrons       29 beta electrons
       nuclear repulsion energy       362.4438015165 Hartrees.
 NAtoms=   11 NActive=   11 NUniq=   11 SFac= 1.00D+00 NAtFMM=   60 NAOKFM=F Big=F
 Integral buffers will be    131072 words long.
 Raffenetti 2 integral format.
 Two-electron integral symmetry is turned on.
 One-electron integrals computed using PRISM.
 NBasis=   167 RedAO= T EigKep=  5.29D-05  NBF=   167
 NBsUse=   167 1.00D-06 EigRej= -1.00D+00 NBFU=   167
 Initial guess from the checkpoint file:  "/scratch/gongke2021/TS/Gau-9840.chk"
 B after Tr=    -0.000000   -0.000000   -0.000000
         Rot=    0.999994   -0.003272   -0.000880   -0.000761 Ang=  -0.40 deg.
 Initial guess <Sx>= 0.0000 <Sy>= 0.0000 <Sz>= 0.5000 <S**2>= 0.7649 S= 0.5074
 ExpMin= 4.38D-02 ExpMax= 5.48D+03 ExpMxC= 8.25D+02 IAcc=2 IRadAn=         4 AccDes= 0.00D+00
 Harris functional with IExCor= 1009 and IRadAn=       4 diagonalized for initial guess.
 HarFok:  IExCor= 1009 AccDes= 0.00D+00 IRadAn=         4 IDoV= 1 UseB2=F ITyADJ=14
 ICtDFT=  3500011 ScaDFX=  1.000000  1.000000  1.000000  1.000000
 FoFCou: FMM=F IPFlag=           0 FMFlag=      100000 FMFlg1=           0
         NFxFlg=           0 DoJE=T BraDBF=F KetDBF=T FulRan=T
         wScrn=  0.000000 ICntrl=       500 IOpCl=  0 I1Cent=   200000004 NGrid=           0
         NMat0=    1 NMatS0=      1 NMatT0=    0 NMatD0=    1 NMtDS0=    0 NMtDT0=    0
 Petite list used in FoFCou.
 Keep R1 and R2 ints in memory in canonical form, NReq=220618657.
 Requested convergence on RMS density matrix=1.00D-08 within 128 cycles.
 Requested convergence on MAX density matrix=1.00D-06.
 Requested convergence on             energy=1.00D-06.
 No special actions if energy rises.
 SCF Done:  E(UM062X) =  -430.644910568     A.U. after   18 cycles
            NFock= 18  Conv=0.80D-08     -V/T= 2.0084
 <Sx>= 0.0000 <Sy>= 0.0000 <Sz>= 0.5000 <S**2>= 0.7654 S= 0.5077
 <L.S>=  0.00000000000    
 Annihilation of the first spin contaminant:
 S**2 before annihilation     0.7654,   after     0.7501
 Calling FoFJK, ICntrl=      2127 FMM=F ISym2X=0 I1Cent= 0 IOpClX= 1 NMat=1 NMatS=1 NMatT=0.
 ***** Axes restored to original set *****
 -------------------------------------------------------------------
 Center     Atomic                   Forces (Hartrees/Bohr)
 Number     Number              X              Y              Z
 -------------------------------------------------------------------
      1        7          -0.008652659    0.006003554    0.001372640
      2        7           0.012315181    0.013014263   -0.012799375
      3        6           0.012472577    0.001157086    0.005582583
      4        6           0.001179051   -0.004356044   -0.001648598
      5        7          -0.000942423   -0.001675644   -0.001215199
      6        1           0.000170014    0.000163518   -0.000097810
      7        1           0.000207969   -0.000620375   -0.000157906
      8        1          -0.006601647   -0.016585079    0.013158348
      9        6          -0.008581624   -0.018359778    0.003430225
     10        8          -0.003688880    0.016236186   -0.007103423
     11        8           0.002122440    0.005022312   -0.000521486
 -------------------------------------------------------------------
 Cartesian Forces:  Max     0.018359778 RMS     0.007951479

 GradGradGradGradGradGradGradGradGradGradGradGradGradGradGradGradGradGrad
 Berny optimization.
 FormGI is forming the generalized inverse of G from B-inverse, IUseBI=4.
 Internal  Forces:  Max     0.019570330 RMS     0.004350318
 Search for a saddle point.
 Step number   3 out of a maximum of   65
 All quantities printed in internal units (Hartrees-Bohrs-Radians)
 Swapping is turned off.
 Update second derivatives using D2CorX and points    2    3
 ITU=  0  0  0
     Eigenvalues ---   -0.06032   0.00647   0.00849   0.00923   0.01440
     Eigenvalues ---    0.02335   0.02801   0.04708   0.05664   0.06567
     Eigenvalues ---    0.08649   0.09500   0.10792   0.13333   0.18301
     Eigenvalues ---    0.20453   0.25146   0.27143   0.29368   0.30061
     Eigenvalues ---    0.37470   0.38517   0.40655   0.44056   0.51186
     Eigenvalues ---    0.59424   0.82790
 Eigenvectors required to have negative eigenvalues:
                          R10       R5        R3        A6        D13
   1                   -0.72065   0.60355  -0.12396   0.12338  -0.11874
                          A5        D16       D14       A17       A18
   1                   -0.11453   0.09085  -0.08623  -0.08550   0.07582
 RFO step:  Lambda0=1.735642296D-04 Lambda=-8.53290368D-03.
 Linear search not attempted -- option 19 set.
 Iteration  1 RMS(Cart)=  0.04360686 RMS(Int)=  0.00577798
 Iteration  2 RMS(Cart)=  0.00532924 RMS(Int)=  0.00225361
 Iteration  3 RMS(Cart)=  0.00003461 RMS(Int)=  0.00225326
 Iteration  4 RMS(Cart)=  0.00000013 RMS(Int)=  0.00225326
 Variable       Old X    -DE/DX   Delta X   Delta X   Delta X     New X
                                 (Linear)    (Quad)   (Total)
    R1        2.65743  -0.00379   0.00000  -0.00190  -0.00341   2.65402
    R2        2.59656   0.00036   0.00000   0.01073   0.01099   2.60756
    R3        2.74186  -0.00279   0.00000  -0.00320  -0.00404   2.73782
    R4        2.62687  -0.00908   0.00000  -0.03064  -0.03132   2.59555
    R5        2.44290  -0.01957   0.00000  -0.15695  -0.15640   2.28650
    R6        2.60703   0.00395   0.00000   0.00975   0.00999   2.61702
    R7        2.03860  -0.00000   0.00000   0.00129   0.00129   2.03989
    R8        2.55252  -0.00449   0.00000  -0.00183  -0.00100   2.55151
    R9        2.04601   0.00024   0.00000   0.00022   0.00022   2.04623
   R10        2.51473  -0.00906   0.00000  -0.16215  -0.16124   2.35349
   R11        2.42154   0.01103   0.00000   0.03280   0.03331   2.45484
   R12        2.31069  -0.00272   0.00000  -0.00934  -0.00934   2.30134
    A1        1.96006   0.00566   0.00000   0.00945   0.00806   1.96812
    A2        1.93551  -0.00387   0.00000  -0.04124  -0.04511   1.89040
    A3        2.19113  -0.00263   0.00000  -0.01733  -0.01397   2.17716
    A4        1.82138  -0.00411   0.00000  -0.00721  -0.00509   1.81629
    A5        1.59476   0.00371   0.00000  -0.01775  -0.01786   1.57690
    A6        2.41713  -0.00016   0.00000   0.03601   0.03284   2.44998
    A7        1.86418   0.00411   0.00000   0.01640   0.01497   1.87914
    A8        2.12534  -0.00224   0.00000   0.00029   0.00081   2.12615
    A9        2.28801  -0.00177   0.00000  -0.01353  -0.01305   2.27497
   A10        1.96928  -0.00172   0.00000  -0.00705  -0.00697   1.96230
   A11        2.22597   0.00148   0.00000   0.00482   0.00478   2.23074
   A12        2.08790   0.00025   0.00000   0.00228   0.00223   2.09013
   A13        1.80685  -0.00385   0.00000  -0.00969  -0.00937   1.79748
   A14        2.26065   0.00783   0.00000   0.14532   0.14479   2.40544
   A15        1.89849  -0.00298   0.00000  -0.01780  -0.02121   1.87727
   A16        2.09273   0.00696   0.00000   0.03963   0.04113   2.13386
   A17        2.29158  -0.00397   0.00000  -0.02204  -0.02030   2.27128
   A18        1.69253  -0.00413   0.00000  -0.03362  -0.03599   1.65654
    D1       -0.05020   0.00111   0.00000   0.02058   0.02085  -0.02935
    D2       -2.51463   0.00113   0.00000  -0.00840  -0.00546  -2.52009
    D3        2.49821  -0.00104   0.00000  -0.05002  -0.04615   2.45206
    D4        0.03377  -0.00103   0.00000  -0.07900  -0.07245  -0.03868
    D5        0.00822  -0.00060   0.00000  -0.00900  -0.00924  -0.00102
    D6       -2.43650   0.00173   0.00000   0.08145   0.08128  -2.35521
    D7        0.13391  -0.00086   0.00000   0.00507   0.00547   0.13938
    D8       -3.03454  -0.00030   0.00000  -0.00244  -0.00593  -3.04047
    D9        2.58670  -0.00003   0.00000  -0.06776  -0.06470   2.52200
   D10       -0.58175   0.00053   0.00000  -0.07527  -0.07610  -0.65785
   D11        0.07023  -0.00123   0.00000  -0.02316  -0.02335   0.04688
   D12        3.10956  -0.00042   0.00000   0.00444   0.00466   3.11422
   D13        1.97368  -0.00050   0.00000  -0.03784  -0.03825   1.93543
   D14       -1.27018   0.00030   0.00000  -0.01024  -0.01024  -1.28041
   D15       -0.23113   0.00007   0.00000   0.11927   0.12395  -0.10718
   D16       -2.21493   0.00210   0.00000   0.13409   0.13801  -2.07691
   D17       -0.07196   0.00077   0.00000   0.01943   0.01962  -0.05234
   D18        3.08005   0.00056   0.00000   0.01362   0.01377   3.09383
   D19       -3.09814  -0.00016   0.00000  -0.01313  -0.01299  -3.11113
   D20        0.05388  -0.00037   0.00000  -0.01894  -0.01884   0.03503
   D21        0.03937  -0.00034   0.00000  -0.00739  -0.00713   0.03224
   D22       -3.11173  -0.00014   0.00000  -0.00207  -0.00179  -3.11352
   D23        0.32278  -0.00125   0.00000  -0.12458  -0.12626   0.19652
   D24       -0.21671   0.00222   0.00000   0.06862   0.06082  -0.15589
   D25        2.95587   0.00134   0.00000   0.07598   0.07215   3.02802
         Item               Value     Threshold  Converged?
 Maximum Force            0.019570     0.000450     NO 
 RMS     Force            0.004350     0.000300     NO 
 Maximum Displacement     0.153310     0.001800     NO 
 RMS     Displacement     0.047206     0.001200     NO 
 Predicted change in Energy=-4.896891D-03
 GradGradGradGradGradGradGradGradGradGradGradGradGradGradGradGradGradGrad

                          Input orientation:                          
 ---------------------------------------------------------------------
 Center     Atomic      Atomic             Coordinates (Angstroms)
 Number     Number       Type             X           Y           Z
 ---------------------------------------------------------------------
      1          7           0        0.019344   -0.181140    0.423693
      2          7           0       -0.653668    1.041855    0.269381
      3          6           0       -1.906274    0.681253   -0.163590
      4          6           0       -1.958917   -0.702318   -0.192235
      5          7           0       -0.779497   -1.269755    0.139473
      6          1           0       -2.676617    1.413936   -0.350629
      7          1           0       -2.804911   -1.329381   -0.444396
      8          1           0        0.361461    1.557262   -0.140346
      9          6           0        1.381404   -0.012907   -0.040506
     10          8           0        1.560647    1.251300   -0.279620
     11          8           0        2.161760   -0.944695   -0.117309
 ---------------------------------------------------------------------
                    Distance matrix (angstroms):
                    1          2          3          4          5
     1  N    0.000000
     2  N    1.404447   0.000000
     3  C    2.190120   1.373507   0.000000
     4  C    2.136472   2.226860   1.384868   0.000000
     5  N    1.379859   2.318674   2.273303   1.350203   0.000000
     6  H    3.226770   2.148297   1.079461   2.240248   3.322869
     7  H    3.169929   3.280256   2.220145   1.082819   2.108734
     8  H    1.859361   1.209962   2.431164   3.239221   3.061390
     9  C    1.448790   2.313022   3.362415   3.414097   2.506303
    10  O    2.218592   2.290952   3.515389   4.026363   3.465204
    11  O    2.337872   3.467354   4.381181   4.128479   2.970286
                    6          7          8          9         10
     6  H    0.000000
     7  H    2.747915   0.000000
     8  H    3.048717   4.295470   0.000000
     9  C    4.312724   4.406979   1.875015   0.000000
    10  O    4.240978   5.073969   1.245415   1.299047   0.000000
    11  O    5.387714   4.992273   3.082433   1.217819   2.282559
                   11
    11  O    0.000000
 Stoichiometry    C3H3N3O2(1-,2)
 Framework group  C1[X(C3H3N3O2)]
 Deg. of freedom    27
 Full point group                 C1      NOp   1
 Largest Abelian subgroup         C1      NOp   1
 Largest concise Abelian subgroup C1      NOp   1
                         Standard orientation:                         
 ---------------------------------------------------------------------
 Center     Atomic      Atomic             Coordinates (Angstroms)
 Number     Number       Type             X           Y           Z
 ---------------------------------------------------------------------
      1          7           0        0.011176   -0.214412    0.428045
      2          7           0       -0.626497    1.031293    0.309447
      3          6           0       -1.883191    0.720637   -0.149607
      4          6           0       -1.973038   -0.659121   -0.227424
      5          7           0       -0.813490   -1.270046    0.097025
      6          1           0       -2.631076    1.480336   -0.319203
      7          1           0       -2.832685   -1.253475   -0.510705
      8          1           0        0.407056    1.532492   -0.070784
      9          6           0        1.382730   -0.067706   -0.015025
     10          8           0        1.599065    1.198643   -0.207594
     11          8           0        2.138356   -1.017401   -0.115979
 ---------------------------------------------------------------------
 Rotational constants (GHZ):           4.9805554           1.9272735           1.4384317
 Standard basis: 6-31+G(d,p) (6D, 7F)
 There are   167 symmetry adapted cartesian basis functions of A   symmetry.
 There are   167 symmetry adapted basis functions of A   symmetry.
   167 basis functions,   277 primitive gaussians,   167 cartesian basis functions
    30 alpha electrons       29 beta electrons
       nuclear repulsion energy       364.1725391398 Hartrees.
 NAtoms=   11 NActive=   11 NUniq=   11 SFac= 1.00D+00 NAtFMM=   60 NAOKFM=F Big=F
 Integral buffers will be    131072 words long.
 Raffenetti 2 integral format.
 Two-electron integral symmetry is turned on.
 One-electron integrals computed using PRISM.
 NBasis=   167 RedAO= T EigKep=  5.50D-05  NBF=   167
 NBsUse=   167 1.00D-06 EigRej= -1.00D+00 NBFU=   167
 Initial guess from the checkpoint file:  "/scratch/gongke2021/TS/Gau-9840.chk"
 B after Tr=     0.000000    0.000000   -0.000000
         Rot=    0.999993   -0.003477   -0.000293   -0.001577 Ang=  -0.44 deg.
 Initial guess <Sx>= 0.0000 <Sy>= 0.0000 <Sz>= 0.5000 <S**2>= 0.7654 S= 0.5077
 ExpMin= 4.38D-02 ExpMax= 5.48D+03 ExpMxC= 8.25D+02 IAcc=2 IRadAn=         4 AccDes= 0.00D+00
 Harris functional with IExCor= 1009 and IRadAn=       4 diagonalized for initial guess.
 HarFok:  IExCor= 1009 AccDes= 0.00D+00 IRadAn=         4 IDoV= 1 UseB2=F ITyADJ=14
 ICtDFT=  3500011 ScaDFX=  1.000000  1.000000  1.000000  1.000000
 FoFCou: FMM=F IPFlag=           0 FMFlag=      100000 FMFlg1=           0
         NFxFlg=           0 DoJE=T BraDBF=F KetDBF=T FulRan=T
         wScrn=  0.000000 ICntrl=       500 IOpCl=  0 I1Cent=   200000004 NGrid=           0
         NMat0=    1 NMatS0=      1 NMatT0=    0 NMatD0=    1 NMtDS0=    0 NMtDT0=    0
 Petite list used in FoFCou.
 Keep R1 and R2 ints in memory in canonical form, NReq=220618657.
 Requested convergence on RMS density matrix=1.00D-08 within 128 cycles.
 Requested convergence on MAX density matrix=1.00D-06.
 Requested convergence on             energy=1.00D-06.
 No special actions if energy rises.
 SCF Done:  E(UM062X) =  -430.647683573     A.U. after   18 cycles
            NFock= 18  Conv=0.49D-08     -V/T= 2.0080
 <Sx>= 0.0000 <Sy>= 0.0000 <Sz>= 0.5000 <S**2>= 0.7658 S= 0.5079
 <L.S>=  0.00000000000    
 Annihilation of the first spin contaminant:
 S**2 before annihilation     0.7658,   after     0.7501
 Calling FoFJK, ICntrl=      2127 FMM=F ISym2X=0 I1Cent= 0 IOpClX= 1 NMat=1 NMatS=1 NMatT=0.
 ***** Axes restored to original set *****
 -------------------------------------------------------------------
 Center     Atomic                   Forces (Hartrees/Bohr)
 Number     Number              X              Y              Z
 -------------------------------------------------------------------
      1        7          -0.000772623   -0.000599417    0.001231093
      2        7          -0.011505994   -0.001822342    0.004389256
[...]
    D2       -2.45346   0.00002   0.00000   0.00067   0.00067  -2.45280
    D3        2.39706  -0.00001   0.00000  -0.00013  -0.00013   2.39693
    D4       -0.03628   0.00001   0.00000   0.00025   0.00025  -0.03603
    D5       -0.00589  -0.00000   0.00000  -0.00019  -0.00019  -0.00608
    D6       -2.31557   0.00001   0.00000   0.00017   0.00017  -2.31541
    D7        0.12491  -0.00000   0.00000   0.00008   0.00008   0.12499
    D8       -3.04742   0.00000   0.00000   0.00019   0.00019  -3.04723
    D9        2.46094  -0.00000   0.00000  -0.00020  -0.00020   2.46074
   D10       -0.71139   0.00001   0.00000  -0.00009  -0.00009  -0.71148
   D11        0.03745  -0.00001   0.00000  -0.00026  -0.00026   0.03719
   D12        3.12009  -0.00000   0.00000   0.00008   0.00008   3.12017
   D13        1.88616   0.00000   0.00000  -0.00071  -0.00071   1.88544
   D14       -1.31439   0.00001   0.00000  -0.00037  -0.00037  -1.31476
   D15       -0.08597  -0.00001   0.00000  -0.00081  -0.00081  -0.08678
   D16       -2.02108   0.00000   0.00000  -0.00038  -0.00038  -2.02146
   D17       -0.04522   0.00000   0.00000   0.00016   0.00016  -0.04506
   D18        3.09933   0.00000   0.00000   0.00010   0.00010   3.09944
   D19       -3.12108   0.00000   0.00000  -0.00022  -0.00022  -3.12130
   D20        0.02347  -0.00000   0.00000  -0.00028  -0.00028   0.02320
   D21        0.03072  -0.00000   0.00000   0.00002   0.00002   0.03073
   D22       -3.11357   0.00000   0.00000   0.00007   0.00007  -3.11350
   D23        0.16465   0.00002   0.00000   0.00091   0.00091   0.16555
   D24       -0.13753  -0.00000   0.00000  -0.00041  -0.00041  -0.13794
   D25        3.03802  -0.00001   0.00000  -0.00054  -0.00054   3.03748
         Item               Value     Threshold  Converged?
 Maximum Force            0.000081     0.000450     YES
 RMS     Force            0.000020     0.000300     YES
 Maximum Displacement     0.000725     0.001800     YES
 RMS     Displacement     0.000180     0.001200     YES
 Predicted change in Energy=-4.043292D-08
 Optimization completed.
    -- Stationary point found.
                           ----------------------------
                           !   Optimized Parameters   !
                           ! (Angstroms and Degrees)  !
 --------------------------                            --------------------------
 ! Name  Definition              Value          Derivative Info.                !
 --------------------------------------------------------------------------------
 ! R1    R(1,2)                  1.4111         -DE/DX =    0.0                 !
 ! R2    R(1,5)                  1.3835         -DE/DX =    0.0                 !
 ! R3    R(1,9)                  1.453          -DE/DX =    0.0                 !
 ! R4    R(2,3)                  1.3746         -DE/DX =    0.0                 !
 ! R5    R(2,8)                  1.2446         -DE/DX =   -0.0001              !
 ! R6    R(3,4)                  1.3846         -DE/DX =    0.0                 !
 ! R7    R(3,6)                  1.0797         -DE/DX =    0.0                 !
 ! R8    R(4,5)                  1.3468         -DE/DX =    0.0                 !
 ! R9    R(4,7)                  1.0829         -DE/DX =    0.0                 !
 ! R10   R(8,10)                 1.2644         -DE/DX =    0.0                 !
 ! R11   R(9,10)                 1.2986         -DE/DX =    0.0001              !
 ! R12   R(9,11)                 1.2174         -DE/DX =    0.0                 !
 ! A1    A(2,1,5)              112.6123         -DE/DX =    0.0                 !
 ! A2    A(2,1,9)              108.8862         -DE/DX =    0.0                 !
 ! A3    A(5,1,9)              121.9816         -DE/DX =    0.0                 !
 ! A4    A(1,2,3)              103.6801         -DE/DX =    0.0                 !
 ! A5    A(1,2,8)               90.3516         -DE/DX =    0.0                 !
 ! A6    A(3,2,8)              137.4331         -DE/DX =    0.0                 !
 ! A7    A(2,3,4)              108.1061         -DE/DX =    0.0                 !
 ! A8    A(2,3,6)              121.6            -DE/DX =    0.0                 !
 ! A9    A(4,3,6)              130.1884         -DE/DX =    0.0                 !
 ! A10   A(3,4,5)              112.3356         -DE/DX =    0.0                 !
 ! A11   A(3,4,7)              127.8483         -DE/DX =    0.0                 !
 ! A12   A(5,4,7)              119.8159         -DE/DX =    0.0                 !
 ! A13   A(1,5,4)              103.2076         -DE/DX =    0.0                 !
 ! A14   A(2,8,10)             136.2533         -DE/DX =    0.0                 !
 ! A15   A(1,9,10)             108.4389         -DE/DX =    0.0                 !
 ! A16   A(1,9,11)             121.8292         -DE/DX =    0.0                 !
 ! A17   A(10,9,11)            129.7035         -DE/DX =    0.0                 !
 ! A18   A(8,10,9)              95.2865         -DE/DX =    0.0                 !
 ! D1    D(5,1,2,3)             -1.153          -DE/DX =    0.0                 !
 ! D2    D(5,1,2,8)           -140.573          -DE/DX =    0.0                 !
 ! D3    D(9,1,2,3)            137.3413         -DE/DX =    0.0                 !
 ! D4    D(9,1,2,8)             -2.0787         -DE/DX =    0.0                 !
 ! D5    D(2,1,5,4)             -0.3374         -DE/DX =    0.0                 !
 ! D6    D(9,1,5,4)           -132.6726         -DE/DX =    0.0                 !
 ! D7    D(2,1,9,10)             7.1568         -DE/DX =    0.0                 !
 ! D8    D(2,1,9,11)          -174.6045         -DE/DX =    0.0                 !
 ! D9    D(5,1,9,10)           141.0016         -DE/DX =    0.0                 !
 ! D10   D(5,1,9,11)           -40.7598         -DE/DX =    0.0                 !
 ! D11   D(1,2,3,4)              2.1458         -DE/DX =    0.0                 !
 ! D12   D(1,2,3,6)            178.7681         -DE/DX =    0.0                 !
 ! D13   D(8,2,3,4)            108.0688         -DE/DX =    0.0                 !
 ! D14   D(8,2,3,6)            -75.3089         -DE/DX =    0.0                 !
 ! D15   D(1,2,8,10)            -4.9257         -DE/DX =    0.0                 !
 ! D16   D(3,2,8,10)          -115.7993         -DE/DX =    0.0                 !
 ! D17   D(2,3,4,5)             -2.5909         -DE/DX =    0.0                 !
 ! D18   D(2,3,4,7)            177.5786         -DE/DX =    0.0                 !
 ! D19   D(6,3,4,5)           -178.8245         -DE/DX =    0.0                 !
 ! D20   D(6,3,4,7)              1.345          -DE/DX =    0.0                 !
 ! D21   D(3,4,5,1)              1.7599         -DE/DX =    0.0                 !
 ! D22   D(7,4,5,1)           -178.3944         -DE/DX =    0.0                 !
 ! D23   D(2,8,10,9)             9.4336         -DE/DX =    0.0                 !
 ! D24   D(1,9,10,8)            -7.8797         -DE/DX =    0.0                 !
 ! D25   D(11,9,10,8)          174.0655         -DE/DX =    0.0                 !
 --------------------------------------------------------------------------------
 GradGradGradGradGradGradGradGradGradGradGradGradGradGradGradGradGradGrad


 ----------------------------------------------------------------------

 Electric dipole moment (input orientation):
 (Debye = 10**-18 statcoulomb cm , SI units = C m)
                  (au)            (Debye)         (10**-30 SI)
   Tot        0.193698D+01      0.492330D+01      0.164224D+02
   x         -0.177579D+01     -0.451360D+01     -0.150558D+02
   y          0.750502D+00      0.190759D+01      0.636302D+01
   z         -0.187620D+00     -0.476882D+00     -0.159071D+01

 Dipole polarizability, Alpha (input orientation).
 (esu units = cm**3 , SI units = C**2 m**2 J**-1)
 Alpha(0;0):
               (au)            (10**-24 esu)      (10**-40 SI)
   iso        0.744747D+02      0.110360D+02      0.122792D+02
   aniso      0.408040D+02      0.604653D+01      0.672767D+01
   xx         0.958396D+02      0.142020D+02      0.158018D+02
   yx        -0.315386D+01     -0.467354D+00     -0.520002D+00
   yy         0.777401D+02      0.115199D+02      0.128176D+02
   zx         0.274492D+01      0.406755D+00      0.452576D+00
   zy        -0.788991D+00     -0.116916D+00     -0.130087D+00
   zz         0.498445D+02      0.738619D+01      0.821824D+01

 ----------------------------------------------------------------------

 Dipole orientation:
     7          0.68262118         -0.59514476         -0.23841880
     7          1.23697915          0.93918825          1.87079990
     6          0.00116531         -0.23831265          3.82882515
     6         -1.12932051         -2.40400556          2.89171781
     7         -0.79033554         -2.66387086          0.38277294
     1          0.09594477          0.47719357          5.73730819
     1         -2.19533794         -3.81190567          3.92562524
     1          0.95745420          2.87033708          0.55771400
     6          0.09447370          1.01818528         -2.38108779
     8          0.54661745          3.34556763         -1.74751740
     8         -0.62789658          0.15506328         -4.38757190

 Electric dipole moment (dipole orientation):
 (Debye = 10**-18 statcoulomb cm , SI units = C m)
                  (au)            (Debye)         (10**-30 SI)
   Tot        0.193698D+01      0.492330D+01      0.164224D+02
   x          0.000000D+00      0.000000D+00      0.000000D+00
   y          0.000000D+00      0.000000D+00      0.000000D+00
   z          0.193698D+01      0.492330D+01      0.164224D+02

 Dipole polarizability, Alpha (dipole orientation).
 (esu units = cm**3 , SI units = C**2 m**2 J**-1)
 Alpha(0;0):
               (au)            (10**-24 esu)      (10**-40 SI)
   iso        0.744747D+02      0.110360D+02      0.122792D+02
   aniso      0.408040D+02      0.604653D+01      0.672767D+01
   xx         0.539891D+02      0.800037D+01      0.890161D+01
   yx         0.101657D+02      0.150639D+01      0.167609D+01
   yy         0.739568D+02      0.109593D+02      0.121938D+02
   zx        -0.197073D+00     -0.292032D-01     -0.324930D-01
   zy        -0.459055D+01     -0.680249D+00     -0.756879D+00
   zz         0.954782D+02      0.141484D+02      0.157422D+02

 ----------------------------------------------------------------------
 1\1\GINC-NODE6\Freq\UM062X\6-31+G(d,p)\C3H3N3O2(1-,2)\GONGKE2021\09-Ma
 y-2023\0\\#N Geom=AllCheck Guess=TCheck SCRF=Check GenChk UM062X/6-31+
 G(d,p) Freq\\RC\\-1,2\N,0.0168537592,-0.169394247,0.4654138453\N,-0.66
 67207026,1.0554191837,0.3116505478\C,-1.9070779422,0.6801398509,-0.146
 8271204\C,-1.9446971042,-0.7028254634,-0.2031951821\N,-0.7691489102,-1
 .2613497705,0.1431434153\H,-2.6805616865,1.4068641524,-0.3453732726\H,
 -2.7784480714,-1.333896585,-0.4846899811\H,0.3619869151,1.5800614395,-
 0.1526069141\C,1.370549138,-0.019306405,-0.0408828629\O,1.5641801198,1
 .2315772612,-0.3311999023\O,2.1378170349,-0.9618769767,-0.111517033\\V
 ersion=ES64L-G16RevA.03\State=2-A\HF=-430.6485143\S2=0.766002\S2-1=0.\
 S2A=0.750083\RMSD=3.863e-09\RMSF=3.954e-05\ZeroPoint=0.0677289\Thermal
 =0.0735378\Dipole=-1.775788,0.7505018,-0.1876196\DipoleDeriv=-1.199002
 6,0.0402971,-0.0515599,-0.1691594,0.0001329,0.0817162,0.2880509,0.0712
 094,-0.3487058,-0.7221442,-0.422191,0.0675434,-0.3582589,-0.7222053,-0
 .1904836,0.107651,-0.3056445,-0.211335,-0.0131981,0.261355,0.157774,0.
 1014243,-0.0349736,0.1336395,0.1506128,0.21686,-0.2781434,0.1724365,-0
 .3223525,0.153916,-0.0998027,0.5457938,-0.0402588,0.101829,-0.0775018,
 -0.106131,-0.2126187,0.3722504,0.061675,0.2468357,-0.6933412,0.0921853
 ,-0.0268879,0.1217312,-0.1820609,-0.0372909,0.0951363,-0.0597226,0.098
 6067,0.0067252,0.0125577,-0.0590705,-0.0190763,0.198956,-0.0694617,-0.
 0977158,-0.060731,-0.109991,0.0218239,-0.0348626,-0.0848589,-0.0319387
 ,0.1412151,1.3605235,0.2574458,-0.1505977,0.0690202,0.3230184,0.017249
 7,-0.2540155,0.0410868,0.276761,2.4945221,-0.3903894,-0.2608688,-0.531
 1237,1.8078067,-0.2030064,-0.4874033,-0.1749198,0.4580369,-1.3639177,-
 0.2793779,0.1118603,-0.0388703,-1.2197358,0.1384965,0.1327093,0.181987
 8,-0.4780861,-1.4098482,0.4855419,0.0307114,0.7913191,-1.035045,-0.007
 2335,0.1313831,-0.0237941,-0.4705068\Polar=95.8395918,-3.1538623,77.74
 00785,2.7449179,-0.7889909,49.8444613\Quadrupole=-4.1872626,-0.5726368
 ,4.7598993,0.7201796,2.554547,0.2328816\PG=C01 [X(C3H3N3O2)]\NImag=1\\
 0.63866852,0.03789811,0.53495900,0.01512648,0.00043398,0.11619179,-0.1
 0796556,0.05416575,0.00597861,0.56459925,0.02990498,-0.16375686,-0.011
 07148,0.07393516,0.41399099,-0.01088341,0.03830187,-0.03627437,0.07128
 784,0.00246059,0.13324411,-0.07925889,0.03734543,-0.02439232,-0.256833
 68,-0.05496201,-0.07445232,0.63505716,0.01603098,-0.00763772,-0.001479
 39,-0.09116998,-0.12069188,-0.01721969,-0.12657974,0.74763813,-0.02861
 728,0.01107589,-0.00957343,-0.07953203,-0.01237516,-0.06763484,0.16836
 581,-0.01418983,0.13943776,-0.08587294,-0.03100271,-0.03087741,-0.0427
 2545,-0.02784839,-0.01484008,-0.06957473,-0.04530663,-0.00376288,0.667
 45489,-0.01781227,-0.01257128,0.00274665,-0.05500125,-0.02920209,-0.02
 135406,-0.02435548,-0.35271427,-0.01803103,0.14908990,0.70435792,-0.03
 190385,-0.01292905,-0.00340973,-0.02526589,-0.01278016,0.00812895,-0.0
 0123909,-0.02005823,-0.05650086,0.17737445,0.06682733,0.17335035,-0.13
 537167,-0.09267510,-0.00611591,0.00485456,-0.01785274,-0.00609603,-0.0
 2901259,0.09425480,-0.01408208,-0.25697528,0.08625938,-0.06081273,0.45
 526904,-0.01775820,-0.17550211,-0.01588766,-0.01431548,-0.07462173,-0.
 01010972,0.04562593,-0.05888867,0.01368030,0.06325870,-0.13020650,0.01
 594407,-0.04874403,0.42251835,-0.02674353,-0.05938899,-0.03827963,0.00
 203925,-0.00296196,-0.00368373,-0.01776536,0.02652186,0.02184551,-0.05
 924848,0.01947569,-0.06808862,0.10126839,-0.00033331,0.09460920,-0.005
 33135,-0.00203361,-0.00172082,-0.01406913,0.02111455,-0.00180109,-0.20
 398248,0.14619105,-0.05136074,0.00675659,-0.00396570,0.00269620,0.0006
 2251,-0.00306327,-0.00202470,0.21680577,-0.00446224,-0.00203260,-0.001
 57440,-0.00740174,0.01132653,-0.00209015,0.15078727,-0.19945553,0.0364
 8586,0.02287187,-0.00470065,0.00648333,-0.00000503,-0.00396147,-0.0001
 6543,-0.16065703,0.19874341,-0.00249657,-0.00080181,0.00423021,-0.0052
 5887,0.00692846,-0.00618363,-0.04782444,0.03352412,-0.03018288,0.00134
 928,0.00039332,-0.00118535,-0.00015278,-0.00198463,0.00584692,0.054439
 27,-0.03926938,0.02984441,-0.00642812,0.00039754,-0.00242780,0.0002694
 2,0.00310301,-0.00248783,0.00535532,0.00324776,0.00208324,-0.22231151,
 -0.13069492,-0.06483029,-0.01705887,-0.01821426,-0.00460874,-0.0005423
 2,-0.00075724,0.00048667,0.23991026,0.00553845,-0.00053207,0.00074563,
 -0.00077359,-0.00533210,0.00063786,-0.02352161,-0.00266522,-0.00781884
 ,-0.13446594,-0.16574887,-0.04667669,0.00876762,0.01267904,0.00376854,
 0.00068868,-0.00030536,0.00034547,0.14377289,0.16101904,-0.00400038,0.
 00161871,0.00682155,-0.00087299,-0.00097605,0.00662422,0.00065434,0.00
 040993,-0.00000787,-0.06443732,-0.04582815,-0.05154273,-0.00396303,-0.
 00398197,-0.00732866,0.00056193,-0.00007251,-0.00202726,0.07263382,0.0
 4948912,0.04746772,-0.01628518,-0.02820204,0.01520698,0.02257629,-0.01
 238519,0.00093960,-0.02313042,0.00194016,-0.01568015,0.00507789,0.0038
 4281,0.00357862,-0.00030523,0.01939707,0.00097913,0.00006284,-0.000908
 56,-0.00014375,-0.00070987,0.00139513,0.00074640,-0.04309661,-0.016036
 98,-0.03500111,0.01246844,-0.01327373,-0.04165208,0.01704907,-0.000778
 80,-0.00212231,-0.00540370,0.00177715,0.00020338,0.00118601,0.00105873
 ,-0.00221291,0.00146455,0.00038337,-0.00010191,0.00017180,-0.00009263,
 -0.00007787,0.00053088,0.00441032,0.14585851,0.00592290,0.01557817,-0.
 00464867,0.00380949,0.02904684,-0.04097899,-0.00055394,-0.01429307,0.0
 0729288,-0.00505625,-0.00101783,-0.00052119,0.00074508,-0.00252088,-0.
 00122717,-0.00008526,0.00050723,-0.00026988,0.00035908,-0.00134006,-0.
 00022241,0.01498761,-0.03013238,0.06047123,-0.12659024,0.01574088,-0.0
 0882184,-0.06033345,0.00893947,0.01199590,0.01529430,0.00483794,0.0087
 6226,0.00700312,-0.00511787,0.00469299,-0.02505405,-0.02481854,0.00420
 945,0.00139203,0.00008023,0.00025370,0.00226421,-0.00039095,0.00084223
 ,0.04360167,0.03109939,-0.01414122,0.62095766,-0.01173212,-0.10065035,
 -0.00194560,-0.01072876,-0.01005037,0.00332537,0.01021424,-0.00860298,
 0.00623646,-0.00546992,-0.00757689,-0.00210816,-0.02580780,-0.00690028
 ,0.00928665,0.00155027,0.00058956,0.00047170,-0.00046741,0.00016722,-0
 .00118349,0.09113944,-0.02223851,-0.01300797,-0.28040351,0.95007348,0.
 04080223,-0.00980772,-0.05810682,0.00818601,-0.00343821,-0.00392747,-0
 .00496940,0.00627171,-0.00452145,-0.00360203,-0.00660400,-0.00094930,-
 0.01522293,0.01399017,-0.00263793,-0.00162440,-0.00031512,-0.00006227,
 -0.00224768,0.00079967,-0.00019171,-0.02593976,-0.00232435,0.01095085,
 -0.05341770,-0.03821791,0.24294681,-0.02278408,-0.03013685,0.01350762,
 -0.10603878,-0.02381820,0.02550169,0.00964915,-0.00485550,0.01464946,-
 0.00660782,-0.00471695,-0.00345637,-0.00199424,-0.00335033,0.00452302,
 -0.00057190,0.00052678,-0.00015088,0.00004941,-0.00089794,-0.00187242,
 0.01761471,-0.00633277,-0.00864342,-0.14157333,-0.05966809,0.02832844,
 0.22656718,-0.04868983,-0.04069825,0.03453353,0.05175930,0.01719818,-0
 .00896659,-0.01347911,0.00265168,-0.00823761,0.00274602,-0.00098797,0.
 00129648,-0.00232835,0.01352847,-0.00075511,-0.00056059,-0.00022235,0.
 00009050,-0.00085289,0.00073224,-0.00043345,-0.05615091,-0.03984141,0.
 01208868,-0.04201247,-0.34526367,0.06163845,0.08455634,0.48422523,0.02
 225605,0.02832314,0.01295723,0.01889432,0.00193400,0.00804097,0.000735
 96,0.00241343,-0.00130936,0.00188530,0.00353491,0.00040762,0.00381792,
 -0.00715541,-0.00093319,0.00031719,-0.00016753,-0.00009207,0.00066917,
 0.00010668,0.00039005,-0.00026585,0.00282947,-0.03192637,0.02255674,0.
 06208351,-0.09813720,-0.06342656,-0.10376431,0.08718965,-0.05278049,0.
 03850261,0.02453642,-0.00433347,-0.00013063,0.00083572,-0.00356315,0.0
 0140917,-0.00082562,-0.00222475,0.00247235,-0.00083403,0.00502582,0.00
 198243,-0.00262843,-0.00114256,-0.00007432,-0.00050162,-0.00079792,-0.
 00011272,-0.00029258,-0.00540609,-0.00221405,0.00265593,-0.33696193,0.
 29137366,0.02970721,0.02568970,0.02501249,-0.00744025,0.37649485,0.027
 11914,0.00342335,-0.01896970,0.01280433,0.00279142,-0.00203454,-0.0002
 9611,0.00248878,-0.00142234,0.00434995,-0.00085278,0.00281505,-0.00292
 748,0.00356780,0.00308748,0.00035229,0.00012037,0.00013046,0.00055817,
 0.00006395,0.00042700,-0.02447823,-0.00281379,0.00509127,0.29204543,-0
 .44954720,-0.02199269,0.04869351,-0.09132214,0.00986212,-0.35822099,0.
 53208025,0.02053737,-0.01240419,0.01009187,0.00073425,0.00323311,0.002
 64479,0.00144075,-0.00190083,0.00115455,0.00121542,-0.00014284,0.00031
 087,0.00061408,-0.00164095,-0.00012271,0.00060243,0.00017810,0.0000817
 9,0.00037035,-0.00005738,0.00001710,0.00559117,0.00216023,0.00107972,0
 .02306749,-0.02494058,-0.08536350,-0.00896058,0.01250943,0.02341268,-0
 .04521274,0.02300589,0.04669283\\0.00008322,0.00001377,-0.00002611,-0.
 00010892,-0.00006291,-0.00000909,-0.00000483,0.00003133,-0.00000805,-0
 .00000495,0.00000094,0.00000956,0.00000497,-0.00001402,0.00001322,-0.0
 0000431,-0.00000323,-0.00000065,0.00000218,-0.00000281,0.00000024,0.00
 006289,0.00001142,0.00002882,-0.00006842,0.00009143,-0.00000046,0.0000
 2754,-0.00008219,-0.00001761,0.00001062,0.00001627,0.00001012\\\@


 THERE IS SOMETHING FASCINATING ABOUT SCIENCE.
 ONE GETS SUCH WHOLESALE CONJECTURE OUT OF SUCH TRIFLING INVESTMENTS.

                                                       -- MARK TWAIN
 Job cpu time:       0 days  0 hours 34 minutes 29.8 seconds.
 Elapsed time:       0 days  0 hours  1 minutes 27.1 seconds.
 File lengths (MBytes):  RWF=     73 Int=      0 D2E=      0 Chk=      4 Scr=      1
 Normal termination of Gaussian 16 at Tue May  9 15:33:59 2023.
