 Entering Gaussian System, Link 0=/home/gau/soft/g16/g16
 Initial command:
 /home/gau/soft/g16/l1.exe "/home/gau/soft/scratch/Gau-171112.inp" -scrdir="/home/gau/soft/scratch/"
 Entering Link 1 = /home/gau/soft/g16/l1.exe PID=    171113.
  
 Copyright (c) 1988-2019, Gaussian, Inc.  All Rights Reserved.
  
 This is part of the Gaussian(R) 16 program.  It is based on
 the Gaussian(R) 09 system (copyright 2009, Gaussian, Inc.),
 the Gaussian(R) 03 system (copyright 2003, Gaussian, Inc.),
 the Gaussian(R) 98 system (copyright 1998, Gaussian, Inc.),
 the Gaussian(R) 94 system (copyright 1995, Gaussian, Inc.),
 the Gaussian 92(TM) system (copyright 1992, Gaussian, Inc.),
 the Gaussian 90(TM) system (copyright 1990, Gaussian, Inc.),
 the Gaussian 88(TM) system (copyright 1988, Gaussian, Inc.),
 the Gaussian 86(TM) system (copyright 1986, Carnegie Mellon
 University), and the Gaussian 82(TM) system (copyright 1983,
 Carnegie Mellon University). Gaussian is a federally registered
 trademark of Gaussian, Inc.
  
 This software contains proprietary and confidential information,
 including trade secrets, belonging to Gaussian, Inc.
  
 This software is provided under written license and may be
 used, copied, transmitted, or stored only in accord with that
 written license.
  
 The following legend is applicable only to US Government
 contracts under FAR:
  
                    RESTRICTED RIGHTS LEGEND
  
 Use, reproduction and disclosure by the US Government is
 subject to restrictions as set forth in subparagraphs (a)
 and (c) of the Commercial Computer Software - Restricted
 Rights clause in FAR 52.227-19.
  
 Gaussian, Inc.
 340 Quinnipiac St., Bldg. 40, Wallingford CT 06492
  
  
 ---------------------------------------------------------------
 Warning -- This program may not be used in any manner that
 competes with the business of Gaussian, Inc. or will provide
 assistance to any competitor of Gaussian, Inc.  The licensee
 of this program is prohibited from giving any competitor of
 Gaussian, Inc. access to this program.  By using this program,
 the user acknowledges that Gaussian, Inc. is engaged in the
 business of creating and licensing software in the field of
 computational chemistry and represents and warrants to the
 licensee that it is not a competitor of Gaussian, Inc. and that
 it will not use this program in any manner prohibited above.
 ---------------------------------------------------------------
  

 Cite this work as:
 Gaussian 16, Revision C.01,
 M. J. Frisch, G. W. Trucks, H. B. Schlegel, G. E. Scuseria, 
 M. A. Robb, J. R. Cheeseman, G. Scalmani, V. Barone, 
 G. A. Petersson, H. Nakatsuji, X. Li, M. Caricato, A. V. Marenich, 
 J. Bloino, B. G. Janesko, R. Gomperts, B. Mennucci, H. P. Hratchian, 
 J. V. Ortiz, A. F. Izmaylov, J. L. Sonnenberg, D. Williams-Young, 
 F. Ding, F. Lipparini, F. Egidi, J. Goings, B. Peng, A. Petrone, 
 T. Henderson, D. Ranasinghe, V. G. Zakrzewski, J. Gao, N. Rega, 
 G. Zheng, W. Liang, M. Hada, M. Ehara, K. Toyota, R. Fukuda, 
 J. Hasegawa, M. Ishida, T. Nakajima, Y. Honda, O. Kitao, H. Nakai, 
 T. Vreven, K. Throssell, J. A. Montgomery, Jr., J. E. Peralta, 
 F. Ogliaro, M. J. Bearpark, J. J. Heyd, E. N. Brothers, K. N. Kudin, 
 V. N. Staroverov, T. A. Keith, R. Kobayashi, J. Normand, 
 K. Raghavachari, A. P. Rendell, J. C. Burant, S. S. Iyengar, 
 J. Tomasi, M. Cossi, J. M. Millam, M. Klene, C. Adamo, R. Cammi, 
 J. W. Ochterski, R. L. Martin, K. Morokuma, O. Farkas, 
 J. B. Foresman, and D. J. Fox, Gaussian, Inc., Wallingford CT, 2019.
 
 ******************************************
 Gaussian 16:  ES64L-G16RevC.01  3-Jul-2019
                 7-Dec-2023 
 ******************************************
 %mem=10GB
 %nprocshared=48
 Will use up to   48 processors via shared memory.
 ----------------------------
 # opt freq 6-31+g(d,p) m062x
 ----------------------------
 1/18=20,19=15,26=3,38=1/1,3;
 2/9=110,12=2,17=6,18=5,40=1/2;
 3/5=1,6=6,7=111,11=2,25=1,30=1,71=1,74=-55/1,2,3;
 4//1;
 5/5=2,38=5/2;
 6/7=2,8=2,9=2,10=2,28=1/1;
 7//1,2,3,16;
 1/18=20,19=15,26=3/3(2);
 2/9=110/2;
 99//99;
 2/9=110/2;
 3/5=1,6=6,7=111,11=2,25=1,30=1,71=1,74=-55/1,2,3;
 4/5=5,16=3,69=1/1;
 5/5=2,38=5/2;
 7//1,2,3,16;
 1/18=20,19=15,26=3/3(-5);
 2/9=110/2;
 6/7=2,8=2,9=2,10=2,19=2,28=1/1;
 99/9=1/99;
 --
 PC
 --
 Symbolic Z-matrix:
 Charge = -1 Multiplicity = 2
 N                     0.32008  -0.42903  -0.02059 
 N                     0.47987   0.83942  -0.58058 
 C                     1.81593   1.05333  -0.40894 
 C                     2.38618  -0.03373   0.22878 
 N                     1.46688  -0.99219   0.48745 
 H                     2.2676    1.9777   -0.73875 
 H                     3.41623  -0.18371   0.52153 
 H                     0.52266   0.47323  -2.29427 
 C                    -0.88002  -1.07652  -0.0918 
 O                    -1.81728  -0.33736  -0.76614 
 O                    -1.14384  -2.16722   0.38392 
 O                    -0.28251   0.43502  -2.84771 
 H                    -1.34577   0.40666  -1.18567 
 H                    -0.77288  -0.30322  -2.46705 
 
 Add virtual bond connecting atoms H14        and H13        Dist= 2.97D+00.

 GradGradGradGradGradGradGradGradGradGradGradGradGradGradGradGradGradGrad
 Berny optimization.
 Initialization pass.
                           ----------------------------
                           !    Initial Parameters    !
                           ! (Angstroms and Degrees)  !
 --------------------------                            --------------------------
 ! Name  Definition              Value          Derivative Info.                !
 --------------------------------------------------------------------------------
 ! R1    R(1,2)                  1.3957         estimate D2E/DX2                !
 ! R2    R(1,5)                  1.3749         estimate D2E/DX2                !
 ! R3    R(1,9)                  1.3655         estimate D2E/DX2                !
 ! R4    R(2,3)                  1.3639         estimate D2E/DX2                !
 ! R5    R(3,4)                  1.3833         estimate D2E/DX2                !
 ! R6    R(3,6)                  1.0804         estimate D2E/DX2                !
 ! R7    R(4,5)                  1.353          estimate D2E/DX2                !
 ! R8    R(4,7)                  1.0813         estimate D2E/DX2                !
 ! R9    R(8,12)                 0.9778         estimate D2E/DX2                !
 ! R10   R(9,10)                 1.371          estimate D2E/DX2                !
 ! R11   R(9,11)                 1.2188         estimate D2E/DX2                !
 ! R12   R(10,13)                0.9756         estimate D2E/DX2                !
 ! R13   R(12,14)                0.9646         estimate D2E/DX2                !
 ! R14   R(13,14)                1.5729         estimate D2E/DX2                !
 ! A1    A(2,1,5)              115.1508         estimate D2E/DX2                !
 ! A2    A(2,1,9)              120.7063         estimate D2E/DX2                !
 ! A3    A(5,1,9)              123.9247         estimate D2E/DX2                !
 ! A4    A(1,2,3)              101.782          estimate D2E/DX2                !
 ! A5    A(2,3,4)              109.7906         estimate D2E/DX2                !
 ! A6    A(2,3,6)              120.3506         estimate D2E/DX2                !
 ! A7    A(4,3,6)              129.8475         estimate D2E/DX2                !
 ! A8    A(3,4,5)              111.3901         estimate D2E/DX2                !
 ! A9    A(3,4,7)              128.793          estimate D2E/DX2                !
 ! A10   A(5,4,7)              119.8168         estimate D2E/DX2                !
 ! A11   A(1,5,4)              101.8834         estimate D2E/DX2                !
 ! A12   A(1,9,10)             111.7671         estimate D2E/DX2                !
 ! A13   A(1,9,11)             126.4573         estimate D2E/DX2                !
 ! A14   A(10,9,11)            121.7678         estimate D2E/DX2                !
 ! A15   A(9,10,13)            106.9933         estimate D2E/DX2                !
 ! A16   A(8,12,14)            103.0124         estimate D2E/DX2                !
 ! A17   A(10,13,14)           100.4953         estimate D2E/DX2                !
 ! A18   A(12,14,13)            99.2792         estimate D2E/DX2                !
 ! D1    D(5,1,2,3)              0.4889         estimate D2E/DX2                !
 ! D2    D(9,1,2,3)           -174.3495         estimate D2E/DX2                !
 ! D3    D(2,1,5,4)             -0.2176         estimate D2E/DX2                !
 ! D4    D(9,1,5,4)            174.4336         estimate D2E/DX2                !
 ! D5    D(2,1,9,10)             0.7439         estimate D2E/DX2                !
 ! D6    D(2,1,9,11)          -178.2509         estimate D2E/DX2                !
 ! D7    D(5,1,9,10)          -173.624          estimate D2E/DX2                !
 ! D8    D(5,1,9,11)             7.3812         estimate D2E/DX2                !
 ! D9    D(1,2,3,4)             -0.5523         estimate D2E/DX2                !
 ! D10   D(1,2,3,6)           -179.4447         estimate D2E/DX2                !
 ! D11   D(2,3,4,5)              0.4781         estimate D2E/DX2                !
 ! D12   D(2,3,4,7)           -179.4226         estimate D2E/DX2                !
 ! D13   D(6,3,4,5)            179.2332         estimate D2E/DX2                !
 ! D14   D(6,3,4,7)             -0.6676         estimate D2E/DX2                !
 ! D15   D(3,4,5,1)             -0.1549         estimate D2E/DX2                !
 ! D16   D(7,4,5,1)            179.7559         estimate D2E/DX2                !
 ! D17   D(1,9,10,13)           10.837          estimate D2E/DX2                !
 ! D18   D(11,9,10,13)        -170.1139         estimate D2E/DX2                !
 ! D19   D(9,10,13,14)          81.1381         estimate D2E/DX2                !
 ! D20   D(8,12,14,13)          77.0724         estimate D2E/DX2                !
 ! D21   D(10,13,14,12)       -177.7952         estimate D2E/DX2                !
 --------------------------------------------------------------------------------
 Trust Radius=3.00D-01 FncErr=1.00D-07 GrdErr=1.00D-06 EigMax=2.50D+02 EigMin=1.00D-04
 Number of steps in this run=     63 maximum allowed number of steps=    100.
 GradGradGradGradGradGradGradGradGradGradGradGradGradGradGradGradGradGrad

                          Input orientation:                          
 ---------------------------------------------------------------------
 Center     Atomic      Atomic             Coordinates (Angstroms)
 Number     Number       Type             X           Y           Z
 ---------------------------------------------------------------------
      1          7           0        0.320075   -0.429025   -0.020590
      2          7           0        0.479865    0.839416   -0.580576
      3          6           0        1.815933    1.053326   -0.408937
      4          6           0        2.386181   -0.033725    0.228784
      5          7           0        1.466875   -0.992186    0.487454
      6          1           0        2.267602    1.977699   -0.738752
      7          1           0        3.416231   -0.183706    0.521531
      8          1           0        0.522659    0.473228   -2.294272
      9          6           0       -0.880017   -1.076521   -0.091801
     10          8           0       -1.817282   -0.337355   -0.766144
     11          8           0       -1.143839   -2.167220    0.383917
     12          8           0       -0.282506    0.435025   -2.847713
     13          1           0       -1.345770    0.406657   -1.185669
     14          1           0       -0.772877   -0.303225   -2.467046
 ---------------------------------------------------------------------
                    Distance matrix (angstroms):
                    1          2          3          4          5
     1  N    0.000000
     2  N    1.395729   0.000000
     3  C    2.141441   1.363926   0.000000
     4  C    2.118311   2.247550   1.383312   0.000000
     5  N    1.374922   2.338727   2.260415   1.353027   0.000000
     6  H    3.178197   2.125256   1.080393   2.235176   3.311338
     7  H    3.152818   3.299040   2.226426   1.081295   2.110637
     8  H    2.454533   1.752906   2.358720   3.177346   3.282831
     9  C    1.365483   2.399791   3.450358   3.443581   2.418791
    10  O    2.265513   2.587684   3.906641   4.330263   3.575751
    11  O    2.308244   3.550566   4.445310   4.127579   2.864830
    12  O    3.017003   2.425830   3.276182   4.099567   4.027481
    13  H    2.197911   1.971386   3.319316   4.015230   3.559083
    14  H    2.682446   2.536486   3.574630   4.161703   3.770972
                    6          7          8          9         10
     6  H    0.000000
     7  H    2.753059   0.000000
     8  H    2.779910   4.090607   0.000000
     9  C    4.433318   4.430693   3.036462   0.000000
    10  O    4.695370   5.391788   2.909904   1.370974   0.000000
    11  O    5.484402   4.974686   4.113621   1.218825   2.263752
    12  O    3.651111   5.041358   0.977777   3.199506   2.699080
    13  H    3.965396   5.093105   2.173582   1.900866   0.975643
    14  H    4.175419   5.147281   1.520244   2.500251   1.996250
                   11         12         13         14
    11  O    0.000000
    12  O    4.237570   0.000000
    13  H    3.021460   1.973252   0.000000
    14  H    3.426380   0.964563   1.572916   0.000000
 Stoichiometry    C3H5N3O3(1-,2)
 Framework group  C1[X(C3H5N3O3)]
 Deg. of freedom    36
 Full point group                 C1      NOp   1
 Largest Abelian subgroup         C1      NOp   1
 Largest concise Abelian subgroup C1      NOp   1
                         Standard orientation:                         
 ---------------------------------------------------------------------
 Center     Atomic      Atomic             Coordinates (Angstroms)
 Number     Number       Type             X           Y           Z
 ---------------------------------------------------------------------
      1          7           0       -0.112359   -0.491427   -0.138771
      2          7           0       -0.660797    0.691826   -0.635951
      3          6           0       -1.989121    0.509920   -0.385427
      4          6           0       -2.188604   -0.721280    0.212823
      5          7           0       -1.020041   -1.380983    0.385836
      6          1           0       -2.706615    1.266545   -0.668216
      7          1           0       -3.115774   -1.177339    0.531512
      8          1           0       -0.331573    1.816444    0.667707
      9          6           0        1.240968   -0.667291   -0.092736
     10          8           0        1.912726    0.431685   -0.562377
     11          8           0        1.829223   -1.663581    0.290535
     12          8           0        0.495357    2.335251    0.723133
     13          1           0        1.256990    1.147922   -0.656682
     14          1           0        1.171442    1.655578    0.829600
 ---------------------------------------------------------------------
 Rotational constants (GHZ):           2.2595575           1.6406401           1.0602826
 Standard basis: 6-31+G(d,p) (6D, 7F)
 There are   196 symmetry adapted cartesian basis functions of A   symmetry.
 There are   196 symmetry adapted basis functions of A   symmetry.
   196 basis functions,   323 primitive gaussians,   196 cartesian basis functions
    35 alpha electrons       34 beta electrons
       nuclear repulsion energy       466.9291254636 Hartrees.
 NAtoms=   14 NActive=   14 NUniq=   14 SFac= 1.00D+00 NAtFMM=   60 NAOKFM=F Big=F
 Integral buffers will be    131072 words long.
 Raffenetti 2 integral format.
 Two-electron integral symmetry is turned on.
 One-electron integrals computed using PRISM.
 NBasis=   196 RedAO= T EigKep=  2.56D-05  NBF=   196
 NBsUse=   196 1.00D-06 EigRej= -1.00D+00 NBFU=   196
 ExpMin= 4.38D-02 ExpMax= 5.48D+03 ExpMxC= 8.25D+02 IAcc=3 IRadAn=         5 AccDes= 0.00D+00
 Harris functional with IExCor= 1009 and IRadAn=       5 diagonalized for initial guess.
 HarFok:  IExCor= 1009 AccDes= 0.00D+00 IRadAn=         5 IDoV= 1 UseB2=F ITyADJ=14
 ICtDFT=  3500011 ScaDFX=  1.000000  1.000000  1.000000  1.000000
 FoFCou: FMM=F IPFlag=           0 FMFlag=      100000 FMFlg1=           0
         NFxFlg=           0 DoJE=T BraDBF=F KetDBF=T FulRan=T
         wScrn=  0.000000 ICntrl=       500 IOpCl=  0 I1Cent=   200000004 NGrid=           0
         NMat0=    1 NMatS0=      1 NMatT0=    0 NMatD0=    1 NMtDS0=    0 NMtDT0=    0
 Petite list used in FoFCou.
 Initial guess <Sx>= 0.0000 <Sy>= 0.0000 <Sz>= 0.5000 <S**2>= 0.7500 S= 0.5000
 Requested convergence on RMS density matrix=1.00D-08 within 128 cycles.
 Requested convergence on MAX density matrix=1.00D-06.
 Requested convergence on             energy=1.00D-06.
 No special actions if energy rises.
 SCF Done:  E(UM062X) =  -507.054262561     A.U. after   18 cycles
            NFock= 18  Conv=0.67D-08     -V/T= 2.0077
 <Sx>= 0.0000 <Sy>= 0.0000 <Sz>= 0.5000 <S**2>= 0.7664 S= 0.5082
 <L.S>=  0.00000000000    
 Annihilation of the first spin contaminant:
 S**2 before annihilation     0.7664,   after     0.7501

 **********************************************************************

            Population analysis using the SCF Density.

 **********************************************************************

 Orbital symmetries:
 Alpha Orbitals:
       Occupied  (A) (A) (A) (A) (A) (A) (A) (A) (A) (A) (A) (A)
                 (A) (A) (A) (A) (A) (A) (A) (A) (A) (A) (A) (A)
                 (A) (A) (A) (A) (A) (A) (A) (A) (A) (A) (A)
       Virtual   (A) (A) (A) (A) (A) (A) (A) (A) (A) (A) (A) (A)
                 (A) (A) (A) (A) (A) (A) (A) (A) (A) (A) (A) (A)
                 (A) (A) (A) (A) (A) (A) (A) (A) (A) (A) (A) (A)
                 (A) (A) (A) (A) (A) (A) (A) (A) (A) (A) (A) (A)
                 (A) (A) (A) (A) (A) (A) (A) (A) (A) (A) (A) (A)
                 (A) (A) (A) (A) (A) (A) (A) (A) (A) (A) (A) (A)
                 (A) (A) (A) (A) (A) (A) (A) (A) (A) (A) (A) (A)
                 (A) (A) (A) (A) (A) (A) (A) (A) (A) (A) (A) (A)
                 (A) (A) (A) (A) (A) (A) (A) (A) (A) (A) (A) (A)
                 (A) (A) (A) (A) (A) (A) (A) (A) (A) (A) (A) (A)
                 (A) (A) (A) (A) (A) (A) (A) (A) (A) (A) (A) (A)
                 (A) (A) (A) (A) (A) (A) (A) (A) (A) (A) (A) (A)
                 (A) (A) (A) (A) (A) (A) (A) (A) (A) (A) (A) (A)
                 (A) (A) (A) (A) (A)
 Beta  Orbitals:
       Occupied  (A) (A) (A) (A) (A) (A) (A) (A) (A) (A) (A) (A)
                 (A) (A) (A) (A) (A) (A) (A) (A) (A) (A) (A) (A)
                 (A) (A) (A) (A) (A) (A) (A) (A) (A) (A)
       Virtual   (A) (A) (A) (A) (A) (A) (A) (A) (A) (A) (A) (A)
                 (A) (A) (A) (A) (A) (A) (A) (A) (A) (A) (A) (A)
                 (A) (A) (A) (A) (A) (A) (A) (A) (A) (A) (A) (A)
                 (A) (A) (A) (A) (A) (A) (A) (A) (A) (A) (A) (A)
                 (A) (A) (A) (A) (A) (A) (A) (A) (A) (A) (A) (A)
                 (A) (A) (A) (A) (A) (A) (A) (A) (A) (A) (A) (A)
                 (A) (A) (A) (A) (A) (A) (A) (A) (A) (A) (A) (A)
                 (A) (A) (A) (A) (A) (A) (A) (A) (A) (A) (A) (A)
                 (A) (A) (A) (A) (A) (A) (A) (A) (A) (A) (A) (A)
                 (A) (A) (A) (A) (A) (A) (A) (A) (A) (A) (A) (A)
                 (A) (A) (A) (A) (A) (A) (A) (A) (A) (A) (A) (A)
                 (A) (A) (A) (A) (A) (A) (A) (A) (A) (A) (A) (A)
                 (A) (A) (A) (A) (A) (A) (A) (A) (A) (A) (A) (A)
                 (A) (A) (A) (A) (A) (A)
 The electronic state is 2-A.
 Alpha  occ. eigenvalues --  -19.53240 -19.49131 -19.46553 -14.70646 -14.62427
 Alpha  occ. eigenvalues --  -14.62262 -10.54510 -10.42534 -10.42320  -1.09056
 Alpha  occ. eigenvalues --   -1.02093  -0.99093  -0.97417  -0.82321  -0.78993
 Alpha  occ. eigenvalues --   -0.61305  -0.54358  -0.53203  -0.48063  -0.45457
 Alpha  occ. eigenvalues --   -0.43022  -0.39119  -0.38344  -0.35042  -0.34076
 Alpha  occ. eigenvalues --   -0.33378  -0.31813  -0.26524  -0.25233  -0.23458
 Alpha  occ. eigenvalues --   -0.21167  -0.20484  -0.19803  -0.19127  -0.00797
 Alpha virt. eigenvalues --    0.13503   0.14005   0.15914   0.17478   0.18540
 Alpha virt. eigenvalues --    0.18653   0.19402   0.20532   0.21307   0.21825
 Alpha virt. eigenvalues --    0.24244   0.25029   0.26084   0.27810   0.28339
 Alpha virt. eigenvalues --    0.30598   0.32536   0.32858   0.33348   0.34175
 Alpha virt. eigenvalues --    0.35318   0.35926   0.35979   0.36629   0.37956
 Alpha virt. eigenvalues --    0.38332   0.39080   0.39426   0.40626   0.41870
 Alpha virt. eigenvalues --    0.42983   0.43187   0.44430   0.44745   0.45213
 Alpha virt. eigenvalues --    0.46029   0.46977   0.47228   0.48337   0.49398
 Alpha virt. eigenvalues --    0.50402   0.53481   0.54567   0.55067   0.56844
 Alpha virt. eigenvalues --    0.59796   0.61065   0.63421   0.66316   0.69492
 Alpha virt. eigenvalues --    0.79414   0.85367   0.89585   0.92936   0.94824
 Alpha virt. eigenvalues --    0.97813   1.00378   1.03814   1.05200   1.08904
 Alpha virt. eigenvalues --    1.09223   1.11129   1.13218   1.14166   1.16878
 Alpha virt. eigenvalues --    1.20456   1.21545   1.23727   1.26282   1.27446
 Alpha virt. eigenvalues --    1.30777   1.33061   1.35330   1.36708   1.37683
 Alpha virt. eigenvalues --    1.39051   1.41090   1.42722   1.45262   1.46727
 Alpha virt. eigenvalues --    1.48690   1.50140   1.52323   1.53721   1.54341
 Alpha virt. eigenvalues --    1.54880   1.57281   1.57377   1.59804   1.60628
 Alpha virt. eigenvalues --    1.62216   1.63732   1.67586   1.71073   1.76066
 Alpha virt. eigenvalues --    1.77341   1.80555   1.81593   1.86245   1.94698
 Alpha virt. eigenvalues --    1.98541   2.00671   2.01410   2.04619   2.08150
 Alpha virt. eigenvalues --    2.11493   2.11621   2.14179   2.16096   2.18012
 Alpha virt. eigenvalues --    2.19160   2.25005   2.27849   2.29959   2.38300
 Alpha virt. eigenvalues --    2.39058   2.42825   2.45945   2.48472   2.49509
 Alpha virt. eigenvalues --    2.52448   2.59406   2.61119   2.64467   2.64864
 Alpha virt. eigenvalues --    2.68221   2.69021   2.72942   2.79103   2.80060
 Alpha virt. eigenvalues --    2.84839   2.86228   2.88696   2.91025   2.93063
 Alpha virt. eigenvalues --    2.94524   2.97543   2.99932   3.04178   3.10708
 Alpha virt. eigenvalues --    3.14336   3.18278   3.28365   3.29963   3.34084
 Alpha virt. eigenvalues --    3.40761   3.43343   3.50493   3.67866   3.78432
 Alpha virt. eigenvalues --    3.83103   3.87717   4.21211   4.31413   4.43498
 Alpha virt. eigenvalues --    4.46687   4.58646   4.59542   4.72747   4.81905
 Alpha virt. eigenvalues --    4.94654
  Beta  occ. eigenvalues --  -19.53209 -19.49102 -19.46317 -14.70573 -14.61936
  Beta  occ. eigenvalues --  -14.61752 -10.54433 -10.42488 -10.42343  -1.08622
  Beta  occ. eigenvalues --   -1.01360  -0.98827  -0.97031  -0.80754  -0.78251
  Beta  occ. eigenvalues --   -0.60516  -0.53913  -0.52959  -0.47279  -0.45068
  Beta  occ. eigenvalues --   -0.41495  -0.38711  -0.38023  -0.34540  -0.32941
  Beta  occ. eigenvalues --   -0.32810  -0.31398  -0.26145  -0.23771  -0.22383
  Beta  occ. eigenvalues --   -0.20423  -0.18934  -0.17073  -0.16027
  Beta virt. eigenvalues --    0.12659   0.13990   0.14301   0.15449   0.16706
  Beta virt. eigenvalues --    0.17967   0.18306   0.19123   0.19782   0.20047
  Beta virt. eigenvalues --    0.21578   0.22873   0.26155   0.26686   0.27436
  Beta virt. eigenvalues --    0.28227   0.30505   0.32476   0.32921   0.33314
  Beta virt. eigenvalues --    0.33961   0.35296   0.35830   0.35970   0.36695
  Beta virt. eigenvalues --    0.37999   0.38199   0.38739   0.39373   0.40519
  Beta virt. eigenvalues --    0.41787   0.42926   0.43019   0.44376   0.44759
  Beta virt. eigenvalues --    0.45127   0.45833   0.46821   0.47317   0.48292
  Beta virt. eigenvalues --    0.49058   0.50062   0.53298   0.54679   0.54978
  Beta virt. eigenvalues --    0.56816   0.59868   0.61205   0.63228   0.66571
  Beta virt. eigenvalues --    0.69757   0.79809   0.85554   0.89453   0.93359
  Beta virt. eigenvalues --    0.95374   0.98066   1.00569   1.03941   1.05298
  Beta virt. eigenvalues --    1.09207   1.09639   1.11392   1.13337   1.14725
  Beta virt. eigenvalues --    1.19006   1.21167   1.21955   1.23836   1.26513
  Beta virt. eigenvalues --    1.27811   1.30876   1.33664   1.35446   1.37129
  Beta virt. eigenvalues --    1.37832   1.39275   1.41312   1.42859   1.45532
  Beta virt. eigenvalues --    1.46953   1.49141   1.50420   1.52457   1.54067
  Beta virt. eigenvalues --    1.54807   1.55138   1.57405   1.57823   1.60332
  Beta virt. eigenvalues --    1.61192   1.62738   1.64158   1.68043   1.71701
  Beta virt. eigenvalues --    1.76412   1.77627   1.80688   1.82026   1.86362
  Beta virt. eigenvalues --    1.94803   1.98680   2.01137   2.01704   2.04840
  Beta virt. eigenvalues --    2.08316   2.11859   2.11891   2.14541   2.16496
  Beta virt. eigenvalues --    2.18395   2.19709   2.25594   2.28233   2.30327
  Beta virt. eigenvalues --    2.38817   2.39878   2.43231   2.46288   2.48873
  Beta virt. eigenvalues --    2.50023   2.52581   2.59692   2.61440   2.64689
  Beta virt. eigenvalues --    2.65450   2.68728   2.69351   2.73370   2.79622
  Beta virt. eigenvalues --    2.80600   2.85203   2.86592   2.89047   2.91397
  Beta virt. eigenvalues --    2.93454   2.94603   2.97591   3.00209   3.04338
  Beta virt. eigenvalues --    3.11440   3.14765   3.18539   3.28684   3.30275
  Beta virt. eigenvalues --    3.34374   3.41149   3.43833   3.50740   3.67722
  Beta virt. eigenvalues --    3.78309   3.82950   3.88013   4.21420   4.31425
  Beta virt. eigenvalues --    4.43657   4.46702   4.58784   4.60006   4.73656
  Beta virt. eigenvalues --    4.82229   4.94774
          Condensed to atoms (all electrons):
               1          2          3          4          5          6
     1  N    8.954649  -0.940781   0.053653   0.054093  -0.901811  -0.002226
     2  N   -0.940781   9.187291  -0.425547   0.286799  -0.267726  -0.054655
     3  C    0.053653  -0.425547   6.325308  -0.379875   0.153846   0.397606
     4  C    0.054093   0.286799  -0.379875   6.035062  -0.080804  -0.025254
     5  N   -0.901811  -0.267726   0.153846  -0.080804   8.407877   0.001846
     6  H   -0.002226  -0.054655   0.397606  -0.025254   0.001846   0.551149
     7  H   -0.002914  -0.012447  -0.005011   0.370561  -0.040133   0.000462
     8  H   -0.024680   0.060122  -0.001365   0.011300  -0.000753   0.000168
     9  C    0.179527  -0.089725   0.018488  -0.029990  -0.037589   0.000189
    10  O   -0.189259  -0.016632   0.024424  -0.025497   0.007873  -0.000023
    11  O   -0.081278   0.007380  -0.010808   0.000607  -0.060862  -0.000011
    12  O    0.126672  -0.286426   0.035614  -0.015508  -0.031225   0.000918
    13  H   -0.013875   0.027091   0.001182  -0.000293  -0.016011  -0.000030
    14  H    0.024222   0.007909  -0.023606   0.017622  -0.017021  -0.000007
               7          8          9         10         11         12
     1  N   -0.002914  -0.024680   0.179527  -0.189259  -0.081278   0.126672
     2  N   -0.012447   0.060122  -0.089725  -0.016632   0.007380  -0.286426
     3  C   -0.005011  -0.001365   0.018488   0.024424  -0.010808   0.035614
     4  C    0.370561   0.011300  -0.029990  -0.025497   0.000607  -0.015508
     5  N   -0.040133  -0.000753  -0.037589   0.007873  -0.060862  -0.031225
     6  H    0.000462   0.000168   0.000189  -0.000023  -0.000011   0.000918
     7  H    0.568126   0.000052   0.000168   0.000004  -0.000028   0.000060
     8  H    0.000052   0.309303  -0.006884  -0.000883   0.000217   0.248026
     9  C    0.000168  -0.006884   4.632147   0.203866   0.476213   0.027486
    10  O    0.000004  -0.000883   0.203866   8.401941  -0.072622  -0.021303
    11  O   -0.000028   0.000217   0.476213  -0.072622   8.287106   0.001020
    12  O    0.000060   0.248026   0.027486  -0.021303   0.001020   8.358392
    13  H   -0.000001  -0.003017   0.006867   0.209749   0.010418   0.032788
    14  H    0.000001  -0.021838   0.006471   0.013536  -0.000640   0.254020
              13         14
     1  N   -0.013875   0.024222
     2  N    0.027091   0.007909
     3  C    0.001182  -0.023606
     4  C   -0.000293   0.017622
     5  N   -0.016011  -0.017021
     6  H   -0.000030  -0.000007
     7  H   -0.000001   0.000001
     8  H   -0.003017  -0.021838
     9  C    0.006867   0.006471
    10  O    0.209749   0.013536
    11  O    0.010418  -0.000640
    12  O    0.032788   0.254020
    13  H    0.348218  -0.001521
    14  H   -0.001521   0.391951
          Atomic-Atomic Spin Densities.
               1          2          3          4          5          6
     1  N    0.839370  -0.601301   0.242986   0.014391  -0.681273  -0.002979
     2  N   -0.601301   0.941641  -0.305517  -0.091400   0.486472   0.004307
     3  C    0.242986  -0.305517   0.195807   0.182485  -0.217133  -0.008232
     4  C    0.014391  -0.091400   0.182485  -0.042743  -0.091321   0.008417
     5  N   -0.681273   0.486472  -0.217133  -0.091321   0.971500  -0.000169
     6  H   -0.002979   0.004307  -0.008232   0.008417  -0.000169  -0.006336
     7  H    0.000677   0.001609   0.002620  -0.000928  -0.003025  -0.000019
     8  H   -0.003519   0.010229  -0.009071  -0.000107   0.004709  -0.000092
     9  C    0.156149  -0.073604   0.007913   0.001391  -0.059999  -0.000072
    10  O   -0.009950   0.008397  -0.000173  -0.003288  -0.000627   0.000013
    11  O   -0.005015  -0.007187  -0.000501  -0.002142  -0.006684  -0.000003
    12  O    0.051069  -0.080849   0.035530   0.003428  -0.034091  -0.000144
    13  H    0.001746  -0.006403   0.001735  -0.000006  -0.002301  -0.000000
    14  H    0.005496  -0.008197   0.001703  -0.000630  -0.000321  -0.000001
               7          8          9         10         11         12
     1  N    0.000677  -0.003519   0.156149  -0.009950  -0.005015   0.051069
     2  N    0.001609   0.010229  -0.073604   0.008397  -0.007187  -0.080849
     3  C    0.002620  -0.009071   0.007913  -0.000173  -0.000501   0.035530
     4  C   -0.000928  -0.000107   0.001391  -0.003288  -0.002142   0.003428
     5  N   -0.003025   0.004709  -0.059999  -0.000627  -0.006684  -0.034091
     6  H   -0.000019  -0.000092  -0.000072   0.000013  -0.000003  -0.000144
     7  H   -0.001206  -0.000003  -0.000064   0.000003   0.000000  -0.000013
     8  H   -0.000003  -0.001827  -0.001276   0.000317  -0.000017  -0.000612
     9  C   -0.000064  -0.001276   0.144661  -0.016824  -0.060011   0.011313
    10  O    0.000003   0.000317  -0.016824   0.026117   0.008909  -0.002389
    11  O    0.000000  -0.000017  -0.060011   0.008909   0.184112   0.000472
    12  O   -0.000013  -0.000612   0.011313  -0.002389   0.000472   0.027105
    13  H    0.000000  -0.000108   0.001747   0.001185   0.000145   0.001637
    14  H    0.000000  -0.000425   0.000864  -0.001409   0.000128   0.002698
              13         14
     1  N    0.001746   0.005496
     2  N   -0.006403  -0.008197
     3  C    0.001735   0.001703
     4  C   -0.000006  -0.000630
     5  N   -0.002301  -0.000321
     6  H   -0.000000  -0.000001
     7  H    0.000000   0.000000
     8  H   -0.000108  -0.000425
     9  C    0.001747   0.000864
    10  O    0.001185  -0.001409
    11  O    0.000145   0.000128
    12  O    0.001637   0.002698
    13  H   -0.000653   0.000082
    14  H    0.000082  -0.000638
 Mulliken charges and spin densities:
               1          2
     1  N   -0.235992   0.007846
     2  N   -0.482653   0.278197
     3  C   -0.163908   0.130152
     4  C   -0.218825  -0.022452
     5  N   -0.117508   0.365736
     6  H    0.129869  -0.005312
     7  H    0.121099  -0.000348
     8  H    0.430231  -0.001803
     9  C    0.612766   0.112188
    10  O   -0.535174   0.010281
    11  O   -0.556711   0.112206
    12  O   -0.730533   0.015153
    13  H    0.398436  -0.001193
    14  H    0.348902  -0.000652
 Sum of Mulliken charges =  -1.00000   1.00000
 Mulliken charges and spin densities with hydrogens summed into heavy atoms:
               1          2
     1  N   -0.235992   0.007846
     2  N   -0.482653   0.278197
     3  C   -0.034039   0.124841
     4  C   -0.097726  -0.022800
     5  N   -0.117508   0.365736
     9  C    0.612766   0.112188
    10  O   -0.136738   0.009088
    11  O   -0.556711   0.112206
    12  O    0.048600   0.012697
 Electronic spatial extent (au):  <R**2>=           1110.1372
 Charge=             -1.0000 electrons
 Dipole moment (field-independent basis, Debye):
    X=             -2.9865    Y=              1.9415    Z=             -0.6019  Tot=              3.6126
 Quadrupole moment (field-independent basis, Debye-Ang):
   XX=            -66.5617   YY=            -77.1184   ZZ=            -59.8337
   XY=              2.3237   XZ=             -0.5505   YZ=              0.4393
 Traceless Quadrupole moment (field-independent basis, Debye-Ang):
   XX=              1.2762   YY=             -9.2804   ZZ=              8.0042
   XY=              2.3237   XZ=             -0.5505   YZ=              0.4393
 Octapole moment (field-independent basis, Debye-Ang**2):
  XXX=            -12.8504  YYY=             -3.3015  ZZZ=              0.7338  XYY=             -9.2365
  XXY=             16.7982  XXZ=              3.4021  XZZ=              9.4554  YZZ=             -0.9975
  YYZ=            -14.7153  XYZ=              2.5744
 Hexadecapole moment (field-independent basis, Debye-Ang**3):
 XXXX=           -844.1484 YYYY=           -680.9918 ZZZZ=           -144.4552 XXXY=             26.2690
 XXXZ=             -1.2387 YYYX=             -7.9166 YYYZ=            -18.0400 ZZZX=             -2.4256
 ZZZY=              1.9339 XXYY=           -239.4319 XXZZ=           -167.2379 YYZZ=           -127.5296
 XXYZ=             -0.8158 YYXZ=             -9.7420 ZZXY=             -1.7044
 N-N= 4.669291254636D+02 E-N=-2.133025611351D+03  KE= 5.031876089099D+02
                          Isotropic Fermi Contact Couplings
        Atom                 a.u.       MegaHertz       Gauss      10(-4) cm-1
     1  N(14)             -0.01207      -3.89864      -1.39113      -1.30045
     2  N(14)              0.08046      25.99569       9.27591       8.67123
     3  C(13)              0.00580       6.52236       2.32734       2.17563
     4  C(13)             -0.01206     -13.55858      -4.83804      -4.52265
     5  N(14)              0.09100      29.40337      10.49185       9.80791
     6  H(1)              -0.00176      -7.85590      -2.80318      -2.62045
     7  H(1)              -0.00038      -1.71764      -0.61290      -0.57294
     8  H(1)              -0.00103      -4.60210      -1.64214      -1.53510
     9  C(13)              0.01483      16.67010       5.94830       5.56055
    10  O(17)              0.00137      -0.83070      -0.29641      -0.27709
    11  O(17)              0.02769     -16.78577      -5.98958      -5.59913
    12  O(17)              0.00630      -3.81889      -1.36267      -1.27384
    13  H(1)              -0.00010      -0.45058      -0.16078      -0.15030
    14  H(1)              -0.00018      -0.82266      -0.29355      -0.27441
 --------------------------------------------------------
       Center         ----  Spin Dipole Couplings  ----
                      3XX-RR        3YY-RR        3ZZ-RR
 --------------------------------------------------------
     1   Atom       -0.081600     -0.035837      0.117437
     2   Atom       -0.369231     -0.170166      0.539397
     3   Atom       -0.035139     -0.023723      0.058863
     4   Atom        0.006604      0.000678     -0.007282
     5   Atom       -0.379664     -0.166839      0.546503
     6   Atom        0.000697      0.002958     -0.003655
     7   Atom        0.004893     -0.001095     -0.003797
     8   Atom       -0.009871      0.007615      0.002256
     9   Atom       -0.060081     -0.040049      0.100130
    10   Atom       -0.037380     -0.036087      0.073467
    11   Atom       -0.216218     -0.136788      0.353007
    12   Atom       -0.005834      0.001566      0.004268
    13   Atom        0.007221     -0.000185     -0.007037
    14   Atom        0.001145      0.002865     -0.004010
 --------------------------------------------------------
                        XY            XZ            YZ
 --------------------------------------------------------
     1   Atom        0.000010      0.000731      0.104226
     2   Atom        0.047552      0.109202      0.431214
     3   Atom        0.007107      0.014435      0.049612
     4   Atom       -0.006135     -0.000301     -0.004535
     5   Atom        0.055105      0.110429      0.457435
     6   Atom       -0.010230      0.004344     -0.001803
     7   Atom        0.002974     -0.002661     -0.002307
     8   Atom        0.007439      0.005479      0.018631
     9   Atom       -0.009716     -0.003753      0.073422
    10   Atom       -0.006085     -0.003846      0.030579
    11   Atom        0.011738      0.008679      0.229490
    12   Atom        0.024038      0.026517      0.028174
    13   Atom        0.003667     -0.001069     -0.003043
    14   Atom        0.002668      0.004340      0.003398
 --------------------------------------------------------


 ---------------------------------------------------------------------------------
              Anisotropic Spin Dipole Couplings in Principal Axis System
 ---------------------------------------------------------------------------------

       Atom             a.u.   MegaHertz   Gauss  10(-4) cm-1        Axes

              Baa    -0.0886    -3.416    -1.219    -1.140  0.0460  0.8913 -0.4511
     1 N(14)  Bbb    -0.0816    -3.147    -1.123    -1.050  0.9989 -0.0422  0.0184
              Bcc     0.1702     6.563     2.342     2.189  0.0026  0.4514  0.8923
 
              Baa    -0.3832   -14.780    -5.274    -4.930  0.9287  0.2815 -0.2415
     2 N(14)  Bbb    -0.3724   -14.363    -5.125    -4.791 -0.3556  0.8607 -0.3644
              Bcc     0.7556    29.143    10.399     9.721  0.1053  0.4243  0.8994
 
              Baa    -0.0470    -6.305    -2.250    -2.103 -0.0313  0.9067 -0.4207
     3 C(13)  Bbb    -0.0373    -5.005    -1.786    -1.669  0.9906 -0.0281 -0.1342
              Bcc     0.0843    11.310     4.036     3.773  0.1335  0.4209  0.8972
 
              Baa    -0.0099    -1.328    -0.474    -0.443  0.1940  0.4797  0.8557
     4 C(13)  Bbb    -0.0008    -0.112    -0.040    -0.037  0.5381  0.6773 -0.5017
              Bcc     0.0107     1.440     0.514     0.480  0.8202 -0.5578  0.1267
 
              Baa    -0.3931   -15.163    -5.410    -5.058  0.9355 -0.3482  0.0596
     5 N(14)  Bbb    -0.3898   -15.035    -5.365    -5.015  0.3371  0.8296 -0.4451
              Bcc     0.7830    30.198    10.775    10.073  0.1056  0.4364  0.8935
 
              Baa    -0.0093    -4.973    -1.775    -1.659  0.7356  0.5560 -0.3870
     6 H(1)   Bbb    -0.0039    -2.069    -0.738    -0.690  0.1362  0.4382  0.8885
              Bcc     0.0132     7.042     2.513     2.349 -0.6636  0.7063 -0.2466
 
              Baa    -0.0052    -2.782    -0.993    -0.928  0.1123  0.4227  0.8993
     7 H(1)   Bbb    -0.0019    -1.033    -0.369    -0.345 -0.4809  0.8151 -0.3230
              Bcc     0.0071     3.815     1.361     1.273  0.8696  0.3962 -0.2948
 
              Baa    -0.0141    -7.549    -2.694    -2.518 -0.3361  0.6761 -0.6556
     8 H(1)   Bbb    -0.0120    -6.385    -2.278    -2.130  0.9086  0.0495 -0.4148
              Bcc     0.0261    13.934     4.972     4.648  0.2480  0.7351  0.6309
 
              Baa    -0.0752   -10.092    -3.601    -3.366  0.4483  0.8279 -0.3371
     9 C(13)  Bbb    -0.0566    -7.598    -2.711    -2.534  0.8931 -0.3988  0.2082
              Bcc     0.1318    17.689     6.312     5.900 -0.0379  0.3944  0.9182
 
              Baa    -0.0467     3.379     1.206     1.127  0.4753  0.8562 -0.2027
    10 O(17)  Bbb    -0.0350     2.529     0.903     0.844  0.8787 -0.4503  0.1582
              Bcc     0.0817    -5.909    -2.108    -1.971 -0.0442  0.2533  0.9664
 
              Baa    -0.2315    16.750     5.977     5.587 -0.4570  0.8302 -0.3192
    11 O(17)  Bbb    -0.2125    15.375     5.486     5.129  0.8893  0.4189 -0.1837
              Bcc     0.4440   -32.125   -11.463   -10.716  0.0188  0.3678  0.9297
 
              Baa    -0.0279     2.015     0.719     0.672  0.8191 -0.1355 -0.5574
    12 O(17)  Bbb    -0.0251     1.814     0.647     0.605 -0.2417  0.7997 -0.5496
              Bcc     0.0529    -3.829    -1.366    -1.277  0.5202  0.5849  0.6223
 
              Baa    -0.0082    -4.375    -1.561    -1.459 -0.0219  0.3636  0.9313
    13 H(1)   Bbb    -0.0008    -0.441    -0.157    -0.147 -0.4270  0.8389 -0.3375
              Bcc     0.0090     4.816     1.719     1.606  0.9040  0.4051 -0.1369
 
              Baa    -0.0068    -3.633    -1.296    -1.212 -0.4182 -0.1962  0.8869
    14 H(1)   Bbb    -0.0005    -0.287    -0.102    -0.096 -0.6874  0.7066 -0.1678
              Bcc     0.0073     3.920     1.399     1.307  0.5938  0.6799  0.4304
 

 ---------------------------------------------------------------------------------

 Calling FoFJK, ICntrl=      2127 FMM=F ISym2X=0 I1Cent= 0 IOpClX= 1 NMat=1 NMatS=1 NMatT=0.
 ***** Axes restored to original set *****
 -------------------------------------------------------------------
 Center     Atomic                   Forces (Hartrees/Bohr)
 Number     Number              X              Y              Z
 -------------------------------------------------------------------
      1        7           0.001948728    0.001806587   -0.000107677
      2        7           0.012680999    0.003481195    0.026665665
      3        6          -0.000535354    0.000320781    0.004210336
      4        6           0.001738156   -0.002473848    0.000750534
      5        7           0.002078349   -0.000586604    0.001900490
      6        1          -0.000048955    0.000361098    0.000007131
      7        1           0.000124433   -0.000276961   -0.000083781
      8        1          -0.010940917    0.005652956   -0.003372853
      9        6          -0.002529872    0.001041813    0.002264714
     10        8          -0.001079113   -0.004762018    0.002545167
     11        8           0.000395472   -0.001028913    0.000673598
     12        8          -0.000652769   -0.009873647   -0.032461209
     13        1          -0.006904479    0.010207290    0.009743613
     14        1           0.003725322   -0.003869728   -0.012735730
 -------------------------------------------------------------------
 Cartesian Forces:  Max     0.032461209 RMS     0.008054160

 GradGradGradGradGradGradGradGradGradGradGradGradGradGradGradGradGradGrad
 Berny optimization.
 FormGI is forming the generalized inverse of G from B-inverse, IUseBI=4.
 Internal  Forces:  Max     0.115539160 RMS     0.030784839
 Search for a local minimum.
 Step number   1 out of a maximum of   63
 All quantities printed in internal units (Hartrees-Bohrs-Radians)
 Mixed Optimization -- RFO/linear search
 Second derivative matrix not updated -- first step.
 ITU=  0
     Eigenvalues ---    0.00230   0.01351   0.01497   0.01609   0.01920
     Eigenvalues ---    0.02076   0.02127   0.02148   0.02196   0.02266
     Eigenvalues ---    0.02311   0.05211   0.15997   0.16000   0.16000
     Eigenvalues ---    0.16000   0.16000   0.16000   0.22558   0.24714
     Eigenvalues ---    0.24925   0.24998   0.25000   0.35838   0.35947
     Eigenvalues ---    0.41770   0.46072   0.48575   0.50726   0.50790
     Eigenvalues ---    0.51819   0.51855   0.52240   0.53262   0.54503
     Eigenvalues ---    0.95906
 RFO step:  Lambda=-1.78356504D-01 EMin= 2.30000000D-03
 Linear search not attempted -- first point.
 Maximum step size (   0.300) exceeded in Quadratic search.
    -- Step size scaled by   0.591
 Iteration  1 RMS(Cart)=  0.33717761 RMS(Int)=  0.03492754
 Iteration  2 RMS(Cart)=  0.26486396 RMS(Int)=  0.01122341
 Iteration  3 RMS(Cart)=  0.02039553 RMS(Int)=  0.00030645
 Iteration  4 RMS(Cart)=  0.00015125 RMS(Int)=  0.00029823
 Iteration  5 RMS(Cart)=  0.00000003 RMS(Int)=  0.00029823
 Variable       Old X    -DE/DX   Delta X   Delta X   Delta X     New X
                                 (Linear)    (Quad)   (Total)
    R1        2.63755  -0.00393   0.00000  -0.00358  -0.00352   2.63403
    R2        2.59823   0.00659   0.00000   0.00582   0.00587   2.60410
    R3        2.58039   0.01879   0.00000   0.01595   0.01595   2.59634
    R4        2.57745   0.00119   0.00000   0.00095   0.00093   2.57838
    R5        2.61408  -0.00258   0.00000  -0.00237  -0.00243   2.61165
    R6        2.04165   0.00029   0.00000   0.00031   0.00031   2.04196
    R7        2.55685  -0.00372   0.00000  -0.00304  -0.00306   2.55379
    R8        2.04335   0.00013   0.00000   0.00015   0.00015   2.04350
    R9        1.84773  -0.01070   0.00000  -0.00908  -0.00908   1.83865
   R10        2.59077   0.02725   0.00000   0.02349   0.02349   2.61425
   R11        2.30325   0.00110   0.00000   0.00057   0.00057   2.30382
   R12        1.84370   0.01117   0.00000   0.00943   0.00943   1.85312
   R13        1.82276   0.00502   0.00000   0.00410   0.00410   1.82686
   R14        2.97238   0.04036   0.00000   0.10358   0.10358   3.07596
    A1        2.00976  -0.00956   0.00000  -0.01244  -0.01265   1.99712
    A2        2.10672   0.03989   0.00000   0.05580   0.05546   2.16218
    A3        2.16289  -0.02906   0.00000  -0.03955  -0.03997   2.12293
    A4        1.77643   0.00549   0.00000   0.00745   0.00755   1.78398
    A5        1.91621   0.00021   0.00000   0.00005   0.00001   1.91622
    A6        2.10051  -0.00025   0.00000  -0.00028  -0.00026   2.10026
    A7        2.26627   0.00003   0.00000   0.00021   0.00023   2.26649
    A8        1.94412  -0.00343   0.00000  -0.00525  -0.00530   1.93882
    A9        2.24786   0.00191   0.00000   0.00296   0.00297   2.25083
   A10        2.09120   0.00152   0.00000   0.00229   0.00230   2.09350
   A11        1.77820   0.00727   0.00000   0.01014   0.01022   1.78842
   A12        1.95070   0.08382   0.00000   0.11558   0.11512   2.06583
   A13        2.20710  -0.04339   0.00000  -0.06006  -0.06051   2.14659
   A14        2.12525  -0.04073   0.00000  -0.05640  -0.05686   2.06839
   A15        1.86738   0.11554   0.00000   0.20196   0.20196   2.06935
   A16        1.79791   0.00475   0.00000   0.00830   0.00830   1.80620
   A17        1.75397  -0.03590   0.00000  -0.06276  -0.06276   1.69121
   A18        1.73275   0.04659   0.00000   0.08143   0.08143   1.81418
    D1        0.00853   0.00404   0.00000   0.01198   0.01193   0.02046
    D2       -3.04297  -0.00919   0.00000  -0.03050  -0.03169  -3.07466
    D3       -0.00380  -0.00503   0.00000  -0.01454  -0.01437  -0.01817
    D4        3.04444   0.01272   0.00000   0.03509   0.03368   3.07812
    D5        0.01298   0.01109   0.00000   0.03339   0.03358   0.04656
    D6       -3.11106   0.03064   0.00000   0.09139   0.09139  -3.01967
    D7       -3.03031  -0.00484   0.00000  -0.01503  -0.01503  -3.04534
    D8        0.12883   0.01471   0.00000   0.04296   0.04278   0.17161
    D9       -0.00964  -0.00133   0.00000  -0.00423  -0.00444  -0.01408
   D10       -3.13190  -0.00123   0.00000  -0.00359  -0.00362  -3.13552
   D11        0.00835  -0.00179   0.00000  -0.00460  -0.00432   0.00403
   D12       -3.13152   0.00068   0.00000   0.00214   0.00223  -3.12929
   D13        3.12821  -0.00190   0.00000  -0.00533  -0.00524   3.12297
   D14       -0.01165   0.00056   0.00000   0.00141   0.00130  -0.01035
   D15       -0.00270   0.00396   0.00000   0.01111   0.01090   0.00820
   D16        3.13733   0.00175   0.00000   0.00505   0.00503  -3.14083
   D17        0.18914   0.06721   0.00000   0.19951   0.19966   0.38880
   D18       -2.96905   0.04860   0.00000   0.14449   0.14433  -2.82472
   D19        1.41613   0.07390   0.00000   0.22782   0.22782   1.64394
   D20        1.34517  -0.01166   0.00000  -0.03567  -0.03567   1.30949
   D21       -3.10311  -0.05509   0.00000  -0.18036  -0.18036   2.99972
         Item               Value     Threshold  Converged?
 Maximum Force            0.115539     0.000450     NO 
 RMS     Force            0.030785     0.000300     NO 
 Maximum Displacement     2.035441     0.001800     NO 
 RMS     Displacement     0.584426     0.001200     NO 
 Predicted change in Energy=-9.649942D-02
 GradGradGradGradGradGradGradGradGradGradGradGradGradGradGradGradGradGrad

                          Input orientation:                          
 ---------------------------------------------------------------------
 Center     Atomic      Atomic             Coordinates (Angstroms)
 Number     Number       Type             X           Y           Z
 ---------------------------------------------------------------------
      1          7           0        0.529241   -0.351613    0.081269
      2          7           0        0.803213    0.955607   -0.317452
      3          6           0        2.116946    1.092422    0.024636
      4          6           0        2.572089   -0.074031    0.609635
      5          7           0        1.592731   -1.003479    0.666953
      6          1           0        2.634071    2.023661   -0.156978
      7          1           0        3.553942   -0.299430    1.002733
      8          1           0       -0.237666    0.475277   -3.371381
      9          6           0       -0.673443   -0.981036   -0.130967
     10          8           0       -1.656840   -0.301666   -0.827524
     11          8           0       -0.939499   -2.077423    0.331006
     12          8           0       -1.169153    0.216735   -3.481653
     13          1           0       -1.389453    0.432030   -1.420677
     14          1           0       -1.303047   -0.444664   -2.789412
 ---------------------------------------------------------------------
                    Distance matrix (angstroms):
                    1          2          3          4          5
     1  N    0.000000
     2  N    1.393867   0.000000
     3  C    2.146917   1.364418   0.000000
     4  C    2.128251   2.246901   1.382024   0.000000
     5  N    1.378030   2.330324   2.253923   1.351407   0.000000
     6  H    3.182609   2.125684   1.080559   2.234244   3.305575
     7  H    3.162378   3.299169   2.226855   1.081373   2.110635
     8  H    3.632173   3.261997   4.178277   4.903564   4.673886
     9  C    1.373923   2.442514   3.479901   3.450308   2.402650
    10  O    2.367984   2.809408   4.112313   4.472257   3.644958
    11  O    2.279909   3.557642   4.414027   4.052464   2.770994
    12  O    3.987727   3.801095   4.884602   5.551582   5.131067
    13  H    2.559555   2.509785   3.849660   4.480187   3.913095
    14  H    3.406867   3.536619   4.688054   5.167936   4.543596
                    6          7          8          9         10
     6  H    0.000000
     7  H    2.754604   0.000000
     8  H    4.580038   5.840320   0.000000
     9  C    4.468616   4.429520   3.579250   0.000000
    10  O    4.926327   5.522870   3.014780   1.383403   0.000000
    11  O    5.461449   4.878882   4.551539   1.219127   2.238321
    12  O    5.364975   6.533281   0.972970   3.592698   2.747904
    13  H    4.507656   5.553837   2.265773   2.042738   0.980631
    14  H    5.340715   6.163749   1.523159   2.784138   1.998655
                   11         12         13         14
    11  O    0.000000
    12  O    4.455588   0.000000
    13  H    3.093252   2.083867   0.000000
    14  H    3.540491   0.966733   1.627727   0.000000
 Stoichiometry    C3H5N3O3(1-,2)
 Framework group  C1[X(C3H5N3O3)]
 Deg. of freedom    36
 Full point group                 C1      NOp   1
 Largest Abelian subgroup         C1      NOp   1
 Largest concise Abelian subgroup C1      NOp   1
                         Standard orientation:                         
 ---------------------------------------------------------------------
 Center     Atomic      Atomic             Coordinates (Angstroms)
 Number     Number       Type             X           Y           Z
 ---------------------------------------------------------------------
      1          7           0       -0.540924   -0.297563   -0.112620
      2          7           0       -0.635008    0.983097   -0.654765
      3          6           0       -1.898080    1.355652   -0.297709
      4          6           0       -2.508525    0.330876    0.400274
      5          7           0       -1.681383   -0.730092    0.528659
      6          1           0       -2.282829    2.324053   -0.583674
      7          1           0       -3.506060    0.291108    0.815856
      8          1           0        2.062986    2.050269    0.836074
      9          6           0        0.599109   -1.063443   -0.150280
     10          8           0        1.739687   -0.517049   -0.710941
     11          8           0        0.630606   -2.225449    0.217171
     12          8           0        2.893553    1.591391    0.620993
     13          1           0        1.817332    0.459350   -0.758403
     14          1           0        2.643975    0.657470    0.629726
 ---------------------------------------------------------------------
 Rotational constants (GHZ):           2.2522619           1.1907518           0.8613709
 Standard basis: 6-31+G(d,p) (6D, 7F)
 There are   196 symmetry adapted cartesian basis functions of A   symmetry.
 There are   196 symmetry adapted basis functions of A   symmetry.
   196 basis functions,   323 primitive gaussians,   196 cartesian basis functions
    35 alpha electrons       34 beta electrons
       nuclear repulsion energy       444.6400894820 Hartrees.
 NAtoms=   14 NActive=   14 NUniq=   14 SFac= 1.00D+00 NAtFMM=   60 NAOKFM=F Big=F
 Integral buffers will be    131072 words long.
 Raffenetti 2 integral format.
 Two-electron integral symmetry is turned on.
 One-electron integrals computed using PRISM.
 NBasis=   196 RedAO= T EigKep=  2.68D-05  NBF=   196
 NBsUse=   196 1.00D-06 EigRej= -1.00D+00 NBFU=   196
 Initial guess from the checkpoint file:  "/home/gau/soft/scratch/Gau-171113.chk"
 B after Tr=     0.000000    0.000000    0.000000
         Rot=    0.957072    0.007094   -0.062137    0.283022 Ang=  33.70 deg.
 Initial guess <Sx>= 0.0000 <Sy>= 0.0000 <Sz>= 0.5000 <S**2>= 0.7671 S= 0.5085
 ExpMin= 4.38D-02 ExpMax= 5.48D+03 ExpMxC= 8.25D+02 IAcc=3 IRadAn=         5 AccDes= 0.00D+00
 Harris functional with IExCor= 1009 and IRadAn=       5 diagonalized for initial guess.
 HarFok:  IExCor= 1009 AccDes= 0.00D+00 IRadAn=         5 IDoV= 1 UseB2=F ITyADJ=14
 ICtDFT=  3500011 ScaDFX=  1.000000  1.000000  1.000000  1.000000
 FoFCou: FMM=F IPFlag=           0 FMFlag=      100000 FMFlg1=           0
         NFxFlg=           0 DoJE=T BraDBF=F KetDBF=T FulRan=T
         wScrn=  0.000000 ICntrl=       500 IOpCl=  0 I1Cent=   200000004 NGrid=           0
         NMat0=    1 NMatS0=      1 NMatT0=    0 NMatD0=    1 NMtDS0=    0 NMtDT0=    0
 Petite list used in FoFCou.
 Requested convergence on RMS density matrix=1.00D-08 within 128 cycles.
 Requested convergence on MAX density matrix=1.00D-06.
 Requested convergence on             energy=1.00D-06.
 No special actions if energy rises.
 SCF Done:  E(UM062X) =  -507.058480660     A.U. after   19 cycles
            NFock= 19  Conv=0.52D-08     -V/T= 2.0084
 <Sx>= 0.0000 <Sy>= 0.0000 <Sz>= 0.5000 <S**2>= 0.7668 S= 0.5083
 <L.S>=  0.00000000000    
 Annihilation of the first spin contaminant:
 S**2 before annihilation     0.7668,   after     0.7502
 Calling FoFJK, ICntrl=      2127 FMM=F ISym2X=0 I1Cent= 0 IOpClX= 1 NMat=1 NMatS=1 NMatT=0.
 ***** Axes restored to original set *****
 -------------------------------------------------------------------
 Center     Atomic                   Forces (Hartrees/Bohr)
 Number     Number              X              Y              Z
 -------------------------------------------------------------------
      1        7          -0.005433572    0.009295494   -0.008635145
      2        7          -0.004820942   -0.002188915   -0.006860066
      3        6          -0.007127149   -0.000633490   -0.002018163
      4        6          -0.000162659   -0.000558222    0.001033319
      5        7          -0.001260663   -0.004262612    0.001004520
      6        1          -0.000237952    0.000259523   -0.000358252
      7        1          -0.000168795   -0.000423077    0.000282980
      8        1          -0.006925567   -0.000858343   -0.001470694
      9        6           0.010148924    0.004765769    0.008169057
     10        8           0.002550391    0.005691638   -0.006283967
     11        8          -0.004096093   -0.006980629   -0.001398990
     12        8           0.012130513    0.003010196   -0.000303697
     13        1           0.008671613   -0.000799054    0.023290697
     14        1          -0.003268049   -0.006318279   -0.006451598
 -------------------------------------------------------------------
 Cartesian Forces:  Max     0.023290697 RMS     0.006171273

 GradGradGradGradGradGradGradGradGradGradGradGradGradGradGradGradGradGrad
 Berny optimization.
 Using GEDIIS/GDIIS optimizer.
 FormGI is forming the generalized inverse of G from B-inverse, IUseBI=4.
 Internal  Forces:  Max     0.038690324 RMS     0.009862224
 Search for a local minimum.
 Step number   2 out of a maximum of   63
 All quantities printed in internal units (Hartrees-Bohrs-Radians)
 Mixed Optimization -- RFO/linear search
 Update second derivatives using D2CorX and points    1    2
 DE= -4.22D-03 DEPred=-9.65D-02 R= 4.37D-02
 Trust test= 4.37D-02 RLast= 4.99D-01 DXMaxT set to 1.50D-01
 ITU= -1  0
 Use linear search instead of GDIIS.
 Linear search step of   0.180 exceeds DXMaxT=   0.150 but not scaled.
 Quartic linear search produced a step of -0.59872.
 Iteration  1 RMS(Cart)=  0.29458476 RMS(Int)=  0.01605053
 Iteration  2 RMS(Cart)=  0.06354978 RMS(Int)=  0.00069814
 Iteration  3 RMS(Cart)=  0.00143436 RMS(Int)=  0.00007164
 Iteration  4 RMS(Cart)=  0.00000123 RMS(Int)=  0.00007164
 Iteration  5 RMS(Cart)=  0.00000000 RMS(Int)=  0.00007164
 Variable       Old X    -DE/DX   Delta X   Delta X   Delta X     New X
                                 (Linear)    (Quad)   (Total)
    R1        2.63403  -0.00522   0.00211   0.00000   0.00209   2.63612
    R2        2.60410  -0.00171  -0.00352   0.00000  -0.00353   2.60057
    R3        2.59634  -0.01854  -0.00955   0.00000  -0.00955   2.58679
    R4        2.57838  -0.00550  -0.00056   0.00000  -0.00055   2.57783
    R5        2.61165   0.00416   0.00146   0.00000   0.00147   2.61312
    R6        2.04196   0.00017  -0.00019   0.00000  -0.00019   2.04177
    R7        2.55379  -0.00029   0.00183   0.00000   0.00184   2.55563
    R8        2.04350   0.00004  -0.00009   0.00000  -0.00009   2.04341
    R9        1.83865  -0.00702   0.00544   0.00000   0.00544   1.84409
   R10        2.61425  -0.01342  -0.01406   0.00000  -0.01406   2.60019
   R11        2.30382   0.00664  -0.00034   0.00000  -0.00034   2.30347
   R12        1.85312  -0.00993  -0.00564   0.00000  -0.00564   1.84748
   R13        1.82686   0.00346  -0.00246   0.00000  -0.00246   1.82441
   R14        3.07596   0.00927  -0.06201   0.00000  -0.06201   3.01394
    A1        1.99712   0.00949   0.00757   0.00000   0.00762   2.00473
    A2        2.16218  -0.01618  -0.03321   0.00000  -0.03313   2.12905
    A3        2.12293   0.00660   0.02393   0.00000   0.02403   2.14696
    A4        1.78398  -0.00471  -0.00452   0.00000  -0.00455   1.77944
    A5        1.91622   0.00186  -0.00001   0.00000   0.00000   1.91622
    A6        2.10026  -0.00138   0.00015   0.00000   0.00015   2.10041
    A7        2.26649  -0.00047  -0.00014   0.00000  -0.00014   2.26635
    A8        1.93882   0.00041   0.00317   0.00000   0.00319   1.94201
    A9        2.25083   0.00033  -0.00178   0.00000  -0.00178   2.24905
   A10        2.09350  -0.00073  -0.00138   0.00000  -0.00138   2.09212
   A11        1.78842  -0.00702  -0.00612   0.00000  -0.00614   1.78228
   A12        2.06583  -0.03869  -0.06893   0.00000  -0.06882   1.99701
   A13        2.14659   0.02436   0.03623   0.00000   0.03633   2.18292
   A14        2.06839   0.01455   0.03404   0.00000   0.03415   2.10254
   A15        2.06935  -0.03423  -0.12092   0.00000  -0.12092   1.94843
   A16        1.80620   0.00216  -0.00497   0.00000  -0.00497   1.80124
   A17        1.69121   0.00426   0.03758   0.00000   0.03758   1.72879
   A18        1.81418  -0.00000  -0.04876   0.00000  -0.04876   1.76543
    D1        0.02046  -0.00108  -0.00714   0.00000  -0.00713   0.01333
    D2       -3.07466   0.00082   0.01897   0.00000   0.01926  -3.05540
    D3       -0.01817   0.00132   0.00860   0.00000   0.00857  -0.00960
    D4        3.07812  -0.00121  -0.02016   0.00000  -0.01983   3.05829
    D5        0.04656  -0.00211  -0.02010   0.00000  -0.02015   0.02641
    D6       -3.01967  -0.00620  -0.05472   0.00000  -0.05473  -3.07440
    D7       -3.04534  -0.00009   0.00900   0.00000   0.00901  -3.03634
    D8        0.17161  -0.00418  -0.02562   0.00000  -0.02557   0.14604
    D9       -0.01408   0.00047   0.00266   0.00000   0.00271  -0.01137
   D10       -3.13552   0.00030   0.00217   0.00000   0.00217  -3.13335
   D11        0.00403   0.00040   0.00258   0.00000   0.00251   0.00654
   D12       -3.12929  -0.00020  -0.00134   0.00000  -0.00136  -3.13064
   D13        3.12297   0.00058   0.00314   0.00000   0.00312   3.12609
   D14       -0.01035  -0.00002  -0.00078   0.00000  -0.00075  -0.01110
   D15        0.00820  -0.00108  -0.00653   0.00000  -0.00648   0.00172
   D16       -3.14083  -0.00053  -0.00301   0.00000  -0.00300   3.13936
   D17        0.38880  -0.01095  -0.11954   0.00000  -0.11958   0.26922
   D18       -2.82472  -0.00648  -0.08641   0.00000  -0.08638  -2.91109
   D19        1.64394  -0.00491  -0.13640   0.00000  -0.13640   1.50755
   D20        1.30949  -0.00063   0.02136   0.00000   0.02136   1.33085
   D21        2.99972   0.00626   0.10798   0.00000   0.10798   3.10770
         Item               Value     Threshold  Converged?
 Maximum Force            0.038690     0.000450     NO 
 RMS     Force            0.009862     0.000300     NO 
 Maximum Displacement     1.159599     0.001800     NO 
 RMS     Displacement     0.349329     0.001200     NO 
 Predicted change in Energy=-9.986820D-03
 GradGradGradGradGradGradGradGradGradGradGradGradGradGradGradGradGradGrad

                          Input orientation:                          
 ---------------------------------------------------------------------
 Center     Atomic      Atomic             Coordinates (Angstroms)
 Number     Number       Type             X           Y           Z
 ---------------------------------------------------------------------
      1          7           0        0.399333   -0.404782    0.030457
      2          7           0        0.604148    0.880487   -0.471627
      3          6           0        1.934837    1.066987   -0.236410
      4          6           0        2.461872   -0.050942    0.383762
      5          7           0        1.516927   -1.000548    0.568852
      6          1           0        2.413031    1.995707   -0.512458
      7          1           0        3.475882   -0.228526    0.714691
      8          1           0        0.255669    0.502419   -2.757747
      9          6           0       -0.803310   -1.047323   -0.090358
     10          8           0       -1.763713   -0.333845   -0.769952
     11          8           0       -1.064594   -2.139552    0.383557
     12          8           0       -0.630557    0.365659   -3.142689
     13          1           0       -1.373990    0.412083   -1.267441
     14          1           0       -0.992404   -0.355435   -2.612450
 ---------------------------------------------------------------------
                    Distance matrix (angstroms):
                    1          2          3          4          5
     1  N    0.000000
     2  N    1.394975   0.000000
     3  C    2.143617   1.364126   0.000000
     4  C    2.122286   2.247306   1.382803   0.000000
     5  N    1.376162   2.335391   2.257830   1.352380   0.000000
     6  H    3.179950   2.125427   1.080460   2.234807   3.309044
     7  H    3.156643   3.299108   2.226604   1.081326   2.110637
     8  H    2.935598   2.343229   3.081474   3.878482   3.862117
     9  C    1.368870   2.417179   3.462526   3.446589   2.412519
    10  O    2.307477   2.677754   3.990772   4.389380   3.605480
    11  O    2.297213   3.554810   4.434279   4.098567   2.827705
    12  O    3.423903   2.987326   3.939487   4.708771   4.500416
    13  H    2.344458   2.183060   3.527075   4.201750   3.704713
    14  H    2.987361   2.942721   4.029589   4.582797   4.102877
                    6          7          8          9         10
     6  H    0.000000
     7  H    2.753680   0.000000
     8  H    3.453324   4.791855   0.000000
     9  C    4.447814   4.430577   3.261610   0.000000
    10  O    4.789395   5.446889   2.954415   1.375962   0.000000
    11  O    5.476959   4.937367   4.311716   1.218946   2.253869
    12  O    4.340346   5.665269   0.975848   3.367950   2.720888
    13  H    4.173655   5.278303   2.210195   1.959864   0.977644
    14  H    4.640563   5.572392   1.521417   2.622101   1.997544
                   11         12         13         14
    11  O    0.000000
    12  O    4.347284   0.000000
    13  H    3.054891   2.017771   0.000000
    14  H    3.487742   0.965434   1.594911   0.000000
 Stoichiometry    C3H5N3O3(1-,2)
 Framework group  C1[X(C3H5N3O3)]
 Deg. of freedom    36
 Full point group                 C1      NOp   1
 Largest Abelian subgroup         C1      NOp   1
 Largest concise Abelian subgroup C1      NOp   1
                         Standard orientation:                         
 ---------------------------------------------------------------------
 Center     Atomic      Atomic             Coordinates (Angstroms)
 Number     Number       Type             X           Y           Z
 ---------------------------------------------------------------------
      1          7           0       -0.349034   -0.428308   -0.125230
      2          7           0       -0.566980    0.838978   -0.666007
      3          6           0       -1.880483    1.052185   -0.365851
      4          6           0       -2.392717   -0.045895    0.300467
      5          7           0       -1.450588   -1.001562    0.467881
      6          1           0       -2.366942    1.969278   -0.665337
      7          1           0       -3.395851   -0.207962    0.670227
      8          1           0        0.781853    2.137980    0.742525
      9          6           0        0.891103   -1.007703   -0.112369
     10          8           0        1.890442   -0.224456   -0.642574
     11          8           0        1.133542   -2.134786    0.283529
     12          8           0        1.755641    2.149432    0.680194
     13          1           0        1.611393    0.708861   -0.725277
     14          1           0        1.991350    1.215043    0.738674
 ---------------------------------------------------------------------
 Rotational constants (GHZ):           2.1056895           1.4951703           0.9761970
 Standard basis: 6-31+G(d,p) (6D, 7F)
 There are   196 symmetry adapted cartesian basis functions of A   symmetry.
 There are   196 symmetry adapted basis functions of A   symmetry.
   196 basis functions,   323 primitive gaussians,   196 cartesian basis functions
    35 alpha electrons       34 beta electrons
       nuclear repulsion energy       455.9217284144 Hartrees.
 NAtoms=   14 NActive=   14 NUniq=   14 SFac= 1.00D+00 NAtFMM=   60 NAOKFM=F Big=F
 Integral buffers will be    131072 words long.
 Raffenetti 2 integral format.
 Two-electron integral symmetry is turned on.
 One-electron integrals computed using PRISM.
 NBasis=   196 RedAO= T EigKep=  2.63D-05  NBF=   196
 NBsUse=   196 1.00D-06 EigRej= -1.00D+00 NBFU=   196
 Lowest energy guess from the checkpoint file:  "/home/gau/soft/scratch/Gau-171113.chk"
 B after Tr=     0.000000   -0.000000    0.000000
         Rot=    0.984219    0.014603   -0.026797    0.174303 Ang=  20.38 deg.
 B after Tr=    -0.000000   -0.000000    0.000000
         Rot=    0.992963    0.010411    0.032913   -0.113285 Ang=  13.60 deg.
 Initial guess <Sx>= 0.0000 <Sy>= 0.0000 <Sz>= 0.5000 <S**2>= 0.7665 S= 0.5082
 Requested convergence on RMS density matrix=1.00D-08 within 128 cycles.
 Requested convergence on MAX density matrix=1.00D-06.
 Requested convergence on             energy=1.00D-06.
 No special actions if energy rises.
 SCF Done:  E(UM062X) =  -507.068624370     A.U. after   16 cycles
            NFock= 16  Conv=0.95D-08     -V/T= 2.0082
 <Sx>= 0.0000 <Sy>= 0.0000 <Sz>= 0.5000 <S**2>= 0.7664 S= 0.5082
 <L.S>=  0.00000000000    
 Annihilation of the first spin contaminant:
 S**2 before annihilation     0.7664,   after     0.7501
 Calling FoFJK, ICntrl=      2127 FMM=F ISym2X=0 I1Cent= 0 IOpClX= 1 NMat=1 NMatS=1 NMatT=0.
 ***** Axes restored to original set *****
 -------------------------------------------------------------------
 Center     Atomic                   Forces (Hartrees/Bohr)
 Number     Number              X              Y              Z
 -------------------------------------------------------------------
      1        7          -0.002702269    0.004438972   -0.005104381
      2        7          -0.000264544   -0.001380620   -0.004046925
      3        6          -0.003972271   -0.000946626    0.000025864
      4        6           0.000985076   -0.000668167    0.000970873
      5        7           0.000043500   -0.002399367    0.001540294
      6        1          -0.000081126    0.000256692   -0.000159675
      7        1           0.000004692   -0.000270557    0.000192055
      8        1          -0.007825487    0.002759050    0.000801334
      9        6           0.003659217    0.003751798    0.004729072
     10        8           0.001635307   -0.000071936   -0.001620166
     11        8          -0.001619697   -0.003512807   -0.000112762
     12        8           0.009526937   -0.001352256   -0.004175635
     13        1           0.000116543    0.004309233    0.016444669
     14        1           0.000494122   -0.004913411   -0.009484619
 -------------------------------------------------------------------
 Cartesian Forces:  Max     0.016444669 RMS     0.004230765

 GradGradGradGradGradGradGradGradGradGradGradGradGradGradGradGradGradGrad
 Berny optimization.
 Using GEDIIS/GDIIS optimizer.
 FormGI is forming the generalized inverse of G from B-inverse, IUseBI=4.
 Internal  Forces:  Max     0.013055512 RMS     0.003725783
 Search for a local minimum.
 Step number   3 out of a maximum of   63
 All quantities printed in internal units (Hartrees-Bohrs-Radians)
 Mixed Optimization -- RFO/linear search
 Update second derivatives using D2CorX and points    1    2    3
 ITU=  0 -1  0
 Use linear search instead of GDIIS.
     Eigenvalues ---    0.00259   0.01225   0.01539   0.01617   0.01921
     Eigenvalues ---    0.02094   0.02144   0.02192   0.02265   0.02280
     Eigenvalues ---    0.02311   0.05195   0.12897   0.15997   0.16000
     Eigenvalues ---    0.16000   0.16000   0.18317   0.22561   0.24603
     Eigenvalues ---    0.24868   0.24972   0.34874   0.35839   0.35947
     Eigenvalues ---    0.42299   0.46080   0.48575   0.50682   0.50764
     Eigenvalues ---    0.51698   0.52076   0.53180   0.54460   0.56673
     Eigenvalues ---    0.96076
 RFO step:  Lambda=-1.20389983D-02 EMin= 2.58816166D-03
 Quartic linear search produced a step of  0.07622.
 Maximum step size (   0.150) exceeded in Quadratic search.
    -- Step size scaled by   0.629
 Iteration  1 RMS(Cart)=  0.17459250 RMS(Int)=  0.01937081
 Iteration  2 RMS(Cart)=  0.03296625 RMS(Int)=  0.00169371
 Iteration  3 RMS(Cart)=  0.00186941 RMS(Int)=  0.00006543
 Iteration  4 RMS(Cart)=  0.00000752 RMS(Int)=  0.00006523
 Iteration  5 RMS(Cart)=  0.00000000 RMS(Int)=  0.00006523
 Variable       Old X    -DE/DX   Delta X   Delta X   Delta X     New X
                                 (Linear)    (Quad)   (Total)
    R1        2.63612  -0.00214   0.00016  -0.00199  -0.00183   2.63429
    R2        2.60057   0.00087  -0.00027   0.00000  -0.00026   2.60031
    R3        2.58679  -0.00630  -0.00073  -0.01013  -0.01086   2.57593
    R4        2.57783  -0.00214  -0.00004  -0.00262  -0.00267   2.57516
    R5        2.61312   0.00210   0.00011   0.00311   0.00322   2.61633
    R6        2.04177   0.00023  -0.00001   0.00032   0.00031   2.04208
    R7        2.55563  -0.00057   0.00014   0.00016   0.00030   2.55593
    R8        2.04341   0.00011  -0.00001   0.00016   0.00015   2.04356
    R9        1.84409  -0.00640   0.00041  -0.00556  -0.00515   1.83894
   R10        2.60019  -0.00335  -0.00107  -0.00849  -0.00956   2.59063
   R11        2.30347   0.00345  -0.00003   0.00199   0.00196   2.30544
   R12        1.84748  -0.00029  -0.00043  -0.00176  -0.00219   1.84529
   R13        1.82441   0.00354  -0.00019   0.00310   0.00292   1.82732
   R14        3.01394   0.01306  -0.00473   0.12176   0.11704   3.13098
    A1        2.00473   0.00344   0.00058   0.00973   0.01025   2.01499
    A2        2.12905  -0.00266  -0.00253  -0.01557  -0.01812   2.11093
    A3        2.14696  -0.00084   0.00183   0.00500   0.00679   2.15375
    A4        1.77944  -0.00218  -0.00035  -0.00720  -0.00757   1.77186
    A5        1.91622   0.00164   0.00000   0.00425   0.00422   1.92045
    A6        2.10041  -0.00104   0.00001  -0.00281  -0.00279   2.09762
    A7        2.26635  -0.00059  -0.00001  -0.00135  -0.00135   2.26500
    A8        1.94201  -0.00056   0.00024  -0.00020   0.00002   1.94202
    A9        2.24905   0.00060  -0.00014   0.00115   0.00103   2.25008
   A10        2.09212  -0.00003  -0.00011  -0.00094  -0.00103   2.09108
   A11        1.78228  -0.00232  -0.00047  -0.00637  -0.00686   1.77543
   A12        1.99701  -0.00830  -0.00525  -0.03851  -0.04396   1.95304
   A13        2.18292   0.00586   0.00277   0.02382   0.02638   2.20930
   A14        2.10254   0.00251   0.00260   0.01591   0.01830   2.12084
   A15        1.94843  -0.00316  -0.00922  -0.04130  -0.05051   1.89792
   A16        1.80124   0.00029  -0.00038  -0.00083  -0.00121   1.80002
   A17        1.72879   0.00713   0.00286   0.03793   0.04080   1.76958
   A18        1.76543   0.00140  -0.00372  -0.00921  -0.01292   1.75250
    D1        0.01333  -0.00088  -0.00054  -0.01678  -0.01737  -0.00403
    D2       -3.05540   0.00007   0.00147  -0.00461  -0.00325  -3.05865
    D3       -0.00960   0.00088   0.00065   0.01625   0.01697   0.00737
    D4        3.05829  -0.00017  -0.00151   0.00298   0.00131   3.05960
    D5        0.02641  -0.00186  -0.00154  -0.03295  -0.03442  -0.00801
    D6       -3.07440  -0.00400  -0.00417  -0.06787  -0.07206   3.13672
    D7       -3.03634  -0.00100   0.00069  -0.01988  -0.01917  -3.05550
    D8        0.14604  -0.00315  -0.00195  -0.05479  -0.05681   0.08923
    D9       -0.01137   0.00051   0.00021   0.01011   0.01026  -0.00111
   D10       -3.13335   0.00028   0.00017   0.00542   0.00556  -3.12779
   D11        0.00654   0.00001   0.00019  -0.00085  -0.00063   0.00591
   D12       -3.13064  -0.00022  -0.00010  -0.00439  -0.00447  -3.13511
   D13        3.12609   0.00027   0.00024   0.00441   0.00464   3.13073
   D14       -0.01110   0.00004  -0.00006   0.00087   0.00080  -0.01030
   D15        0.00172  -0.00052  -0.00049  -0.00894  -0.00941  -0.00769
   D16        3.13936  -0.00032  -0.00023  -0.00575  -0.00596   3.13339
   D17        0.26922  -0.00753  -0.00911  -0.12611  -0.13512   0.13410
   D18       -2.91109  -0.00539  -0.00658  -0.09267  -0.09936  -3.01045
   D19        1.50755  -0.00322  -0.01040  -0.04115  -0.05154   1.45600
   D20        1.33085  -0.00958   0.00163  -0.23982  -0.23819   1.09266
   D21        3.10770  -0.00256   0.00823  -0.21838  -0.21015   2.89755
         Item               Value     Threshold  Converged?
 Maximum Force            0.013056     0.000450     NO 
 RMS     Force            0.003726     0.000300     NO 
 Maximum Displacement     0.700592     0.001800     NO 
 RMS     Displacement     0.195238     0.001200     NO 
 Predicted change in Energy=-6.524430D-03
 GradGradGradGradGradGradGradGradGradGradGradGradGradGradGradGradGradGrad

                          Input orientation:                          
 ---------------------------------------------------------------------
 Center     Atomic      Atomic             Coordinates (Angstroms)
 Number     Number       Type             X           Y           Z
 ---------------------------------------------------------------------
      1          7           0        0.349901   -0.447506    0.023797
      2          7           0        0.543635    0.771922   -0.623291
      3          6           0        1.870059    0.990659   -0.400253
      4          6           0        2.404960   -0.051181    0.338194
      5          7           0        1.467900   -0.985182    0.619133
      6          1           0        2.343225    1.887395   -0.774046
      7          1           0        3.419380   -0.185167    0.688108
      8          1           0        0.222437    0.873156   -2.507257
      9          6           0       -0.850338   -1.090753   -0.037600
     10          8           0       -1.769083   -0.389705   -0.775040
     11          8           0       -1.130652   -2.158169    0.482407
     12          8           0       -0.440749    0.431325   -3.065770
     13          1           0       -1.319702    0.366134   -1.199648
     14          1           0       -0.677844   -0.350540   -2.548548
 ---------------------------------------------------------------------
                    Distance matrix (angstroms):
                    1          2          3          4          5
     1  N    0.000000
     2  N    1.394008   0.000000
     3  C    2.135185   1.362716   0.000000
     4  C    2.116409   2.250885   1.384504   0.000000
     5  N    1.376024   2.342071   2.259386   1.352541   0.000000
     6  H    3.172011   2.122624   1.080621   2.235836   3.310414
     7  H    3.151481   3.302377   2.228786   1.081406   2.110226
     8  H    2.857731   1.913829   2.677299   3.703295   3.844335
     9  C    1.363125   2.399114   3.444466   3.437862   2.411777
    10  O    2.265297   2.592502   3.910143   4.333188   3.574404
    11  O    2.308404   3.551230   4.438296   4.118343   2.854306
    12  O    3.308005   2.655319   3.571788   4.462941   4.384968
    13  H    2.224050   1.992203   3.347184   4.051199   3.592317
    14  H    2.771754   2.541366   3.592463   4.233978   3.878297
                    6          7          8          9         10
     6  H    0.000000
     7  H    2.755270   0.000000
     8  H    2.920692   4.642288   0.000000
     9  C    4.428381   4.424616   3.332715   0.000000
    10  O    4.700666   5.394699   2.926012   1.370904   0.000000
    11  O    5.478419   4.963652   4.467423   1.219984   2.261908
    12  O    3.888785   5.419617   0.973123   3.413839   2.772365
    13  H    3.989036   5.130931   2.084492   1.921764   0.976487
    14  H    4.157411   5.224034   1.519751   2.623457   2.082707
                   11         12         13         14
    11  O    0.000000
    12  O    4.446460   0.000000
    13  H    3.039268   2.063788   0.000000
    14  H    3.557983   0.966977   1.656844   0.000000
 Stoichiometry    C3H5N3O3(1-,2)
 Framework group  C1[X(C3H5N3O3)]
 Deg. of freedom    36
 Full point group                 C1      NOp   1
 Largest Abelian subgroup         C1      NOp   1
 Largest concise Abelian subgroup C1      NOp   1
[...]
 ! A13   A(1,9,11)             126.4514         -DE/DX =    0.0                 !
 ! A14   A(10,9,11)            121.7697         -DE/DX =    0.0                 !
 ! A15   A(9,10,13)            107.0122         -DE/DX =    0.0                 !
 ! A16   A(8,12,14)            103.0161         -DE/DX =    0.0                 !
 ! A17   A(10,13,14)            80.8071         -DE/DX =    0.0                 !
 ! A18   A(12,14,13)           100.7252         -DE/DX =    0.0                 !
 ! D1    D(5,1,2,3)             -0.4823         -DE/DX =    0.0                 !
 ! D2    D(9,1,2,3)            174.3119         -DE/DX =    0.0                 !
 ! D3    D(2,1,5,4)              0.2127         -DE/DX =    0.0                 !
 ! D4    D(9,1,5,4)           -174.3921         -DE/DX =    0.0                 !
 ! D5    D(2,1,9,10)            -0.7232         -DE/DX =    0.0                 !
 ! D6    D(2,1,9,11)           178.2613         -DE/DX =    0.0                 !
 ! D7    D(5,1,9,10)           173.5959         -DE/DX =    0.0                 !
 ! D8    D(5,1,9,11)            -7.4195         -DE/DX =    0.0                 !
 ! D9    D(1,2,3,4)              0.5468         -DE/DX =    0.0                 !
 ! D10   D(1,2,3,6)            179.4325         -DE/DX =    0.0                 !
 ! D11   D(2,3,4,5)             -0.4751         -DE/DX =    0.0                 !
 ! D12   D(2,3,4,7)            179.4294         -DE/DX =    0.0                 !
 ! D13   D(6,3,4,5)           -179.2227         -DE/DX =    0.0                 !
 ! D14   D(6,3,4,7)              0.6819         -DE/DX =    0.0                 !
 ! D15   D(3,4,5,1)              0.156          -DE/DX =    0.0                 !
 ! D16   D(7,4,5,1)           -179.7582         -DE/DX =    0.0                 !
 ! D17   D(1,9,10,13)          -10.8422         -DE/DX =    0.0                 !
 ! D18   D(11,9,10,13)         170.1185         -DE/DX =    0.0                 !
 ! D19   D(9,10,13,14)          99.5495         -DE/DX =    0.0                 !
 ! D20   D(8,12,14,13)          31.2951         -DE/DX =    0.0                 !
 ! D21   D(10,13,14,12)       -164.1952         -DE/DX =    0.0                 !
 --------------------------------------------------------------------------------
 GradGradGradGradGradGradGradGradGradGradGradGradGradGradGradGradGradGrad


 ----------------------------------------------------------------------

 Electric dipole moment (input orientation):
 (Debye = 10**-18 statcoulomb cm , SI units = C m)
                  (au)            (Debye)         (10**-30 SI)
   Tot        0.139550D+01      0.354702D+01      0.118316D+02
   x          0.581065D+00      0.147692D+01      0.492647D+01
   y          0.126764D+01      0.322203D+01      0.107475D+02
   z          0.536433D-01      0.136348D+00      0.454807D+00

 Dipole polarizability, Alpha (input orientation).
 (esu units = cm**3 , SI units = C**2 m**2 J**-1)
 Alpha(0;0):
               (au)            (10**-24 esu)      (10**-40 SI)
   iso        0.862910D+02      0.127870D+02      0.142275D+02
   aniso      0.498270D+02      0.738359D+01      0.821536D+01
   xx         0.102778D+03      0.152302D+02      0.169459D+02
   yx         0.174711D+02      0.258896D+01      0.288060D+01
   yy         0.874230D+02      0.129548D+02      0.144141D+02
   zx         0.895821D+01      0.132747D+01      0.147701D+01
   zy        -0.122599D+02     -0.181673D+01     -0.202138D+01
   zz         0.686715D+02      0.101761D+02      0.113224D+02

 ----------------------------------------------------------------------

 Dipole orientation:
     7          1.06324242         -0.39146788         -0.52353446
     7          0.93800410          0.95150862          1.74316946
     6          2.52796404         -0.40793784          3.24891251
     6          3.52761560         -2.41129612          1.89959485
     7          2.63622869         -2.45930067         -0.49631840
     1          2.86570034          0.16793623          5.17831678
     1          4.85419832         -3.83676547          2.51890208
     1          1.79517496          4.52469101          0.90092179
     6         -0.45582811          0.23673466         -2.51259573
     8         -2.01654078          2.22329897         -1.93962119
     8         -0.47232249         -0.75857111         -4.58963375
     8          1.77874802          6.14227220          0.00697946
     1         -1.89020098          2.50118588         -0.12141754
     1          0.90282294          5.74661429         -1.54172114

 Electric dipole moment (dipole orientation):
 (Debye = 10**-18 statcoulomb cm , SI units = C m)
                  (au)            (Debye)         (10**-30 SI)
   Tot        0.139550D+01      0.354702D+01      0.118316D+02
   x          0.000000D+00      0.000000D+00      0.000000D+00
   y          0.000000D+00      0.000000D+00      0.000000D+00
   z          0.139550D+01      0.354702D+01      0.118316D+02

 Dipole polarizability, Alpha (dipole orientation).
 (esu units = cm**3 , SI units = C**2 m**2 J**-1)
 Alpha(0;0):
               (au)            (10**-24 esu)      (10**-40 SI)
   iso        0.862910D+02      0.127870D+02      0.142275D+02
   aniso      0.498270D+02      0.738359D+01      0.821536D+01
   xx         0.742925D+02      0.110090D+02      0.122492D+02
   yx        -0.148724D+02     -0.220386D+01     -0.245212D+01
   yy         0.818759D+02      0.121328D+02      0.134995D+02
   zx         0.197399D+02      0.292515D+01      0.325466D+01
   zy         0.545376D+00      0.808165D-01      0.899204D-01
   zz         0.102704D+03      0.152192D+02      0.169337D+02

 ----------------------------------------------------------------------
 Unable to Open any file for archive entry.
 1\1\GINC-NODE01\Freq\UM062X\6-31+G(d,p)\C3H5N3O3(1-,2)\GAU\07-Dec-2023
 \0\\#N Geom=AllCheck Guess=TCheck SCRF=Check GenChk UM062X/6-31+G(d,p)
  Freq\\PC\\-1,2\N,0.4288031282,-0.4991406382,-0.0567494339\N,0.6141920
 043,0.7605547715,-0.6286040337\C,1.9088897766,1.0301394,-0.2948323764\
 C,2.4383874686,-0.0288907326,0.4204548989\N,1.5267755727,-1.0139961326
 ,0.5912022503\H,2.3719033757,1.9550848996,-0.6068202532\H,3.4343890959
 ,-0.1418207156,0.8259643832\H,0.1177690085,0.5788539648,-2.5522063477\
 C,-0.8001970718,-1.0941959187,-0.0644692672\O,-1.7448487362,-0.3020324
 479,-0.6638513811\O,-1.0732856207,-2.1976135916,0.3753503577\O,-0.3982
 216603,0.3281265791,-3.3443293802\H,-1.3420915363,0.5778163274,-0.7882
 82002\H,-1.0493345252,-0.2904976053,-2.9926410446\\Version=ES64L-G16Re
 vC.01\State=2-A\HF=-507.0817829\S2=0.765574\S2-1=0.\S2A=0.750118\RMSD=
 2.677e-09\RMSF=1.473e-05\ZeroPoint=0.0970637\Thermal=0.1063837\ETot=-5
 06.9753993\HTot=-506.9744551\GTot=-507.0205879\Dipole=0.5810647,1.2676
 432,0.0536433\DipoleDeriv=-0.7112227,-0.3815053,-0.0137324,-0.2906056,
 -0.2506245,-0.0453278,0.0061229,-0.0008319,-0.0524967,-0.5482853,0.483
 8781,-0.4190539,-0.1524512,-0.399931,0.0461521,-0.1079917,0.2945373,-0
 .614239,0.1375553,-0.2835389,0.3551826,0.0630129,-0.124768,-0.0630793,
 0.1227083,-0.2074237,-0.1110729,0.0176009,0.2316696,-0.0517488,-0.0755
 923,0.3443772,-0.263834,0.1113052,-0.181829,-0.0945026,-0.3158438,-0.2
 743867,0.1275205,0.2965717,-0.5620909,0.25848,-0.1808096,0.0619837,-0.
 3149507,0.033965,-0.0939546,-0.0090452,-0.1067494,-0.0321593,0.0756379
 ,0.0004442,0.0895308,0.1457195,-0.1078269,-0.0127509,-0.0940168,0.0021
 056,0.0993777,0.0397478,-0.1016475,0.0266587,0.1252753,0.3146501,-0.04
 6112,0.2078557,0.0129459,0.2382255,0.1033699,0.1813929,-0.0758973,0.72
 66557,2.1399358,0.6003365,0.1821942,0.8170742,2.0172431,-0.6123973,0.0
 203322,-0.6655302,0.6615919,-1.0846701,0.1425317,-0.2109353,0.440107,-
 0.5880146,0.2071848,-0.3671238,0.147559,-0.64612,-0.9065996,-0.3714864
 ,0.0585781,-1.0376888,-1.6369012,0.3013498,0.3946428,0.4520033,-0.5815
 361,-0.6516251,0.1040798,-0.1805628,0.0564108,-0.5764979,-0.1404383,-0
 .1991178,-0.0091744,-0.9132488,0.411657,-0.0552471,0.0220058,0.0227738
 ,0.2381908,0.0259087,0.0117381,-0.0012524,0.3251687,0.2707093,-0.04351
 38,0.0257582,-0.0479146,0.233573,0.0672456,0.1080039,0.0696662,0.34375
 56\Polar=102.7783836,17.4711424,87.4230234,8.9582071,-12.2598707,68.67
 15152\Quadrupole=3.4823152,0.863467,-4.3457822,-1.9940362,-0.5156475,6
 .7674743\PG=C01 [X(C3H5N3O3)]\NImag=0\\0.79363864,0.17184794,0.5215503
 3,0.13124948,-0.17804666,0.20400432,-0.09412935,-0.03970134,0.00187467
 ,0.49951903,0.01610672,-0.17163446,0.07822533,0.06269561,0.30859247,-0
 .02667929,0.05359539,-0.07352841,0.12613860,-0.10593042,0.16747072,-0.
 05559386,-0.05602125,0.00707431,-0.29593836,-0.05720947,-0.06252405,0.
 57234026,-0.04394807,-0.04944999,0.01022604,-0.01640061,-0.08703023,0.
 01816819,0.13187627,0.71935431,0.00130569,0.00513158,0.00024496,-0.082
 44827,0.00340654,-0.07418337,0.10315131,-0.26980679,0.27140159,-0.0981
 9034,-0.01823080,-0.02599659,-0.07590827,-0.00231076,-0.03449494,-0.11
 491761,0.10186271,-0.06921725,0.76703620,-0.03296542,-0.00569561,-0.00
 694460,0.02546530,0.00607766,0.01464932,0.09189721,-0.23124092,0.12130
 226,-0.00463307,0.51124693,-0.01980340,-0.00200667,-0.00206522,-0.0483
 6721,0.00559651,-0.00002949,-0.06413978,0.12230991,-0.14273293,0.23359
 117,-0.20326883,0.29258608,-0.16646438,0.06411298,-0.07401141,-0.00431
 916,0.02338661,-0.01328051,0.00163875,-0.06033635,0.02070351,-0.185643
 98,-0.12740755,0.01515734,0.41230686,0.00215972,-0.11432416,0.04047295
 ,0.01833077,-0.02679013,0.02191633,-0.02150453,-0.07925425,0.04269820,
 -0.09793540,-0.20920443,0.04760040,0.10695674,0.40569442,-0.04734314,0
 .06491512,-0.08422212,-0.01011910,0.02065184,-0.01613039,0.00216775,0.
 03069441,0.00965854,-0.00019774,0.03584670,-0.06645692,0.06701281,-0.1
 3638624,0.15384693,-0.00762174,-0.00284064,-0.00271910,-0.00713823,-0.
 02432906,0.01205169,-0.10457974,-0.10966710,0.02650293,0.01141560,0.01
 104054,-0.00115144,-0.00094773,0.00247308,-0.00382479,0.10852341,0.000
 17877,0.00109307,0.00200209,-0.00006071,-0.00241777,-0.00176203,-0.114
 02556,-0.27386202,0.08961116,-0.01317673,-0.00908308,-0.00059983,0.000
 60353,-0.00007583,0.00351337,0.12566397,0.28515674,-0.00466099,0.00102
 866,0.00261896,-0.00048315,-0.01029734,-0.00040095,0.02894617,0.091850
 40,-0.05823354,0.01086601,0.00708680,-0.00110005,-0.00245417,0.0043181
 5,0.00347115,-0.03241594,-0.09274159,0.05444509,-0.00322164,-0.0034729
 3,-0.00123169,0.00105079,-0.00111511,-0.00164187,-0.00266884,-0.002920
 06,0.00085915,-0.30406283,0.02827191,-0.11165423,-0.01570287,0.0047131
 3,-0.00589243,-0.00052345,0.00084763,0.00018504,0.32537214,-0.00749193
 ,-0.00335993,0.00231682,0.00097676,-0.00269803,0.00524982,0.02120654,0
 .00673520,0.00363171,0.03235949,-0.05720736,0.02664055,-0.01882743,0.0
 0609044,-0.01275780,-0.00039956,-0.00067867,-0.00092569,-0.02705130,0.
 04969127,0.00044787,0.00362429,0.00450871,-0.00251630,0.00443060,0.003
 93881,-0.01147218,-0.00495471,-0.00252572,-0.11341590,0.02541169,-0.07
 832017,0.00603172,-0.00455442,-0.00157851,0.00080543,-0.00052326,-0.00
 174285,0.12014998,-0.02349596,0.07501931,-0.00124371,0.00072660,0.0000
 4822,-0.00208592,-0.00085947,0.00607727,-0.00392577,0.00033668,-0.0028
 0134,0.00003006,-0.00000118,-0.00007238,-0.00078133,-0.00053892,0.0000
 5516,-0.00006264,-0.00018149,-0.00013645,-0.00000112,0.00001973,-0.000
 02963,0.17156076,0.00137137,-0.00095821,0.00271469,-0.00100718,-0.0043
 3785,0.00021773,-0.00086740,-0.00024168,-0.00092603,0.00016022,0.00004
 392,0.00009090,0.00004454,-0.00139990,0.00075763,-0.00028085,-0.000090
 91,-0.00008954,0.00000381,-0.00003158,0.00010667,0.08743923,0.06851041
 ,-0.00096968,0.00397372,-0.00201622,0.00402319,0.00228105,0.00797228,-
 0.00649754,-0.00180620,-0.00095718,0.00277215,-0.00103154,0.00096104,0
 .00040977,-0.00174980,0.00091694,0.00010489,0.00056808,0.00031066,0.00
 029044,-0.00029849,-0.00002823,0.18308716,0.08478836,0.30609262,-0.284
 00431,-0.09960055,-0.02160013,-0.01975658,-0.01325689,0.00242463,0.010
 99180,0.00643663,0.00227153,-0.00119994,0.00808730,-0.00390336,-0.0370
 8204,-0.00811041,-0.00304675,0.00220754,0.00066209,0.00024829,0.001103
 95,0.00026326,-0.00008772,0.00682510,0.00074534,0.00646462,0.62080098,
 -0.08508475,-0.14623974,0.02698133,-0.03194178,-0.00670705,-0.00733012
 ,0.00492035,-0.00932120,0.00520384,0.00724944,-0.00066197,0.00331160,0
 .01440590,0.00542890,-0.00010378,-0.00091267,0.00025931,-0.00010839,0.
 00159811,0.00157960,0.00046573,-0.00066327,0.00011938,0.00396342,0.169
 05544,0.90158831,-0.02092152,0.02777321,-0.06120893,0.01068783,-0.0011
 5412,0.00068355,0.00104084,0.00426626,-0.00339695,-0.00461754,0.003437
 17,-0.00332351,-0.01910561,-0.00926684,-0.00346564,0.00053970,0.000369
 24,0.00078508,-0.00097637,-0.00051642,0.00055754,0.00246226,0.00197652
 ,-0.00067434,0.04341291,-0.29656288,0.30603681,-0.06142524,0.02851268,
 -0.03005340,-0.00431269,-0.00555168,0.00156621,-0.00354117,0.00109901,
 -0.00092337,-0.00180535,0.00266771,-0.00232201,-0.00463456,-0.00787501
 ,0.00149643,-0.00039432,-0.00033808,0.00008415,-0.00100690,-0.00065930
 ,-0.00023861,-0.00243971,0.00006328,-0.00365831,-0.19449309,0.02205092
 ,-0.05480413,0.37697710,0.00479069,0.00155095,0.00134206,-0.02419668,0
 .00072179,-0.00792653,0.00707746,0.00542524,0.00241125,-0.00397849,0.0
 0066535,-0.00095463,0.00467901,-0.00122327,0.00509362,0.00029467,-0.00
 001909,0.00003733,0.00020098,0.00030924,-0.00032200,0.00278714,-0.0001
 4968,0.00078694,0.06338547,-0.14234898,0.05845395,0.09212998,0.5725490
 5,-0.01724479,0.01015197,0.00262849,0.01052498,-0.00257978,0.00483696,
 -0.00476077,-0.00163926,-0.00019563,0.00114779,0.00058970,0.00149092,-
 0.00553817,0.00243633,0.00099745,-0.00022142,-0.00020450,-0.00017903,-
 0.00015760,-0.00045157,-0.00023427,-0.00506863,-0.00185483,-0.00277063
 ,-0.06804285,0.04320102,-0.08544625,0.08274155,-0.14324853,0.10832880,
 -0.01350942,-0.05197676,0.01904782,-0.00177695,-0.00062928,-0.00128813
 ,-0.00204426,-0.00355001,0.00056310,0.00073917,-0.00250005,0.00149497,
 0.00251512,0.00161206,0.00005535,-0.00095390,-0.00046196,-0.00011710,-
 0.00036824,-0.00006327,-0.00006782,-0.00173700,-0.00035819,-0.00209154
 ,-0.12986957,-0.12764309,0.04254239,0.02249294,0.03633150,-0.01284496,
 0.13012629,-0.02462676,-0.03482714,0.02182770,0.00237678,-0.01628495,0
 .01211007,-0.00513948,0.00121419,-0.00181131,-0.00173008,-0.00522696,0
 .00124713,-0.00706640,0.01688468,-0.01277504,-0.00098781,-0.00032313,-
 0.00013079,-0.00081079,-0.00025733,-0.00026016,-0.00183854,-0.00122605
 ,-0.00482211,-0.12637891,-0.57258863,0.20207597,0.01416248,-0.05139749
 ,0.02962796,0.14767874,0.66375651,0.00652297,0.01134441,0.00766696,-0.
 00219158,0.00883726,-0.00153608,0.00168960,-0.00051320,0.00229276,0.00
 135766,0.00183698,-0.00051086,0.00463512,-0.00825269,0.00430254,0.0002
 7269,0.00008651,0.00017441,0.00030041,0.00013936,0.00011382,0.00048745
 ,0.00017423,0.00151122,0.03994891,0.20237652,-0.14484815,-0.00255636,0
 .03822791,-0.00447725,-0.04504294,-0.25500271,0.13591010,0.00144784,-0
 .00138254,0.00033943,-0.00090577,-0.00044507,-0.00967007,0.00325867,-0
 .00002582,0.00083321,-0.00045054,0.00030971,-0.00008101,0.00075096,0.0
 0022488,-0.00006673,-0.00000059,0.00005732,0.00012311,-0.00004545,0.00
 009258,0.00011310,-0.14814063,-0.06804749,-0.20086847,-0.00802803,0.00
 081235,-0.00151899,0.00392329,-0.00326351,0.00622049,0.00197759,0.0015
 8619,-0.00042984,0.39783198,-0.00070917,0.00019149,-0.00041180,-0.0016
 9322,0.00205598,-0.00375482,0.00144659,0.00049390,0.00040573,-0.000552
 51,-0.00004771,-0.00012909,0.00001356,0.00113803,-0.00057066,0.0001769
 9,0.00000152,0.00005013,-0.00002217,0.00005054,-0.00006263,-0.07748071
 ,-0.05403648,-0.09662219,-0.00084023,-0.00185063,-0.00142125,-0.000364
 06,0.00136617,0.00126438,0.00042814,0.00223466,-0.00020680,0.30455568,
 0.27234575,0.00041190,-0.00277748,0.00087714,-0.00859920,-0.00405966,-
 0.01576054,0.00432750,0.00134582,-0.00036615,-0.00222393,0.00081754,-0
 .00065234,-0.00058079,0.00109629,-0.00081488,-0.00014381,-0.00045410,-
 0.00020577,-0.00030005,0.00025930,0.00005778,-0.16095570,-0.06286728,-
 0.32203044,-0.00133374,-0.00470444,0.00341094,0.00271065,0.00147362,-0
 .00517366,0.00104397,0.00393765,-0.00157465,0.07101132,-0.03789759,0.4
 4779078,-0.00869565,0.00707772,-0.00395294,0.00506506,0.00346221,0.000
 34888,-0.00446244,-0.00467357,-0.00088481,0.00281280,-0.00017955,0.001
 15296,-0.00127520,-0.00054680,0.00003184,0.00006802,0.00021663,-0.0001
 6055,0.00004914,-0.00038052,0.00031682,-0.00065691,0.00044797,0.003397
 69,0.02921170,0.02672524,0.00134627,-0.12638910,-0.18120891,0.01425885
 ,-0.00684059,0.00300973,-0.00498094,-0.00157943,-0.00004499,-0.0013383
 4,0.11132828,-0.00186540,0.00190438,-0.00026502,0.00402804,-0.00003084
 ,-0.00002885,-0.00307874,-0.00245663,-0.00129309,0.00058938,0.00032662
 ,0.00005685,-0.00063924,-0.00269350,0.00102314,-0.00020879,0.00002352,
 -0.00007439,-0.00026911,-0.00018981,0.00012052,0.00016276,0.00196512,0
 .00029918,0.00028381,-0.03194732,0.01063282,-0.14634847,-0.38496327,0.
 06037536,0.00120781,-0.00014039,0.00086339,-0.00030662,-0.00169496,0.0
 0068450,0.14636754,0.41994693,-0.00248542,0.00124143,0.00059773,0.0006
 9872,-0.00045886,-0.00199987,0.00054454,0.00006159,-0.00138124,0.00013
 094,0.00018636,0.00007441,0.00051431,-0.00018693,-0.00059905,0.0001156
 5,0.00004005,0.00002671,-0.00003082,0.00020493,0.00020117,0.00463274,0
 .00001130,-0.00066284,0.00780097,0.01971188,-0.00501122,0.00446572,0.0
 4618469,-0.02463163,-0.00387878,0.00483881,0.00050580,-0.00319435,0.00
 152118,0.00289372,-0.00956459,-0.07010740,0.03318359,-0.00098682,0.000
 94890,-0.00006867,0.00063640,0.00005567,0.00097158,-0.00055742,-0.0000
 8972,0.00008461,0.00014504,-0.00005283,0.00009838,-0.00036043,0.000040
 68,-0.00032865,0.00000778,0.00001459,-0.00002443,0.00002534,-0.0000450
 5,-0.00003676,-0.01734118,-0.01971465,0.01353564,0.00329250,-0.0005722
 0,-0.00008802,-0.00295122,0.00097068,-0.00101448,-0.00075120,-0.000235
 16,-0.00001315,-0.25003989,-0.22491391,0.09597022,0.00136430,0.0000770
 2,0.00025037,0.26751679,0.00023627,0.00019903,-0.00044093,0.00112826,0
 .00048342,0.00082591,-0.00057800,-0.00036591,0.00003495,0.00032661,0.0
 0000757,0.00010520,0.00007410,-0.00027100,0.00009768,-0.00002277,0.000
 01635,-0.00000375,0.00002590,-0.00003360,0.00001366,-0.00990856,-0.008
 16647,0.00966956,-0.00073234,0.00269002,-0.00006364,0.00045055,-0.0024
 8600,0.00233173,-0.00007565,-0.00181796,0.00008882,-0.23416766,-0.2222
 4824,0.10314583,-0.00027268,-0.00004986,-0.00324902,0.24351597,0.23204
 266,0.00017032,0.00005101,-0.00010637,0.00077683,0.00105103,-0.0013332
 2,0.00045231,-0.00020246,0.00037486,0.00029817,0.00008045,0.00007904,0
 .00050607,-0.00014173,0.00007395,0.00008352,0.00009480,0.00003012,0.00
 010004,0.00000343,0.00003260,-0.02778615,-0.02510036,0.01137511,-0.004
 55730,0.00359427,-0.00409894,0.00149149,-0.00155967,0.00482573,0.00058
 368,-0.00086316,0.00046938,0.13718880,0.13783540,-0.10845192,0.0000288
 7,-0.00228702,-0.00319727,-0.10933664,-0.11255600,0.09992693\\-0.00001
 039,-0.00001977,0.00001516,-0.00001091,0.00001053,-0.00001653,0.000000
 82,-0.00000673,-0.00000934,-0.00000035,0.00000692,0.00000901,0.0000037
 2,0.00000166,-0.00000921,0.00000303,-0.00000245,-0.00000128,-0.0000001
 0,0.00000299,0.00000152,0.00002598,0.00002547,0.00003664,-0.00000214,0
 .00002277,0.00000084,0.00000177,0.00001805,0.00000093,0.00000139,-0.00
 000326,-0.00000401,-0.00002974,-0.00003538,-0.00002251,0.00000621,-0.0
 0003071,0.00000661,0.00001073,0.00000992,-0.00000783\\\@
 The archive entry for this job was punched.


 YOU CAN WIPE THE SLATE CLEAN, BUT YOU'LL STILL
 HAVE TO EAT A LITTLE CHALK DUST.
 Job cpu time:       0 days  1 hours  6 minutes 52.8 seconds.
 Elapsed time:       0 days  0 hours  1 minutes 24.2 seconds.
 File lengths (MBytes):  RWF=    127 Int=      0 D2E=      0 Chk=      5 Scr=      1
 Normal termination of Gaussian 16 at Thu Dec  7 09:11:43 2023.
