 Entering Gaussian System, Link 0=/opt/soft/g16/g16
 Initial command:
 /opt/soft/g16/l1.exe "/scratch/gongke2021/PC/Gau-8682.inp" -scrdir="/scratch/gongke2021/PC/"
 Entering Link 1 = /opt/soft/g16/l1.exe PID=      8683.
  
 Copyright (c) 1988,1990,1992,1993,1995,1998,2003,2009,2016,
            Gaussian, Inc.  All Rights Reserved.
  
 This is part of the Gaussian(R) 16 program.  It is based on
 the Gaussian(R) 09 system (copyright 2009, Gaussian, Inc.),
 the Gaussian(R) 03 system (copyright 2003, Gaussian, Inc.),
 the Gaussian(R) 98 system (copyright 1998, Gaussian, Inc.),
 the Gaussian(R) 94 system (copyright 1995, Gaussian, Inc.),
 the Gaussian 92(TM) system (copyright 1992, Gaussian, Inc.),
 the Gaussian 90(TM) system (copyright 1990, Gaussian, Inc.),
 the Gaussian 88(TM) system (copyright 1988, Gaussian, Inc.),
 the Gaussian 86(TM) system (copyright 1986, Carnegie Mellon
 University), and the Gaussian 82(TM) system (copyright 1983,
 Carnegie Mellon University). Gaussian is a federally registered
 trademark of Gaussian, Inc.
  
 This software contains proprietary and confidential information,
 including trade secrets, belonging to Gaussian, Inc.
  
 This software is provided under written license and may be
 used, copied, transmitted, or stored only in accord with that
 written license.
  
 The following legend is applicable only to US Government
 contracts under FAR:
  
                    RESTRICTED RIGHTS LEGEND
  
 Use, reproduction and disclosure by the US Government is
 subject to restrictions as set forth in subparagraphs (a)
 and (c) of the Commercial Computer Software - Restricted
 Rights clause in FAR 52.227-19.
  
 Gaussian, Inc.
 340 Quinnipiac St., Bldg. 40, Wallingford CT 06492
  
  
 ---------------------------------------------------------------
 Warning -- This program may not be used in any manner that
 competes with the business of Gaussian, Inc. or will provide
 assistance to any competitor of Gaussian, Inc.  The licensee
 of this program is prohibited from giving any competitor of
 Gaussian, Inc. access to this program.  By using this program,
 the user acknowledges that Gaussian, Inc. is engaged in the
 business of creating and licensing software in the field of
 computational chemistry and represents and warrants to the
 licensee that it is not a competitor of Gaussian, Inc. and that
 it will not use this program in any manner prohibited above.
 ---------------------------------------------------------------
  

 Cite this work as:
 Gaussian 16, Revision A.03,
 M. J. Frisch, G. W. Trucks, H. B. Schlegel, G. E. Scuseria, 
 M. A. Robb, J. R. Cheeseman, G. Scalmani, V. Barone, 
 G. A. Petersson, H. Nakatsuji, X. Li, M. Caricato, A. V. Marenich, 
 J. Bloino, B. G. Janesko, R. Gomperts, B. Mennucci, H. P. Hratchian, 
 J. V. Ortiz, A. F. Izmaylov, J. L. Sonnenberg, D. Williams-Young, 
 F. Ding, F. Lipparini, F. Egidi, J. Goings, B. Peng, A. Petrone, 
 T. Henderson, D. Ranasinghe, V. G. Zakrzewski, J. Gao, N. Rega, 
 G. Zheng, W. Liang, M. Hada, M. Ehara, K. Toyota, R. Fukuda, 
 J. Hasegawa, M. Ishida, T. Nakajima, Y. Honda, O. Kitao, H. Nakai, 
 T. Vreven, K. Throssell, J. A. Montgomery, Jr., J. E. Peralta, 
 F. Ogliaro, M. J. Bearpark, J. J. Heyd, E. N. Brothers, K. N. Kudin, 
 V. N. Staroverov, T. A. Keith, R. Kobayashi, J. Normand, 
 K. Raghavachari, A. P. Rendell, J. C. Burant, S. S. Iyengar, 
 J. Tomasi, M. Cossi, J. M. Millam, M. Klene, C. Adamo, R. Cammi, 
 J. W. Ochterski, R. L. Martin, K. Morokuma, O. Farkas, 
 J. B. Foresman, and D. J. Fox, Gaussian, Inc., Wallingford CT, 2016.
 
 ******************************************
 Gaussian 16:  ES64L-G16RevA.03 25-Dec-2016
                26-May-2023 
 ******************************************
 %mem=10GB
 %nprocshared=24
 Will use up to   24 processors via shared memory.
 ----------------------------
 # opt freq 6-31+g(d,p) m062x
 ----------------------------
 1/18=20,19=15,26=3,38=1/1,3;
 2/9=110,12=2,17=6,18=5,40=1/2;
 3/5=1,6=6,7=111,11=2,25=1,30=1,71=1,74=-55/1,2,3;
 4//1;
 5/5=2,38=5/2;
 6/7=2,8=2,9=2,10=2,28=1/1;
 7//1,2,3,16;
 1/18=20,19=15,26=3/3(2);
 2/9=110/2;
 99//99;
 2/9=110/2;
 3/5=1,6=6,7=111,11=2,25=1,30=1,71=1,74=-55/1,2,3;
 4/5=5,16=3,69=1/1;
 5/5=2,38=5/2;
 7//1,2,3,16;
 1/18=20,19=15,26=3/3(-5);
 2/9=110/2;
 6/7=2,8=2,9=2,10=2,19=2,28=1/1;
 99/9=1/99;
 ----
 test
 ----
 Symbolic Z-matrix:
 Charge =  0 Multiplicity = 1
 N                    -0.93973   0.0267   -0.03326 
 N                     0.0288   -0.87462  -0.17629 
 C                    -0.57173  -2.03146   0.05972 
 C                    -1.92739  -1.7709    0.3452 
 N                    -2.12788  -0.46466   0.2726 
 H                    -0.02986  -2.96427   0.01547 
 H                    -2.73122  -2.44649   0.59278 
 H                     1.85516  -0.96165  -1.00818 
 C                    -0.7367    1.45937  -0.23206 
 O                    -1.66771   2.15134  -0.5072 
 O                     0.50909   1.83311  -0.10343 
 O                     2.28196   0.54608   1.25531 
 H                     1.12942   1.21731   0.40058 
 H                     2.9171    1.18067   1.60364 
 O                     2.82347  -0.91573  -0.93296 
 H                     2.76442  -0.05731   0.65692 
 H                     3.20704  -1.64068  -1.43344 
 
 Add virtual bond connecting atoms H13        and O12        Dist= 2.99D+00.
 Add virtual bond connecting atoms H16        and O15        Dist= 3.42D+00.

 GradGradGradGradGradGradGradGradGradGradGradGradGradGradGradGradGradGrad
 Berny optimization.
 Initialization pass.
                           ----------------------------
                           !    Initial Parameters    !
                           ! (Angstroms and Degrees)  !
 --------------------------                            --------------------------
 ! Name  Definition              Value          Derivative Info.                !
 --------------------------------------------------------------------------------
 ! R1    R(1,2)                  1.3307         estimate D2E/DX2                !
 ! R2    R(1,5)                  1.3216         estimate D2E/DX2                !
 ! R3    R(1,9)                  1.4606         estimate D2E/DX2                !
 ! R4    R(2,3)                  1.3246         estimate D2E/DX2                !
 ! R5    R(3,4)                  1.4097         estimate D2E/DX2                !
 ! R6    R(3,6)                  1.0797         estimate D2E/DX2                !
 ! R7    R(4,5)                  1.3235         estimate D2E/DX2                !
 ! R8    R(4,7)                  1.0788         estimate D2E/DX2                !
 ! R9    R(8,15)                 0.9723         estimate D2E/DX2                !
 ! R10   R(9,10)                 1.1922         estimate D2E/DX2                !
 ! R11   R(9,11)                 1.307          estimate D2E/DX2                !
 ! R12   R(11,13)                1.009          estimate D2E/DX2                !
 ! R13   R(12,13)                1.5841         estimate D2E/DX2                !
 ! R14   R(12,14)                0.963          estimate D2E/DX2                !
 ! R15   R(12,16)                0.9772         estimate D2E/DX2                !
 ! R16   R(15,16)                1.8078         estimate D2E/DX2                !
 ! R17   R(15,17)                0.9608         estimate D2E/DX2                !
 ! A1    A(2,1,5)              115.3006         estimate D2E/DX2                !
 ! A2    A(2,1,9)              123.2686         estimate D2E/DX2                !
 ! A3    A(5,1,9)              121.4095         estimate D2E/DX2                !
 ! A4    A(1,2,3)              104.0288         estimate D2E/DX2                !
 ! A5    A(2,3,4)              108.0982         estimate D2E/DX2                !
 ! A6    A(2,3,6)              121.3123         estimate D2E/DX2                !
 ! A7    A(4,3,6)              130.5894         estimate D2E/DX2                !
 ! A8    A(3,4,5)              108.4804         estimate D2E/DX2                !
 ! A9    A(3,4,7)              130.3365         estimate D2E/DX2                !
 ! A10   A(5,4,7)              121.1827         estimate D2E/DX2                !
 ! A11   A(1,5,4)              104.09           estimate D2E/DX2                !
 ! A12   A(1,9,10)             119.4845         estimate D2E/DX2                !
 ! A13   A(1,9,11)             113.5529         estimate D2E/DX2                !
 ! A14   A(10,9,11)            126.9487         estimate D2E/DX2                !
 ! A15   A(9,11,13)            117.4298         estimate D2E/DX2                !
 ! A16   A(13,12,14)           113.3151         estimate D2E/DX2                !
 ! A17   A(13,12,16)           106.8848         estimate D2E/DX2                !
 ! A18   A(14,12,16)           107.6229         estimate D2E/DX2                !
 ! A19   A(8,15,16)             93.3212         estimate D2E/DX2                !
 ! A20   A(8,15,17)            108.7615         estimate D2E/DX2                !
 ! A21   A(16,15,17)           146.0404         estimate D2E/DX2                !
 ! A22   A(12,16,15)           147.9808         estimate D2E/DX2                !
 ! A23   L(11,13,12,2,-1)      192.6851         estimate D2E/DX2                !
 ! A24   L(11,13,12,2,-2)      178.9808         estimate D2E/DX2                !
 ! D1    D(5,1,2,3)             -0.3141         estimate D2E/DX2                !
 ! D2    D(9,1,2,3)           -178.6519         estimate D2E/DX2                !
 ! D3    D(2,1,5,4)              0.4685         estimate D2E/DX2                !
 ! D4    D(9,1,5,4)            178.8402         estimate D2E/DX2                !
 ! D5    D(2,1,9,10)           156.348          estimate D2E/DX2                !
 ! D6    D(2,1,9,11)           -22.3892         estimate D2E/DX2                !
 ! D7    D(5,1,9,10)           -21.8912         estimate D2E/DX2                !
 ! D8    D(5,1,9,11)           159.3715         estimate D2E/DX2                !
 ! D9    D(1,2,3,4)              0.0281         estimate D2E/DX2                !
 ! D10   D(1,2,3,6)            179.9387         estimate D2E/DX2                !
 ! D11   D(2,3,4,5)              0.2513         estimate D2E/DX2                !
 ! D12   D(2,3,4,7)           -179.5369         estimate D2E/DX2                !
 ! D13   D(6,3,4,5)           -179.6481         estimate D2E/DX2                !
 ! D14   D(6,3,4,7)              0.5637         estimate D2E/DX2                !
 ! D15   D(3,4,5,1)             -0.4139         estimate D2E/DX2                !
 ! D16   D(7,4,5,1)            179.3974         estimate D2E/DX2                !
 ! D17   D(1,9,11,13)          -19.8576         estimate D2E/DX2                !
 ! D18   D(10,9,11,13)         161.5178         estimate D2E/DX2                !
 ! D19   D(9,11,12,14)        -149.4697         estimate D2E/DX2                !
 ! D20   D(9,11,12,16)          93.6899         estimate D2E/DX2                !
 ! D21   D(13,12,16,15)        -12.2419         estimate D2E/DX2                !
 ! D22   D(14,12,16,15)       -134.2747         estimate D2E/DX2                !
 ! D23   D(8,15,16,12)         -28.7034         estimate D2E/DX2                !
 ! D24   D(8,15,16,17)         131.5218         estimate D2E/DX2                !
 ! D25   D(17,15,16,12)       -160.2252         estimate D2E/DX2                !
 --------------------------------------------------------------------------------
 Trust Radius=3.00D-01 FncErr=1.00D-07 GrdErr=1.00D-06 EigMax=2.50D+02 EigMin=1.00D-04
 Number of steps in this run=     76 maximum allowed number of steps=    102.
 GradGradGradGradGradGradGradGradGradGradGradGradGradGradGradGradGradGrad

                          Input orientation:                          
 ---------------------------------------------------------------------
 Center     Atomic      Atomic             Coordinates (Angstroms)
 Number     Number       Type             X           Y           Z
 ---------------------------------------------------------------------
      1          7           0       -0.939726    0.026702   -0.033262
      2          7           0        0.028797   -0.874615   -0.176292
      3          6           0       -0.571731   -2.031457    0.059715
      4          6           0       -1.927393   -1.770903    0.345197
      5          7           0       -2.127877   -0.464660    0.272597
      6          1           0       -0.029860   -2.964266    0.015474
      7          1           0       -2.731218   -2.446485    0.592782
      8          1           0        1.855156   -0.961648   -1.008180
      9          6           0       -0.736695    1.459368   -0.232056
     10          8           0       -1.667705    2.151337   -0.507200
     11          8           0        0.509087    1.833105   -0.103430
     12          8           0        2.281958    0.546083    1.255307
     13          1           0        1.129418    1.217313    0.400584
     14          1           0        2.917097    1.180666    1.603640
     15          8           0        2.823474   -0.915728   -0.932955
     16          1           0        2.764419   -0.057309    0.656919
     17          1           0        3.207035   -1.640675   -1.433437
 ---------------------------------------------------------------------
                    Distance matrix (angstroms):
                    1          2          3          4          5
     1  N    0.000000
     2  N    1.330739   0.000000
     3  C    2.092865   1.324619   0.000000
     4  C    2.085690   2.214038   1.409684   0.000000
     5  N    1.321624   2.240716   2.218504   1.323531   0.000000
     6  H    3.126679   2.099251   1.079682   2.265715   3.273502
     7  H    3.117375   3.268017   2.262696   1.078816   2.096227
     8  H    3.120684   2.008781   2.859138   4.098073   4.213305
     9  C    1.460573   2.456942   3.506879   3.490793   2.427333
    10  O    2.295353   3.484825   4.361000   4.022187   2.768263
    11  O    2.316695   2.750952   4.016170   4.373394   3.517769
    12  O    3.508478   3.024003   4.026996   4.890333   4.629683
    13  H    2.426342   2.433170   3.683016   4.275114   3.668158
    14  H    4.345822   3.966688   4.987320   5.810725   5.470881
    15  O    3.982373   2.895591   3.709132   4.993569   5.115926
    16  H    3.768832   2.974199   3.922220   5.004665   4.924246
    17  H    4.683616   3.502636   4.081824   5.435333   5.723185
                    6          7          8          9         10
     6  H    0.000000
     7  H    2.810466   0.000000
     8  H    2.934558   5.079631   0.000000
     9  C    4.486583   4.462529   3.630617   0.000000
    10  O    5.396769   4.845718   4.727812   1.192185   0.000000
    11  O    4.829013   5.412872   3.231272   1.306980   2.236677
    12  O    4.382264   5.875912   2.752960   3.486919   4.613362
    13  H    4.356356   5.325868   2.694287   1.985246   3.085510
    14  H    5.327972   6.788337   3.541021   4.098494   5.139869
    15  O    3.638343   5.960343   0.972321   4.336720   5.455167
    16  H    4.082872   5.992854   2.101700   3.917701   5.086945
    17  H    3.785330   6.325958   1.571464   5.158158   6.245027
                   11         12         13         14         15
    11  O    0.000000
    12  O    2.577918   0.000000
    13  H    1.008980   1.584124   0.000000
    14  H    3.022958   0.963033   2.155106   0.000000
    15  O    3.687897   2.686749   3.032823   3.292104   0.000000
    16  H    3.039460   0.977199   2.088922   1.565942   1.807780
    17  H    4.595105   3.587063   3.980982   4.155462   0.960807
                   16         17
    16  H    0.000000
    17  H    2.659426   0.000000
 Stoichiometry    C3H7N3O4
 Framework group  C1[X(C3H7N3O4)]
 Deg. of freedom    45
 Full point group                 C1      NOp   1
 Largest Abelian subgroup         C1      NOp   1
 Largest concise Abelian subgroup C1      NOp   1
                         Standard orientation:                         
 ---------------------------------------------------------------------
 Center     Atomic      Atomic             Coordinates (Angstroms)
 Number     Number       Type             X           Y           Z
 ---------------------------------------------------------------------
      1          7           0       -0.939726    0.026702   -0.033262
      2          7           0        0.028797   -0.874615   -0.176292
      3          6           0       -0.571731   -2.031457    0.059715
      4          6           0       -1.927393   -1.770903    0.345197
      5          7           0       -2.127877   -0.464660    0.272597
      6          1           0       -0.029860   -2.964266    0.015474
      7          1           0       -2.731218   -2.446485    0.592782
      8          1           0        1.855156   -0.961648   -1.008180
      9          6           0       -0.736695    1.459368   -0.232056
     10          8           0       -1.667705    2.151337   -0.507200
     11          8           0        0.509087    1.833105   -0.103430
     12          8           0        2.281958    0.546083    1.255307
     13          1           0        1.129418    1.217313    0.400584
     14          1           0        2.917097    1.180666    1.603640
     15          8           0        2.823474   -0.915728   -0.932955
     16          1           0        2.764419   -0.057309    0.656919
     17          1           0        3.207035   -1.640675   -1.433437
 ---------------------------------------------------------------------
 Rotational constants (GHZ):           1.4556956           1.0478576           0.6996761
 Standard basis: 6-31+G(d,p) (6D, 7F)
 There are   225 symmetry adapted cartesian basis functions of A   symmetry.
 There are   225 symmetry adapted basis functions of A   symmetry.
   225 basis functions,   369 primitive gaussians,   225 cartesian basis functions
    39 alpha electrons       39 beta electrons
       nuclear repulsion energy       559.3155363722 Hartrees.
 NAtoms=   17 NActive=   17 NUniq=   17 SFac= 1.00D+00 NAtFMM=   60 NAOKFM=F Big=F
 Integral buffers will be    131072 words long.
 Raffenetti 2 integral format.
 Two-electron integral symmetry is turned on.
 One-electron integrals computed using PRISM.
 NBasis=   225 RedAO= T EigKep=  2.97D-05  NBF=   225
 NBsUse=   225 1.00D-06 EigRej= -1.00D+00 NBFU=   225
 ExpMin= 4.38D-02 ExpMax= 5.48D+03 ExpMxC= 8.25D+02 IAcc=3 IRadAn=         5 AccDes= 0.00D+00
 Harris functional with IExCor= 1009 and IRadAn=       5 diagonalized for initial guess.
 HarFok:  IExCor= 1009 AccDes= 0.00D+00 IRadAn=         5 IDoV= 1 UseB2=F ITyADJ=14
 ICtDFT=  3500011 ScaDFX=  1.000000  1.000000  1.000000  1.000000
 FoFCou: FMM=F IPFlag=           0 FMFlag=      100000 FMFlg1=           0
         NFxFlg=           0 DoJE=T BraDBF=F KetDBF=T FulRan=T
         wScrn=  0.000000 ICntrl=       500 IOpCl=  0 I1Cent=   200000004 NGrid=           0
         NMat0=    1 NMatS0=      1 NMatT0=    0 NMatD0=    1 NMtDS0=    0 NMtDT0=    0
 Petite list used in FoFCou.
 Requested convergence on RMS density matrix=1.00D-08 within 128 cycles.
 Requested convergence on MAX density matrix=1.00D-06.
 Requested convergence on             energy=1.00D-06.
 No special actions if energy rises.
 SCF Done:  E(RM062X) =  -583.476665801     A.U. after   15 cycles
            NFock= 15  Conv=0.25D-08     -V/T= 2.0082

 **********************************************************************

            Population analysis using the SCF density.

 **********************************************************************

 Orbital symmetries:
       Occupied  (A) (A) (A) (A) (A) (A) (A) (A) (A) (A) (A) (A)
                 (A) (A) (A) (A) (A) (A) (A) (A) (A) (A) (A) (A)
                 (A) (A) (A) (A) (A) (A) (A) (A) (A) (A) (A) (A)
                 (A) (A) (A)
       Virtual   (A) (A) (A) (A) (A) (A) (A) (A) (A) (A) (A) (A)
                 (A) (A) (A) (A) (A) (A) (A) (A) (A) (A) (A) (A)
                 (A) (A) (A) (A) (A) (A) (A) (A) (A) (A) (A) (A)
                 (A) (A) (A) (A) (A) (A) (A) (A) (A) (A) (A) (A)
                 (A) (A) (A) (A) (A) (A) (A) (A) (A) (A) (A) (A)
                 (A) (A) (A) (A) (A) (A) (A) (A) (A) (A) (A) (A)
                 (A) (A) (A) (A) (A) (A) (A) (A) (A) (A) (A) (A)
                 (A) (A) (A) (A) (A) (A) (A) (A) (A) (A) (A) (A)
                 (A) (A) (A) (A) (A) (A) (A) (A) (A) (A) (A) (A)
                 (A) (A) (A) (A) (A) (A) (A) (A) (A) (A) (A) (A)
                 (A) (A) (A) (A) (A) (A) (A) (A) (A) (A) (A) (A)
                 (A) (A) (A) (A) (A) (A) (A) (A) (A) (A) (A) (A)
                 (A) (A) (A) (A) (A) (A) (A) (A) (A) (A) (A) (A)
                 (A) (A) (A) (A) (A) (A) (A) (A) (A) (A) (A) (A)
                 (A) (A) (A) (A) (A) (A) (A) (A) (A) (A) (A) (A)
                 (A) (A) (A) (A) (A) (A)
 The electronic state is 1-A.
 Alpha  occ. eigenvalues --  -19.68787 -19.67784 -19.67019 -19.64773 -14.90429
 Alpha  occ. eigenvalues --  -14.84002 -14.82886 -10.73430 -10.61297 -10.60535
 Alpha  occ. eigenvalues --   -1.27849  -1.23012  -1.17130  -1.15839  -1.14986
 Alpha  occ. eigenvalues --   -1.03152  -0.96449  -0.77737  -0.74611  -0.71284
 Alpha  occ. eigenvalues --   -0.67172  -0.65066  -0.62434  -0.60539  -0.57662
 Alpha  occ. eigenvalues --   -0.55619  -0.53851  -0.53139  -0.52060  -0.49065
 Alpha  occ. eigenvalues --   -0.46264  -0.43368  -0.42926  -0.42107  -0.40027
 Alpha  occ. eigenvalues --   -0.39864  -0.38445  -0.37849  -0.35354
 Alpha virt. eigenvalues --   -0.01829   0.00175   0.02549   0.03095   0.04301
 Alpha virt. eigenvalues --    0.05033   0.05960   0.06060   0.07426   0.07592
 Alpha virt. eigenvalues --    0.08766   0.09075   0.10189   0.10755   0.11764
 Alpha virt. eigenvalues --    0.12400   0.14785   0.16765   0.16940   0.18538
 Alpha virt. eigenvalues --    0.19303   0.19693   0.20576   0.21039   0.21182
 Alpha virt. eigenvalues --    0.22065   0.22458   0.23690   0.23940   0.24869
 Alpha virt. eigenvalues --    0.25128   0.26266   0.27203   0.27677   0.28380
 Alpha virt. eigenvalues --    0.29277   0.29813   0.30255   0.31149   0.31579
 Alpha virt. eigenvalues --    0.31798   0.32777   0.33545   0.34045   0.34424
 Alpha virt. eigenvalues --    0.36280   0.37352   0.38303   0.40354   0.40937
 Alpha virt. eigenvalues --    0.41756   0.43084   0.44524   0.44753   0.46131
 Alpha virt. eigenvalues --    0.49685   0.53720   0.63324   0.71990   0.73023
 Alpha virt. eigenvalues --    0.76492   0.80772   0.85969   0.87284   0.87617
 Alpha virt. eigenvalues --    0.89251   0.91689   0.93400   0.95659   0.96651
 Alpha virt. eigenvalues --    0.99508   1.00354   1.01203   1.04032   1.05264
 Alpha virt. eigenvalues --    1.06573   1.07568   1.09425   1.10820   1.13266
 Alpha virt. eigenvalues --    1.15664   1.17068   1.18417   1.19023   1.20711
 Alpha virt. eigenvalues --    1.21084   1.22834   1.24240   1.26093   1.27230
 Alpha virt. eigenvalues --    1.28023   1.31182   1.31852   1.34087   1.36469
 Alpha virt. eigenvalues --    1.38308   1.39036   1.40309   1.41068   1.42844
 Alpha virt. eigenvalues --    1.44482   1.45113   1.47616   1.49609   1.52462
 Alpha virt. eigenvalues --    1.54331   1.55127   1.56625   1.58723   1.62420
 Alpha virt. eigenvalues --    1.63366   1.63498   1.68627   1.72744   1.74098
 Alpha virt. eigenvalues --    1.75986   1.77301   1.80924   1.85823   1.87008
 Alpha virt. eigenvalues --    1.88038   1.92740   1.94849   1.97655   2.00424
 Alpha virt. eigenvalues --    2.02894   2.04570   2.07334   2.13181   2.18900
 Alpha virt. eigenvalues --    2.23502   2.25333   2.25972   2.27092   2.29548
 Alpha virt. eigenvalues --    2.31439   2.32288   2.35062   2.37726   2.41412
 Alpha virt. eigenvalues --    2.46391   2.48247   2.51236   2.51957   2.53433
 Alpha virt. eigenvalues --    2.55816   2.58419   2.60144   2.61287   2.64750
 Alpha virt. eigenvalues --    2.66519   2.68411   2.70348   2.70667   2.74175
 Alpha virt. eigenvalues --    2.75999   2.80090   2.80461   2.82816   2.89933
 Alpha virt. eigenvalues --    2.94979   3.01461   3.02397   3.04477   3.09985
 Alpha virt. eigenvalues --    3.12680   3.19016   3.23546   3.29004   3.30743
 Alpha virt. eigenvalues --    3.42716   3.47070   3.59157   3.60781   3.70713
 Alpha virt. eigenvalues --    3.72069   4.03704   4.22740   4.25601   4.26917
 Alpha virt. eigenvalues --    4.31387   4.39618   4.43351   4.54434   4.65598
 Alpha virt. eigenvalues --    4.67983
          Condensed to atoms (all electrons):
               1          2          3          4          5          6
     1  N    9.111770  -1.251343  -0.267393   0.191299  -0.563326   0.023158
     2  N   -1.251343   8.191257   0.421401  -0.125086   0.133725  -0.063825
     3  C   -0.267393   0.421401   5.679807  -0.069450   0.003415   0.388439
     4  C    0.191299  -0.125086  -0.069450   5.561555   0.240588  -0.007750
     5  N   -0.563326   0.133725   0.003415   0.240588   7.340093  -0.008741
     6  H    0.023158  -0.063825   0.388439  -0.007750  -0.008741   0.483770
     7  H    0.014803  -0.014034  -0.010571   0.385791  -0.052974   0.000548
     8  H    0.033939  -0.009939  -0.003619   0.000091   0.002361  -0.000739
     9  C    0.098584  -0.081874  -0.018216  -0.002744   0.001365   0.000282
    10  O   -0.047460  -0.007697  -0.007399   0.003007  -0.045466   0.000050
    11  O   -0.132492  -0.009434   0.008183  -0.010913   0.022272   0.000019
    12  O   -0.000699  -0.013377  -0.005520   0.004355  -0.011540  -0.000031
    13  H    0.023996  -0.005334  -0.003372   0.004005  -0.016367  -0.000003
    14  H    0.001397   0.000644  -0.000054  -0.000036   0.000225  -0.000001
    15  O    0.002355   0.026088  -0.027093   0.006912  -0.000900  -0.000478
    16  H    0.002336  -0.002526   0.001219  -0.000599   0.000170   0.000003
    17  H    0.002761  -0.005539   0.000003   0.001261   0.000176  -0.000066
               7          8          9         10         11         12
     1  N    0.014803   0.033939   0.098584  -0.047460  -0.132492  -0.000699
     2  N   -0.014034  -0.009939  -0.081874  -0.007697  -0.009434  -0.013377
     3  C   -0.010571  -0.003619  -0.018216  -0.007399   0.008183  -0.005520
     4  C    0.385791   0.000091  -0.002744   0.003007  -0.010913   0.004355
     5  N   -0.052974   0.002361   0.001365  -0.045466   0.022272  -0.011540
     6  H    0.000548  -0.000739   0.000282   0.000050   0.000019  -0.000031
     7  H    0.487506  -0.000003   0.000721  -0.000011   0.000013   0.000002
     8  H   -0.000003   0.312253  -0.000688   0.000113  -0.002155   0.005860
     9  C    0.000721  -0.000688   4.513837   0.514143   0.262138   0.003176
    10  O   -0.000011   0.000113   0.514143   8.050761  -0.083320  -0.000358
    11  O    0.000013  -0.002155   0.262138  -0.083320   8.298438  -0.043136
    12  O    0.000002   0.005860   0.003176  -0.000358  -0.043136   8.352331
    13  H   -0.000001   0.000069  -0.004507   0.006738   0.199101   0.022990
    14  H   -0.000000   0.000066   0.000733  -0.000008   0.000548   0.283197
    15  O    0.000002   0.244441   0.000037   0.000074   0.006073  -0.050618
    16  H   -0.000000  -0.001403   0.000235  -0.000036   0.000960   0.275655
    17  H   -0.000000  -0.012662  -0.000029  -0.000000  -0.000111   0.003364
              13         14         15         16         17
     1  N    0.023996   0.001397   0.002355   0.002336   0.002761
     2  N   -0.005334   0.000644   0.026088  -0.002526  -0.005539
     3  C   -0.003372  -0.000054  -0.027093   0.001219   0.000003
     4  C    0.004005  -0.000036   0.006912  -0.000599   0.001261
     5  N   -0.016367   0.000225  -0.000900   0.000170   0.000176
     6  H   -0.000003  -0.000001  -0.000478   0.000003  -0.000066
     7  H   -0.000001  -0.000000   0.000002  -0.000000  -0.000000
     8  H    0.000069   0.000066   0.244441  -0.001403  -0.012662
     9  C   -0.004507   0.000733   0.000037   0.000235  -0.000029
    10  O    0.006738  -0.000008   0.000074  -0.000036  -0.000000
    11  O    0.199101   0.000548   0.006073   0.000960  -0.000111
    12  O    0.022990   0.283197  -0.050618   0.275655   0.003364
    13  H    0.287756  -0.002983   0.003421  -0.002291   0.000003
    14  H   -0.002983   0.320194   0.000790  -0.017159  -0.000055
    15  O    0.003421   0.000790   8.299821   0.016087   0.279963
    16  H   -0.002291  -0.017159   0.016087   0.272473  -0.001035
    17  H    0.000003  -0.000055   0.279963  -0.001035   0.329678
 Mulliken charges:
               1
     1  N   -0.243686
     2  N   -0.183108
     3  C   -0.089778
     4  C   -0.182285
     5  N   -0.045075
     6  H    0.185362
     7  H    0.188209
     8  H    0.432016
     9  C    0.712807
    10  O   -0.383130
    11  O   -0.516185
    12  O   -0.825650
    13  H    0.486780
    14  H    0.412501
    15  O   -0.806977
    16  H    0.455909
    17  H    0.402289
 Sum of Mulliken charges =  -0.00000
 Mulliken charges with hydrogens summed into heavy atoms:
               1
     1  N   -0.243686
     2  N   -0.183108
     3  C    0.095584
     4  C    0.005924
     5  N   -0.045075
     9  C    0.712807
    10  O   -0.383130
    11  O   -0.029406
    12  O    0.042760
    15  O    0.027329
 Electronic spatial extent (au):  <R**2>=           1629.1067
 Charge=             -0.0000 electrons
 Dipole moment (field-independent basis, Debye):
    X=              3.9368    Y=             -5.4895    Z=              0.5014  Tot=              6.7738
 Quadrupole moment (field-independent basis, Debye-Ang):
   XX=            -54.7224   YY=            -55.0916   ZZ=            -57.4977
   XY=              6.6308   XZ=             -0.6448   YZ=              6.5234
 Traceless Quadrupole moment (field-independent basis, Debye-Ang):
   XX=              1.0482   YY=              0.6790   ZZ=             -1.7271
   XY=              6.6308   XZ=             -0.6448   YZ=              6.5234
 Octapole moment (field-independent basis, Debye-Ang**2):
  XXX=             69.1250  YYY=            -38.9855  ZZZ=             -4.6054  XYY=             22.4253
  XXY=            -18.9217  XXZ=              9.8052  XZZ=             16.1992  YZZ=              3.6694
  YYZ=              4.8363  XYZ=             17.5306
 Hexadecapole moment (field-independent basis, Debye-Ang**3):
 XXXX=           -948.9986 YYYY=           -744.0358 ZZZZ=           -175.4987 XXXY=             29.2510
 XXXZ=             18.8817 YYYX=             17.6662 YYYZ=             27.4696 ZZZX=              0.7740
 ZZZY=             22.3250 XXYY=           -245.5586 XXZZ=           -173.7822 YYZZ=           -144.5870
 XXYZ=             54.6339 YYXZ=            -21.9116 ZZXY=             -8.3675
 N-N= 5.593155363722D+02 E-N=-2.485156160507D+03  KE= 5.787300476875D+02
 Calling FoFJK, ICntrl=      2127 FMM=F ISym2X=0 I1Cent= 0 IOpClX= 0 NMat=1 NMatS=1 NMatT=0.
 ***** Axes restored to original set *****
 -------------------------------------------------------------------
 Center     Atomic                   Forces (Hartrees/Bohr)
 Number     Number              X              Y              Z
 -------------------------------------------------------------------
      1        7           0.000071834    0.000125666   -0.000037505
      2        7           0.000048074   -0.000183076   -0.000107835
      3        6          -0.000049725    0.000047215    0.000110117
      4        6          -0.000002056    0.000065832   -0.000050476
      5        7          -0.000058870   -0.000090061    0.000029920
      6        1           0.000003824    0.000031057   -0.000000277
      7        1          -0.000008016   -0.000008304    0.000007393
      8        1           0.000063871   -0.000015048   -0.000054282
      9        6           0.000266430   -0.000104917    0.000120345
     10        8          -0.000324127    0.000107478   -0.000076673
     11        8          -0.000130097    0.000180732   -0.000061770
     12        8           0.000086181   -0.000226228   -0.000060602
     13        1           0.000121832   -0.000131098    0.000013734
     14        1          -0.000003838    0.000062372   -0.000003783
     15        8           0.000078278    0.000006893    0.000144621
     16        1          -0.000041602    0.000090571    0.000055747
     17        1          -0.000121992    0.000040916   -0.000028675
 -------------------------------------------------------------------
 Cartesian Forces:  Max     0.000324127 RMS     0.000103158

 GradGradGradGradGradGradGradGradGradGradGradGradGradGradGradGradGradGrad
 Berny optimization.
 FormGI is forming the generalized inverse of G from B-inverse, IUseBI=4.
 Internal  Forces:  Max     0.000333291 RMS     0.000082342
 Search for a local minimum.
 Step number   1 out of a maximum of   76
 All quantities printed in internal units (Hartrees-Bohrs-Radians)
 Mixed Optimization -- En-DIIS/RFO-DIIS
 Second derivative matrix not updated -- first step.
 ITU=  0
     Eigenvalues ---    0.00230   0.00230   0.00230   0.00230   0.00891
     Eigenvalues ---    0.01114   0.01330   0.01614   0.01649   0.02107
     Eigenvalues ---    0.02208   0.02310   0.02417   0.02921   0.06027
     Eigenvalues ---    0.06120   0.09407   0.13438   0.16000   0.16000
     Eigenvalues ---    0.16000   0.16000   0.16000   0.16000   0.22618
     Eigenvalues ---    0.24750   0.24993   0.24996   0.24999   0.25000
     Eigenvalues ---    0.36033   0.36138   0.36893   0.41057   0.46143
     Eigenvalues ---    0.51933   0.52906   0.54303   0.54826   0.55300
     Eigenvalues ---    0.55451   0.60523   0.61044   0.65291   1.08850
 RFO step:  Lambda=-8.72983364D-06 EMin= 2.30000000D-03
 Linear search not attempted -- first point.
 Iteration  1 RMS(Cart)=  0.02338653 RMS(Int)=  0.00014396
 Iteration  2 RMS(Cart)=  0.00019484 RMS(Int)=  0.00000567
 Iteration  3 RMS(Cart)=  0.00000002 RMS(Int)=  0.00000567
 Variable       Old X    -DE/DX   Delta X   Delta X   Delta X     New X
                                 (Linear)    (Quad)   (Total)
    R1        2.51473   0.00011   0.00000   0.00021   0.00021   2.51494
    R2        2.49751   0.00008   0.00000   0.00015   0.00015   2.49765
    R3        2.76008   0.00000   0.00000   0.00001   0.00001   2.76009
    R4        2.50317  -0.00001   0.00000  -0.00002  -0.00002   2.50314
    R5        2.66392  -0.00003   0.00000  -0.00009  -0.00009   2.66382
    R6        2.04030  -0.00002   0.00000  -0.00007  -0.00007   2.04023
    R7        2.50111  -0.00009   0.00000  -0.00016  -0.00016   2.50095
    R8        2.03867   0.00001   0.00000   0.00004   0.00004   2.03870
    R9        1.83742  -0.00006   0.00000  -0.00011  -0.00011   1.83731
   R10        2.25290   0.00033   0.00000   0.00031   0.00031   2.25321
   R11        2.46983   0.00005   0.00000   0.00008   0.00008   2.46991
   R12        1.90670   0.00025   0.00000   0.00055   0.00055   1.90724
   R13        2.99356   0.00009   0.00000   0.00098   0.00098   2.99454
   R14        1.81987   0.00004   0.00000   0.00007   0.00007   1.81994
   R15        1.84664  -0.00016   0.00000  -0.00031  -0.00031   1.84633
   R16        3.41621  -0.00007   0.00000  -0.00117  -0.00117   3.41504
   R17        1.81566  -0.00006   0.00000  -0.00012  -0.00012   1.81554
    A1        2.01237  -0.00005   0.00000  -0.00012  -0.00012   2.01226
    A2        2.15144   0.00020   0.00000   0.00079   0.00079   2.15223
    A3        2.11900  -0.00015   0.00000  -0.00065  -0.00065   2.11835
    A4        1.81564  -0.00005   0.00000  -0.00013  -0.00013   1.81551
    A5        1.88667   0.00006   0.00000   0.00020   0.00020   1.88687
    A6        2.11730  -0.00005   0.00000  -0.00022  -0.00022   2.11708
    A7        2.27921  -0.00001   0.00000   0.00001   0.00001   2.27923
    A8        1.89334   0.00000   0.00000  -0.00007  -0.00008   1.89327
    A9        2.27480  -0.00000   0.00000   0.00003   0.00003   2.27483
   A10        2.11504  -0.00000   0.00000   0.00004   0.00004   2.11508
   A11        1.81671   0.00003   0.00000   0.00012   0.00012   1.81683
   A12        2.08540  -0.00018   0.00000  -0.00069  -0.00069   2.08470
   A13        1.98187   0.00011   0.00000   0.00048   0.00048   1.98235
   A14        2.21567   0.00006   0.00000   0.00027   0.00027   2.21594
   A15        2.04954   0.00002   0.00000   0.00013   0.00013   2.04967
   A16        1.97772  -0.00004   0.00000  -0.00038  -0.00038   1.97734
   A17        1.86549   0.00006   0.00000   0.00031   0.00032   1.86581
   A18        1.87837  -0.00002   0.00000  -0.00024  -0.00021   1.87816
   A19        1.62876   0.00003   0.00000   0.00039   0.00039   1.62915
   A20        1.89825  -0.00009   0.00000  -0.00033  -0.00034   1.89791
   A21        2.54889   0.00012   0.00000   0.00090   0.00090   2.54979
   A22        2.58275  -0.00003   0.00000  -0.00010  -0.00010   2.58265
   A23        3.36299   0.00002   0.00000   0.00766   0.00766   3.37064
   A24        3.12380   0.00006   0.00000   0.02352   0.02352   3.14733
    D1       -0.00548  -0.00004   0.00000  -0.00160  -0.00160  -0.00708
    D2       -3.11806  -0.00005   0.00000  -0.00253  -0.00253  -3.12060
    D3        0.00818   0.00002   0.00000   0.00061   0.00061   0.00879
    D4        3.12135   0.00003   0.00000   0.00155   0.00155   3.12290
    D5        2.72879   0.00001   0.00000  -0.00022  -0.00022   2.72856
    D6       -0.39077  -0.00003   0.00000  -0.00278  -0.00278  -0.39355
    D7       -0.38207  -0.00000   0.00000  -0.00122  -0.00122  -0.38329
    D8        2.78156  -0.00005   0.00000  -0.00378  -0.00378   2.77778
    D9        0.00049   0.00004   0.00000   0.00185   0.00185   0.00234
   D10        3.14052   0.00002   0.00000   0.00064   0.00064   3.14117
   D11        0.00439  -0.00004   0.00000  -0.00161  -0.00161   0.00278
   D12       -3.13351  -0.00001   0.00000  -0.00065  -0.00065  -3.13416
   D13       -3.13545  -0.00001   0.00000  -0.00025  -0.00025  -3.13570
   D14        0.00984   0.00002   0.00000   0.00071   0.00071   0.01055
   D15       -0.00722   0.00001   0.00000   0.00060   0.00060  -0.00662
   D16        3.13108  -0.00001   0.00000  -0.00025  -0.00025   3.13082
   D17       -0.34658   0.00006   0.00000   0.00268   0.00268  -0.34390
   D18        2.81902   0.00002   0.00000  -0.00010  -0.00010   2.81892
   D19       -2.60874   0.00006   0.00000   0.02846   0.02843  -2.58030
   D20        1.63520   0.00007   0.00000   0.02586   0.02588   1.66108
   D21       -0.21366   0.00004   0.00000   0.00353   0.00354  -0.21012
   D22       -2.34354   0.00006   0.00000   0.00394   0.00393  -2.33960
   D23       -0.50097   0.00005   0.00000   0.01807   0.01807  -0.48290
   D24        2.29549   0.00001   0.00000   0.00129   0.00129   2.29678
   D25       -2.79646   0.00003   0.00000   0.01678   0.01678  -2.77968
         Item               Value     Threshold  Converged?
 Maximum Force            0.000333     0.000450     YES
 RMS     Force            0.000082     0.000300     YES
 Maximum Displacement     0.080308     0.001800     NO 
 RMS     Displacement     0.023402     0.001200     NO 
 Predicted change in Energy=-4.377965D-06
 GradGradGradGradGradGradGradGradGradGradGradGradGradGradGradGradGradGrad

                          Input orientation:                          
 ---------------------------------------------------------------------
 Center     Atomic      Atomic             Coordinates (Angstroms)
 Number     Number       Type             X           Y           Z
 ---------------------------------------------------------------------
      1          7           0       -0.948161    0.025503   -0.032290
      2          7           0        0.013704   -0.880693   -0.189714
      3          6           0       -0.589201   -2.034465    0.055026
      4          6           0       -1.939733   -1.767498    0.358117
      5          7           0       -2.134568   -0.460290    0.289174
      6          1           0       -0.052516   -2.969838    0.003241
      7          1           0       -2.743489   -2.439244    0.616220
      8          1           0        1.894996   -0.945628   -1.031646
      9          6           0       -0.741247    1.457677   -0.230653
     10          8           0       -1.673221    2.153848   -0.492307
     11          8           0        0.507225    1.826619   -0.114431
     12          8           0        2.275710    0.541311    1.251300
     13          1           0        1.131317    1.206464    0.380081
     14          1           0        2.901375    1.179792    1.609613
     15          8           0        2.861407   -0.910964   -0.930946
     16          1           0        2.771106   -0.058013    0.659697
     17          1           0        3.249532   -1.637754   -1.425078
 ---------------------------------------------------------------------
                    Distance matrix (angstroms):
                    1          2          3          4          5
     1  N    0.000000
     2  N    1.330848   0.000000
     3  C    2.092831   1.324607   0.000000
     4  C    2.085781   2.214149   1.409635   0.000000
     5  N    1.321701   2.240791   2.218335   1.323445   0.000000
     6  H    3.126581   2.099081   1.079646   2.265645   3.273306
     7  H    3.117490   3.268138   2.262684   1.078835   2.096188
     8  H    3.166283   2.062117   2.921927   4.160776   4.268197
     9  C    1.460577   2.457560   3.507106   3.490669   2.426966
    10  O    2.295034   3.485070   4.360807   4.021343   2.767177
    11  O    2.317092   2.752956   4.017317   4.373623   3.517374
    12  O    3.508134   3.035669   4.034032   4.888592   4.623791
    13  H    2.426716   2.435149   3.683676   4.275076   3.667743
    14  H    4.341331   3.977665   4.993226   5.804229   5.458402
    15  O    4.024595   2.942746   3.760464   5.044430   5.162516
    16  H    3.784015   3.000261   3.945079   5.020486   4.936066
    17  H    4.725136   3.545398   4.133275   5.488632   5.771795
                    6          7          8          9         10
     6  H    0.000000
     7  H    2.810446   0.000000
     8  H    2.993529   5.144112   0.000000
     9  C    4.486864   4.462305   3.656123   0.000000
    10  O    5.396703   4.844667   4.757079   1.192347   0.000000
    11  O    4.830440   5.412816   3.233039   1.307022   2.237010
    12  O    4.393911   5.871915   2.750959   3.483954   4.608090
    13  H    4.357174   5.325511   2.684712   1.985598   3.086102
    14  H    5.340911   6.778550   3.536447   4.090537   5.127746
    15  O    3.688172   6.012006   0.972262   4.368064   5.490749
    16  H    4.108831   6.006904   2.101444   3.927679   5.096222
    17  H    3.836412   6.381660   1.571177   5.189861   6.283295
                   11         12         13         14         15
    11  O    0.000000
    12  O    2.577746   0.000000
    13  H    1.009270   1.584641   0.000000
    14  H    3.020375   0.963069   2.155357   0.000000
    15  O    3.701788   2.685953   3.032409   3.290486   0.000000
    16  H    3.045697   0.977037   2.089496   1.565718   1.807159
    17  H    4.608679   3.586036   3.979323   4.155614   0.960745
                   16         17
    16  H    0.000000
    17  H    2.659090   0.000000
 Stoichiometry    C3H7N3O4
 Framework group  C1[X(C3H7N3O4)]
 Deg. of freedom    45
 Full point group                 C1      NOp   1
 Largest Abelian subgroup         C1      NOp   1
 Largest concise Abelian subgroup C1      NOp   1
                         Standard orientation:                         
 ---------------------------------------------------------------------
 Center     Atomic      Atomic             Coordinates (Angstroms)
 Number     Number       Type             X           Y           Z
 ---------------------------------------------------------------------
      1          7           0       -0.945651    0.024391   -0.038935
      2          7           0        0.018849   -0.879857   -0.191354
      3          6           0       -0.583283   -2.034953    0.049009
      4          6           0       -1.936079   -1.770777    0.344348
      5          7           0       -2.132998   -0.463892    0.275200
      6          1           0       -0.044519   -2.969265   -0.000293
      7          1           0       -2.740055   -2.444240    0.597240
      8          1           0        1.905177   -0.940598   -1.022259
      9          6           0       -0.740306    1.457101   -0.235049
     10          8           0       -1.672052    2.151688   -0.501677
     11          8           0        0.506756    1.828333   -0.111226
     12          8           0        2.269631    0.545396    1.263953
     13          1           0        1.129112    1.209006    0.386501
     14          1           0        2.891961    1.184805    1.626397
     15          8           0        2.870911   -0.904169   -0.915856
     16          1           0        2.769637   -0.052553    0.674842
     17          1           0        3.263319   -1.629859   -1.408219
 ---------------------------------------------------------------------
 Rotational constants (GHZ):           1.4579340           1.0368890           0.6951404
 Standard basis: 6-31+G(d,p) (6D, 7F)
 There are   225 symmetry adapted cartesian basis functions of A   symmetry.
 There are   225 symmetry adapted basis functions of A   symmetry.
   225 basis functions,   369 primitive gaussians,   225 cartesian basis functions
    39 alpha electrons       39 beta electrons
       nuclear repulsion energy       558.4969462744 Hartrees.
 NAtoms=   17 NActive=   17 NUniq=   17 SFac= 1.00D+00 NAtFMM=   60 NAOKFM=F Big=F
 Integral buffers will be    131072 words long.
 Raffenetti 2 integral format.
 Two-electron integral symmetry is turned on.
 One-electron integrals computed using PRISM.
 NBasis=   225 RedAO= T EigKep=  2.98D-05  NBF=   225
 NBsUse=   225 1.00D-06 EigRej= -1.00D+00 NBFU=   225
 Initial guess from the checkpoint file:  "/scratch/gongke2021/PC/Gau-8683.chk"
 B after Tr=    -0.000000    0.000000   -0.000000
         Rot=    0.999997   -0.000573    0.002417   -0.000853 Ang=  -0.30 deg.
 ExpMin= 4.38D-02 ExpMax= 5.48D+03 ExpMxC= 8.25D+02 IAcc=2 IRadAn=         4 AccDes= 0.00D+00
 Harris functional with IExCor= 1009 and IRadAn=       4 diagonalized for initial guess.
 HarFok:  IExCor= 1009 AccDes= 0.00D+00 IRadAn=         4 IDoV= 1 UseB2=F ITyADJ=14
 ICtDFT=  3500011 ScaDFX=  1.000000  1.000000  1.000000  1.000000
 FoFCou: FMM=F IPFlag=           0 FMFlag=      100000 FMFlg1=           0
         NFxFlg=           0 DoJE=T BraDBF=F KetDBF=T FulRan=T
         wScrn=  0.000000 ICntrl=       500 IOpCl=  0 I1Cent=   200000004 NGrid=           0
         NMat0=    1 NMatS0=      1 NMatT0=    0 NMatD0=    1 NMtDS0=    0 NMtDT0=    0
 Petite list used in FoFCou.
 Requested convergence on RMS density matrix=1.00D-08 within 128 cycles.
 Requested convergence on MAX density matrix=1.00D-06.
 Requested convergence on             energy=1.00D-06.
 No special actions if energy rises.
 SCF Done:  E(RM062X) =  -583.476596275     A.U. after   12 cycles
            NFock= 12  Conv=0.50D-08     -V/T= 2.0082
 Calling FoFJK, ICntrl=      2127 FMM=F ISym2X=0 I1Cent= 0 IOpClX= 0 NMat=1 NMatS=1 NMatT=0.
 ***** Axes restored to original set *****
 -------------------------------------------------------------------
 Center     Atomic                   Forces (Hartrees/Bohr)
 Number     Number              X              Y              Z
 -------------------------------------------------------------------
      1        7           0.000164396   -0.000050016   -0.000136869
      2        7           0.001360380    0.000199174   -0.000055464
      3        6           0.000167403    0.000100182   -0.000246759
      4        6           0.000013067    0.000127663    0.000070102
      5        7          -0.000291288    0.000000759    0.000021355
      6        1          -0.000018671    0.000034984   -0.000024963
      7        1          -0.000005264    0.000004975    0.000005495
      8        1           0.000182293   -0.000654279   -0.000022385
      9        6          -0.000212394   -0.000388244    0.000375453
     10        8           0.000031750    0.000147027   -0.000131360
     11        8           0.000312116   -0.000012398   -0.000427765
     12        8           0.000132113   -0.000318712   -0.000347392
     13        1          -0.000547639    0.000298762    0.000462496
     14        1          -0.000057290    0.000084738   -0.000009008
     15        8          -0.000994659    0.000554498    0.000312973
     16        1           0.000067056   -0.000018226    0.000260197
     17        1          -0.000303368   -0.000110887   -0.000106104
 -------------------------------------------------------------------
 Cartesian Forces:  Max     0.001360380 RMS     0.000334454

 GradGradGradGradGradGradGradGradGradGradGradGradGradGradGradGradGradGrad
 Berny optimization.
 Using GEDIIS/GDIIS optimizer.
 FormGI is forming the generalized inverse of G from B-inverse, IUseBI=4.
 Internal  Forces:  Max     0.004633090 RMS     0.001169936
 Search for a local minimum.
 Step number   2 out of a maximum of   76
 All quantities printed in internal units (Hartrees-Bohrs-Radians)
 Mixed Optimization -- RFO/linear search
 Update second derivatives using D2CorX and points    2    1
 DE=  6.95D-05 DEPred=-4.38D-06 R=-1.59D+01
 Trust test=-1.59D+01 RLast= 5.28D-02 DXMaxT set to 1.50D-01
 ITU= -1  0
 Use linear search instead of GDIIS.
     Eigenvalues ---    0.00108   0.00230   0.00230   0.00869   0.01004
     Eigenvalues ---    0.01134   0.01533   0.01607   0.02102   0.02162
     Eigenvalues ---    0.02270   0.02395   0.02435   0.04619   0.05961
     Eigenvalues ---    0.06119   0.09353   0.13593   0.15621   0.16000
     Eigenvalues ---    0.16000   0.16000   0.16000   0.19434   0.22559
     Eigenvalues ---    0.24207   0.24760   0.24996   0.24999   0.36025
     Eigenvalues ---    0.36136   0.36769   0.40934   0.45251   0.51202
     Eigenvalues ---    0.52864   0.54100   0.54813   0.55208   0.55281
     Eigenvalues ---    0.60164   0.60983   0.62926   0.82544   1.07681
 RFO step:  Lambda=-1.26947774D-05 EMin= 1.07723083D-03
 Quartic linear search produced a step of -0.94616.
 Iteration  1 RMS(Cart)=  0.05492182 RMS(Int)=  0.00069072
 Iteration  2 RMS(Cart)=  0.00154620 RMS(Int)=  0.00003226
 Iteration  3 RMS(Cart)=  0.00000086 RMS(Int)=  0.00003225
 Variable       Old X    -DE/DX   Delta X   Delta X   Delta X     New X
                                 (Linear)    (Quad)   (Total)
    R1        2.51494   0.00057  -0.00020   0.00056   0.00037   2.51531
    R2        2.49765  -0.00006  -0.00014   0.00036   0.00022   2.49787
    R3        2.76009  -0.00066  -0.00001  -0.00007  -0.00008   2.76001
    R4        2.50314  -0.00017   0.00002  -0.00007  -0.00005   2.50309
    R5        2.66382   0.00039   0.00009  -0.00018  -0.00010   2.66373
    R6        2.04023  -0.00004   0.00007  -0.00018  -0.00011   2.04012
    R7        2.50095   0.00005   0.00015  -0.00040  -0.00025   2.50070
    R8        2.03870   0.00000  -0.00003   0.00009   0.00005   2.03876
    R9        1.83731  -0.00016   0.00011  -0.00029  -0.00019   1.83712
   R10        2.25321   0.00009  -0.00029   0.00076   0.00047   2.25368
   R11        2.46991  -0.00122  -0.00008   0.00010   0.00002   2.46994
   R12        1.90724  -0.00059  -0.00052   0.00129   0.00077   1.90801
   R13        2.99454  -0.00044  -0.00092   0.00216   0.00124   2.99577
   R14        1.81994   0.00002  -0.00006   0.00017   0.00011   1.82004
   R15        1.84633  -0.00066   0.00029  -0.00083  -0.00054   1.84580
   R16        3.41504  -0.00012   0.00111  -0.00301  -0.00189   3.41314
   R17        1.81554   0.00002   0.00011  -0.00029  -0.00018   1.81537
    A1        2.01226   0.00062   0.00011  -0.00015  -0.00004   2.01222
    A2        2.15223  -0.00182  -0.00074   0.00155   0.00081   2.15304
    A3        2.11835   0.00119   0.00061  -0.00134  -0.00073   2.11762
    A4        1.81551  -0.00049   0.00013  -0.00044  -0.00031   1.81520
    A5        1.88687   0.00014  -0.00019   0.00052   0.00033   1.88720
    A6        2.11708  -0.00008   0.00021  -0.00056  -0.00035   2.11673
    A7        2.27923  -0.00006  -0.00001   0.00003   0.00001   2.27924
    A8        1.89327   0.00025   0.00007  -0.00014  -0.00007   1.89320
    A9        2.27483  -0.00011  -0.00003   0.00006   0.00003   2.27486
   A10        2.11508  -0.00013  -0.00004   0.00007   0.00003   2.11511
   A11        1.81683  -0.00051  -0.00011   0.00019   0.00007   1.81691
   A12        2.08470   0.00217   0.00066  -0.00127  -0.00062   2.08409
   A13        1.98235  -0.00406  -0.00045   0.00028  -0.00016   1.98218
   A14        2.21594   0.00187  -0.00026   0.00105   0.00079   2.21673
   A15        2.04967  -0.00463  -0.00013  -0.00122  -0.00135   2.04833
   A16        1.97734  -0.00019   0.00036  -0.00101  -0.00067   1.97667
   A17        1.86581  -0.00193  -0.00030   0.00016  -0.00019   1.86562
   A18        1.87816   0.00151   0.00020   0.00008   0.00015   1.87831
   A19        1.62915   0.00025  -0.00037   0.00079   0.00043   1.62958
   A20        1.89791  -0.00043   0.00032  -0.00126  -0.00094   1.89697
   A21        2.54979   0.00012  -0.00085   0.00210   0.00124   2.55103
   A22        2.58265  -0.00278   0.00009  -0.00084  -0.00075   2.58190
   A23        3.37064  -0.00149  -0.00724  -0.01715  -0.02437   3.34627
   A24        3.14733   0.00097  -0.02226   0.08079   0.05850   3.20583
    D1       -0.00708   0.00008   0.00152  -0.00378  -0.00226  -0.00935
    D2       -3.12060   0.00009   0.00240  -0.00597  -0.00357  -3.12417
    D3        0.00879  -0.00003  -0.00058   0.00146   0.00088   0.00967
    D4        3.12290  -0.00009  -0.00147   0.00365   0.00218   3.12508
    D5        2.72856  -0.00046   0.00021  -0.00188  -0.00167   2.72690
    D6       -0.39355   0.00055   0.00263  -0.00489  -0.00225  -0.39580
    D7       -0.38329  -0.00043   0.00115  -0.00422  -0.00307  -0.38636
    D8        2.77778   0.00058   0.00357  -0.00723  -0.00365   2.77413
    D9        0.00234  -0.00010  -0.00175   0.00435   0.00260   0.00494
   D10        3.14117  -0.00004  -0.00061   0.00150   0.00089  -3.14113
   D11        0.00278   0.00009   0.00152  -0.00377  -0.00225   0.00053
   D12       -3.13416   0.00004   0.00061  -0.00150  -0.00089  -3.13505
   D13       -3.13570   0.00002   0.00024  -0.00057  -0.00033  -3.13603
   D14        0.01055  -0.00002  -0.00067   0.00170   0.00103   0.01157
   D15       -0.00662  -0.00004  -0.00057   0.00141   0.00084  -0.00578
   D16        3.13082   0.00001   0.00024  -0.00061  -0.00037   3.13045
   D17       -0.34390  -0.00169  -0.00253   0.00271   0.00018  -0.34372
   D18        2.81892  -0.00058   0.00009  -0.00053  -0.00044   2.81848
   D19       -2.58030  -0.00157  -0.02690   0.02175  -0.00501  -2.58531
   D20        1.66108  -0.00290  -0.02449   0.00415  -0.02048   1.64061
   D21       -0.21012  -0.00126  -0.00335   0.00454   0.00113  -0.20899
   D22       -2.33960  -0.00079  -0.00372   0.00561   0.00195  -2.33765
   D23       -0.48290  -0.00054  -0.01710   0.03369   0.01659  -0.46630
   D24        2.29678  -0.00031  -0.00122   0.00170   0.00048   2.29726
   D25       -2.77968  -0.00023  -0.01587   0.03199   0.01611  -2.76357
         Item               Value     Threshold  Converged?
 Maximum Force            0.004633     0.000450     NO 
 RMS     Force            0.001170     0.000300     NO 
 Maximum Displacement     0.148936     0.001800     NO 
 RMS     Displacement     0.055074     0.001200     NO 
 Predicted change in Energy=-5.785527D-06
 GradGradGradGradGradGradGradGradGradGradGradGradGradGradGradGradGradGrad

                          Input orientation:                          
 ---------------------------------------------------------------------
 Center     Atomic      Atomic             Coordinates (Angstroms)
 Number     Number       Type             X           Y           Z
 ---------------------------------------------------------------------
      1          7           0       -0.931241    0.038930   -0.037726
      2          7           0        0.037090   -0.853737   -0.230486
      3          6           0       -0.545197   -2.017094    0.018618
      4          6           0       -1.890996   -1.770307    0.357509
      5          7           0       -2.103248   -0.465060    0.308098
      6          1           0        0.001449   -2.945015   -0.056537
      7          1           0       -2.679708   -2.454701    0.628591
      8          1           0        1.850441   -0.948321   -1.021661
      9          6           0       -0.747176    1.476011   -0.222330
     10          8           0       -1.694363    2.162817   -0.453458
     11          8           0        0.498866    1.859536   -0.129448
     12          8           0        2.243907    0.549568    1.248719
     13          1           0        1.141033    1.240124    0.343202
     14          1           0        2.886120    1.171679    1.606699
     15          8           0        2.814195   -0.962423   -0.894851
     16          1           0        2.727222   -0.078610    0.677890
     17          1           0        3.175842   -1.716568   -1.367426
 ---------------------------------------------------------------------
                    Distance matrix (angstroms):
                    1          2          3          4          5
     1  N    0.000000
     2  N    1.331043   0.000000
     3  C    2.092711   1.324579   0.000000
     4  C    2.085829   2.214352   1.409584   0.000000
     5  N    1.321818   2.241025   2.218137   1.323315   0.000000
     6  H    3.126371   2.098803   1.079587   2.265551   3.273054
     7  H    3.117582   3.268347   2.262676   1.078864   2.096114
     8  H    3.111358   1.980693   2.821974   4.071379   4.199221
     9  C    1.460534   2.458224   3.507226   3.490432   2.426529
    10  O    2.294795   3.485290   4.360631   4.020672   2.766387
    11  O    2.316942   2.754141   4.017493   4.373137   3.516560
    12  O    3.463706   3.004556   3.984972   4.824262   4.562017
    13  H    2.425343   2.435583   3.682145   4.272716   3.665276
    14  H    4.308074   3.948992   4.946131   5.747747   5.409166
    15  O    3.970599   2.857535   3.637619   4.935575   5.086817
    16  H    3.729648   2.943261   3.860193   4.928735   4.859994
    17  H    4.660258   3.448025   3.982156   5.352676   5.678244
                    6          7          8          9         10
     6  H    0.000000
     7  H    2.810411   0.000000
     8  H    2.887391   5.051214   0.000000
     9  C    4.487025   4.461977   3.641968   0.000000
    10  O    5.396599   4.843884   4.750544   1.192597   0.000000
    11  O    4.830781   5.412079   3.241428   1.307034   2.237681
    12  O    4.352519   5.801049   2.748292   3.459604   4.583662
    13  H    4.355896   5.322710   2.674959   1.985145   3.086341
    14  H    5.294795   6.714594   3.532040   4.079069   5.119319
    15  O    3.541890   5.893279   0.972163   4.368250   5.503549
    16  H    4.023121   5.906195   2.100860   3.911353   5.084718
    17  H    3.647504   6.230280   1.570492   5.185930   6.293160
                   11         12         13         14         15
    11  O    0.000000
    12  O    2.580800   0.000000
    13  H    1.009676   1.585295   0.000000
    14  H    3.030896   0.963125   2.155560   0.000000
    15  O    3.729617   2.684443   3.030423   3.288969   0.000000
    16  H    3.061662   0.976753   2.089754   1.565617   1.806157
    17  H    4.635440   3.584423   3.976019   4.155879   0.960651
                   16         17
    16  H    0.000000
    17  H    2.658474   0.000000
 Stoichiometry    C3H7N3O4
 Framework group  C1[X(C3H7N3O4)]
 Deg. of freedom    45
 Full point group                 C1      NOp   1
 Largest Abelian subgroup         C1      NOp   1
 Largest concise Abelian subgroup C1      NOp   1
                         Standard orientation:                         
 ---------------------------------------------------------------------
 Center     Atomic      Atomic             Coordinates (Angstroms)
 Number     Number       Type             X           Y           Z
 ---------------------------------------------------------------------
      1          7           0       -0.930707   -0.008998   -0.043043
      2          7           0        0.078890   -0.857103   -0.224997
      3          6           0       -0.449250   -2.044160    0.032830
      4          6           0       -1.806220   -1.857557    0.365600
      5          7           0       -2.079036   -0.564140    0.303888
      6          1           0        0.140382   -2.946148   -0.032429
      7          1           0       -2.563001   -2.575645    0.640516
      8          1           0        1.897289   -0.873812   -1.010040
      9          6           0       -0.813349    1.433431   -0.239975
     10          8           0       -1.790808    2.073162   -0.479986
     11          8           0        0.413108    1.875569   -0.146925
     12          8           0        2.212853    0.660773    1.247963
     13          1           0        1.081934    1.291032    0.333110
     14          1           0        2.824122    1.315345    1.602215
     15          8           0        2.860225   -0.841744   -0.880320
     16          1           0        2.726866    0.050862    0.684184
     17          1           0        3.258261   -1.582299   -1.345074
 ---------------------------------------------------------------------
 Rotational constants (GHZ):           1.4513842           1.0645546           0.7030243
 Standard basis: 6-31+G(d,p) (6D, 7F)
 There are   225 symmetry adapted cartesian basis functions of A   symmetry.
 There are   225 symmetry adapted basis functions of A   symmetry.
   225 basis functions,   369 primitive gaussians,   225 cartesian basis functions
    39 alpha electrons       39 beta electrons
       nuclear repulsion energy       560.2279546772 Hartrees.
 NAtoms=   17 NActive=   17 NUniq=   17 SFac= 1.00D+00 NAtFMM=   60 NAOKFM=F Big=F
 Integral buffers will be    131072 words long.
 Raffenetti 2 integral format.
 Two-electron integral symmetry is turned on.
 One-electron integrals computed using PRISM.
 NBasis=   225 RedAO= T EigKep=  2.98D-05  NBF=   225
 NBsUse=   225 1.00D-06 EigRej= -1.00D+00 NBFU=   225
 Lowest energy guess from the checkpoint file:  "/scratch/gongke2021/PC/Gau-8683.chk"
 B after Tr=    -0.000000    0.000000   -0.000000
         Rot=    0.999712    0.003068    0.000582   -0.023785 Ang=   2.75 deg.
 B after Tr=    -0.000000   -0.000000   -0.000000
         Rot=    0.999730    0.003650   -0.001775   -0.022890 Ang=   2.66 deg.
 Requested convergence on RMS density matrix=1.00D-08 within 128 cycles.
 Requested convergence on MAX density matrix=1.00D-06.
 Requested convergence on             energy=1.00D-06.
 No special actions if energy rises.
 SCF Done:  E(RM062X) =  -583.476515884     A.U. after   12 cycles
            NFock= 12  Conv=0.78D-08     -V/T= 2.0082
 Calling FoFJK, ICntrl=      2127 FMM=F ISym2X=0 I1Cent= 0 IOpClX= 0 NMat=1 NMatS=1 NMatT=0.
 ***** Axes restored to original set *****
 -------------------------------------------------------------------
 Center     Atomic                   Forces (Hartrees/Bohr)
 Number     Number              X              Y              Z
 -------------------------------------------------------------------
      1        7           0.000046186   -0.000086590   -0.000363483
      2        7          -0.001159583    0.000326552    0.000854332
      3        6          -0.000021559   -0.000130158   -0.000531719
      4        6           0.000089787   -0.000017053    0.000252056
      5        7           0.000163626    0.000109634   -0.000057090
      6        1           0.000037610   -0.000087163   -0.000023045
      7        1           0.000031964    0.000002821    0.000004261
      8        1          -0.000252838   -0.000358202    0.000283043
      9        6          -0.000241979   -0.000027154    0.000293500
     10        8           0.000562595   -0.000085143    0.000007942
     11        8           0.000885544    0.000072835   -0.001052406
     12        8           0.000187994    0.000353109   -0.000716563
     13        1          -0.001814853    0.000190329    0.001492717
     14        1          -0.000049603    0.000027925    0.000090923
     15        8           0.001089384    0.000204758   -0.000373463
     16        1           0.000279294   -0.000514905   -0.000012906
     17        1           0.000166431    0.000018405   -0.000148098
 -------------------------------------------------------------------
 Cartesian Forces:  Max     0.001814853 RMS     0.000512410

 GradGradGradGradGradGradGradGradGradGradGradGradGradGradGradGradGradGrad
 Berny optimization.
 Using GEDIIS/GDIIS optimizer.
 FormGI is forming the generalized inverse of G from B-inverse, IUseBI=4.
 Internal  Forces:  Max     0.003409308 RMS     0.001015518
 Search for a local minimum.
 Step number   3 out of a maximum of   76
 All quantities printed in internal units (Hartrees-Bohrs-Radians)
 Mixed Optimization -- RFO/linear search
 Iteration  1 RMS(Cart)=  0.05465324 RMS(Int)=  0.00068756
 Iteration  2 RMS(Cart)=  0.00159272 RMS(Int)=  0.00000052
 Iteration  3 RMS(Cart)=  0.00000082 RMS(Int)=  0.00000000
 Update second derivatives using D2CorX and points    3    2    1
 DE=  6.95D-05 DEPred=-5.79D-06 R=-1.20D+01
 Trust test=-1.20D+01 RLast= 5.28D-02 DXMaxT set to 7.50D-02
 ITU= -1 -1  0
 Use linear search instead of GDIIS.
 Energy rises -- skip Quadratic/GDIIS search.
 Quartic linear search produced a step of -0.94616.
 Iteration  1 RMS(Cart)=  0.02252217 RMS(Int)=  0.00013209
 Iteration  2 RMS(Cart)=  0.00018043 RMS(Int)=  0.00000972
 Iteration  3 RMS(Cart)=  0.00000002 RMS(Int)=  0.00000972
 Variable       Old X    -DE/DX   Delta X   Delta X   Delta X     New X
                                 (Linear)    (Quad)   (Total)
    R1        2.51494   0.00057  -0.00020   0.00000   0.00017   2.51511
    R2        2.49765  -0.00006  -0.00014   0.00000   0.00008   2.49773
    R3        2.76009  -0.00066  -0.00001   0.00000  -0.00009   2.76000
    R4        2.50314  -0.00017   0.00002   0.00000  -0.00003   2.50311
    R5        2.66382   0.00039   0.00009   0.00000  -0.00001   2.66381
    R6        2.04023  -0.00004   0.00007   0.00000  -0.00005   2.04019
    R7        2.50095   0.00005   0.00015   0.00000  -0.00009   2.50086
    R8        2.03870   0.00000  -0.00003   0.00000   0.00002   2.03872
    R9        1.83731  -0.00016   0.00011   0.00000  -0.00008   1.83723
   R10        2.25321   0.00009  -0.00029   0.00000   0.00018   2.25339
   R11        2.46991  -0.00122  -0.00008   0.00000  -0.00005   2.46986
   R12        1.90724  -0.00059  -0.00052   0.00000   0.00025   1.90749
   R13        2.99454  -0.00044  -0.00092   0.00000   0.00031   2.99485
   R14        1.81994   0.00002  -0.00006   0.00000   0.00004   1.81998
   R15        1.84633  -0.00066   0.00029   0.00000  -0.00025   1.84609
   R16        3.41504  -0.00012   0.00111   0.00000  -0.00078   3.41425
   R17        1.81554   0.00002   0.00011   0.00000  -0.00007   1.81548
    A1        2.01226   0.00062   0.00011   0.00000   0.00007   2.01233
    A2        2.15223  -0.00182  -0.00074   0.00000   0.00006   2.15229
    A3        2.11835   0.00119   0.00061   0.00000  -0.00012   2.11823
    A4        1.81551  -0.00049   0.00013   0.00000  -0.00018   1.81533
    A5        1.88687   0.00014  -0.00019   0.00000   0.00014   1.88701
    A6        2.11708  -0.00008   0.00021   0.00000  -0.00014   2.11694
    A7        2.27923  -0.00006  -0.00001   0.00000  -0.00000   2.27923
    A8        1.89327   0.00025   0.00007   0.00000   0.00001   1.89327
    A9        2.27483  -0.00011  -0.00003   0.00000  -0.00000   2.27483
   A10        2.11508  -0.00013  -0.00004   0.00000  -0.00001   2.11507
   A11        1.81683  -0.00051  -0.00011   0.00000  -0.00004   1.81679
   A12        2.08470   0.00217   0.00066   0.00000   0.00004   2.08474
   A13        1.98235  -0.00406  -0.00045   0.00000  -0.00061   1.98173
   A14        2.21594   0.00187  -0.00026   0.00000   0.00053   2.21648
   A15        2.04967  -0.00463  -0.00013   0.00000  -0.00147   2.04820
   A16        1.97734  -0.00019   0.00036   0.00000  -0.00031   1.97704
   A17        1.86581  -0.00193  -0.00030   0.00000  -0.00047   1.86534
   A18        1.87816   0.00151   0.00020   0.00000   0.00039   1.87855
   A19        1.62915   0.00025  -0.00037   0.00000   0.00006   1.62921
   A20        1.89791  -0.00043   0.00032   0.00000  -0.00062   1.89729
   A21        2.54979   0.00012  -0.00085   0.00000   0.00039   2.55018
   A22        2.58265  -0.00278   0.00009   0.00000  -0.00065   2.58200
   A23        3.37064  -0.00149  -0.00724   0.00000  -0.03162   3.33902
   A24        3.14733   0.00097  -0.02226   0.00000   0.03625   3.18358
    D1       -0.00708   0.00008   0.00152   0.00000  -0.00075  -0.00783
    D2       -3.12060   0.00009   0.00240   0.00000  -0.00117  -3.12177
    D3        0.00879  -0.00003  -0.00058   0.00000   0.00030   0.00909
    D4        3.12290  -0.00009  -0.00147   0.00000   0.00072   3.12362
    D5        2.72856  -0.00046   0.00021   0.00000  -0.00145   2.72711
    D6       -0.39355   0.00055   0.00263   0.00000   0.00038  -0.39317
    D7       -0.38329  -0.00043   0.00115   0.00000  -0.00191  -0.38521
    D8        2.77778   0.00058   0.00357   0.00000  -0.00008   2.77770
    D9        0.00234  -0.00010  -0.00175   0.00000   0.00085   0.00319
   D10       -3.14202  -0.00004  -0.00061   0.00000   0.00028   3.14145
   D11        0.00278   0.00009   0.00152   0.00000  -0.00073   0.00205
   D12       -3.13416   0.00004   0.00061   0.00000  -0.00028  -3.13444
   D13       -3.13570   0.00002   0.00024   0.00000  -0.00009  -3.13580
   D14        0.01055  -0.00002  -0.00067   0.00000   0.00035   0.01090
   D15       -0.00662  -0.00004  -0.00057   0.00000   0.00026  -0.00635
   D16        3.13082   0.00001   0.00024   0.00000  -0.00013   3.13069
   D17       -0.34390  -0.00169  -0.00253   0.00000  -0.00235  -0.34626
   D18        2.81892  -0.00058   0.00009   0.00000  -0.00035   2.81858
   D19       -2.58030  -0.00157  -0.02690   0.00000  -0.03195  -2.61226
   D20        1.66108  -0.00290  -0.02449   0.00000  -0.04492   1.61616
   D21       -0.21012  -0.00126  -0.00335   0.00000  -0.00221  -0.21232
   D22       -2.33960  -0.00079  -0.00372   0.00000  -0.00179  -2.34139
   D23       -0.48290  -0.00054  -0.01710   0.00000  -0.00050  -0.48340
   D24        2.29678  -0.00031  -0.00122   0.00000  -0.00074   2.29604
   D25       -2.77968  -0.00023  -0.01587   0.00000   0.00024  -2.77944
         Item               Value     Threshold  Converged?
 Maximum Force            0.003409     0.000450     NO 
 RMS     Force            0.001016     0.000300     NO 
 Maximum Displacement     0.076931     0.001800     NO 
 RMS     Displacement     0.022520     0.001200     NO 
 Predicted change in Energy=-2.225036D-04
 GradGradGradGradGradGradGradGradGradGradGradGradGradGradGradGradGradGrad

                          Input orientation:                          
 ---------------------------------------------------------------------
 Center     Atomic      Atomic             Coordinates (Angstroms)
 Number     Number       Type             X           Y           Z
 ---------------------------------------------------------------------
      1          7           0       -0.923197    0.039944   -0.038752
      2          7           0        0.051937   -0.848016   -0.217749
      3          6           0       -0.528063   -2.014221    0.023307
      4          6           0       -1.879115   -1.773586    0.345500
      5          7           0       -2.097068   -0.469341    0.292404
      6          1           0        0.023835   -2.939633   -0.044548
      7          1           0       -2.667967   -2.461601    0.606762
      8          1           0        1.810956   -0.962645   -0.999106
      9          6           0       -0.743169    1.477442   -0.224051
     10          8           0       -1.689856    2.160150   -0.468213
     11          8           0        0.500444    1.865654   -0.119406
     12          8           0        2.250361    0.553989    1.252565
     13          1           0        1.139353    1.250494    0.362534
     14          1           0        2.901700    1.172054    1.600843
     15          8           0        2.777773   -0.966598   -0.896838
     16          1           0        2.721181   -0.077990    0.675262
     17          1           0        3.135132   -1.719268   -1.375111
 ---------------------------------------------------------------------
                    Distance matrix (angstroms):
                    1          2          3          4          5
     1  N    0.000000
     2  N    1.330940   0.000000
     3  C    2.092744   1.324591   0.000000
     4  C    2.085743   2.214248   1.409630   0.000000
     5  N    1.321744   2.240954   2.218298   1.323397   0.000000
     6  H    3.126465   2.098964   1.079621   2.265617   3.273241
     7  H    3.117473   3.268234   2.262688   1.078846   2.096151
     8  H    3.066441   1.928161   2.760824   4.010264   4.145358
     9  C    1.460529   2.457639   3.507017   3.490551   2.426877
    10  O    2.295098   3.485060   4.360818   4.021471   2.767414
    11  O    2.316566   2.752243   4.016420   4.372930   3.516939
    12  O    3.464565   2.993411   3.978243   4.826276   4.568287
    13  H    2.424990   2.433711   3.681537   4.272763   3.665674
    14  H    4.312746   3.938160   4.940065   5.754031   5.421611
    15  O    3.930218   2.811655   3.587859   4.886844   5.042384
    16  H    3.715537   2.918094   3.838180   4.913910   4.849253
    17  H    4.620684   3.406561   3.932120   5.301522   5.631948
                    6          7          8          9         10
     6  H    0.000000
     7  H    2.810429   0.000000
     8  H    2.830806   4.988630   0.000000
     9  C    4.486766   4.462192   3.616392   0.000000
    10  O    5.396667   4.844879   4.721163   1.192444   0.000000
    11  O    4.829446   5.412143   3.238918   1.306994   2.237367
    12  O    4.341119   5.805238   2.750141   3.463290   4.589786
    13  H    4.355142   5.323061   2.683859   1.984812   3.085780
    14  H    5.281608   6.724049   3.536438   4.087612   5.132223
    15  O    3.493342   5.843965   0.972219   4.338549   5.469916
    16  H    3.997850   5.893149   2.101103   3.902544   5.076815
    17  H    3.597201   6.176960   1.570764   5.156075   6.257225
                   11         12         13         14         15
    11  O    0.000000
    12  O    2.581661   0.000000
    13  H    1.009402   1.584807   0.000000
    14  H    3.034199   0.963091   2.155325   0.000000
    15  O    3.716487   2.685196   3.030831   3.290531   0.000000
    16  H    3.056292   0.976907   2.089222   1.565853   1.806744
    17  H    4.622775   3.585414   3.977692   4.155783   0.960710
                   16         17
    16  H    0.000000
    17  H    2.658793   0.000000
 Stoichiometry    C3H7N3O4
 Framework group  C1[X(C3H7N3O4)]
 Deg. of freedom    45
 Full point group                 C1      NOp   1
 Largest Abelian subgroup         C1      NOp   1
 Largest concise Abelian subgroup C1      NOp   1
                         Standard orientation:                         
 ---------------------------------------------------------------------
 Center     Atomic      Atomic             Coordinates (Angstroms)
 Number     Number       Type             X           Y           Z
 ---------------------------------------------------------------------
      1          7           0       -0.925134   -0.007834   -0.037618
      2          7           0        0.089566   -0.851482   -0.210953
      3          6           0       -0.435328   -2.040861    0.042828
      4          6           0       -1.795278   -1.859806    0.366575
      5          7           0       -2.073408   -0.567593    0.301711
      6          1           0        0.158587   -2.940400   -0.017805
      7          1           0       -2.550853   -2.580982    0.636613
      8          1           0        1.850113   -0.892244   -0.996202
      9          6           0       -0.812188    1.434595   -0.237081
     10          8           0       -1.790004    2.070460   -0.485016
     11          8           0        0.412402    1.880831   -0.139679
     12          8           0        2.224378    0.664668    1.239693
     13          1           0        1.080221    1.300509    0.346259
     14          1           0        2.847292    1.315485    1.580222
     15          8           0        2.816323   -0.850546   -0.896661
     16          1           0        2.722512    0.049588    0.667080
     17          1           0        3.206935   -1.590472   -1.368779
 ---------------------------------------------------------------------
 Rotational constants (GHZ):           1.4495440           1.0753075           0.7072936
 Standard basis: 6-31+G(d,p) (6D, 7F)
 There are   225 symmetry adapted cartesian basis functions of A   symmetry.
 There are   225 symmetry adapted basis functions of A   symmetry.
   225 basis functions,   369 primitive gaussians,   225 cartesian basis functions
    39 alpha electrons       39 beta electrons
       nuclear repulsion energy       561.0398555143 Hartrees.
 NAtoms=   17 NActive=   17 NUniq=   17 SFac= 1.00D+00 NAtFMM=   60 NAOKFM=F Big=F
 Integral buffers will be    131072 words long.
 Raffenetti 2 integral format.
 Two-electron integral symmetry is turned on.
 One-electron integrals computed using PRISM.
 NBasis=   225 RedAO= T EigKep=  2.97D-05  NBF=   225
 NBsUse=   225 1.00D-06 EigRej= -1.00D+00 NBFU=   225
 Lowest energy guess from the checkpoint file:  "/scratch/gongke2021/PC/Gau-8683.chk"
 B after Tr=    -0.000000    0.000000   -0.000000
         Rot=    0.999711    0.003654   -0.001806   -0.023675 Ang=   2.75 deg.
 B after Tr=    -0.000000    0.000000    0.000000
         Rot=    0.999997    0.000596   -0.002332    0.000150 Ang=   0.28 deg.
 Requested convergence on RMS density matrix=1.00D-08 within 128 cycles.
 Requested convergence on MAX density matrix=1.00D-06.
 Requested convergence on             energy=1.00D-06.
 No special actions if energy rises.
 SCF Done:  E(RM062X) =  -583.476410105     A.U. after   12 cycles
            NFock= 12  Conv=0.90D-08     -V/T= 2.0082
 Calling FoFJK, ICntrl=      2127 FMM=F ISym2X=0 I1Cent= 0 IOpClX= 0 NMat=1 NMatS=1 NMatT=0.
 ***** Axes restored to original set *****
 -------------------------------------------------------------------
 Center     Atomic                   Forces (Hartrees/Bohr)
 Number     Number              X              Y              Z
 -------------------------------------------------------------------
      1        7          -0.000057960    0.000091713   -0.000277775
      2        7          -0.002867491   -0.000035141    0.000913158
      3        6          -0.000251973   -0.000209291   -0.000171329
      4        6           0.000077617   -0.000072165    0.000136193
      5        7           0.000416423    0.000031582   -0.000049111
      6        1           0.000067738   -0.000092990    0.000001464
      7        1           0.000032468   -0.000009791    0.000007036
      8        1          -0.000389851    0.000380564    0.000214513
      9        6           0.000201325    0.000287477    0.000033450
     10        8           0.000236280   -0.000140693    0.000077980
     11        8           0.000474799    0.000229495   -0.000684662
     12        8           0.000093006    0.000476883   -0.000463082
     13        1          -0.001137961   -0.000241865    0.001078824
     14        1          -0.000000667    0.000004616    0.000094579
     15        8           0.002505969   -0.000457371   -0.000591789
[...]
   yx         0.156866D+02      0.232451D+01      0.258637D+01
   yy         0.608866D+02      0.902246D+01      0.100388D+02
   zx        -0.646135D+00     -0.957473D-01     -0.106533D+00
   zy        -0.190094D+01     -0.281690D+00     -0.313422D+00
   zz         0.899128D+02      0.133237D+02      0.148246D+02

 ----------------------------------------------------------------------
 1\1\GINC-NODE6\Freq\RM062X\6-31+G(d,p)\C3H7N3O4\GONGKE2021\26-May-2023
 \0\\#N Geom=AllCheck Guess=TCheck SCRF=Check GenChk RM062X/6-31+G(d,p)
  Freq\\test\\0,1\N,-0.9394677159,0.0271463509,-0.0351927655\N,0.028470
 1958,-0.8745417567,-0.1816315985\C,-0.5712496867,-2.0310122856,0.05786
 36446\C,-1.9257684892,-1.7702214569,0.3483565047\N,-2.1264402593,-0.46
 41165377,0.276004708\H,-0.02952328,-2.9637845767,0.0118576301\H,-2.728
 5596974,-2.4456767372,0.5996973594\H,1.8580135642,-0.9598388489,-1.009
 7580151\C,-0.7377369334,1.4601402377,-0.2324985899\O,-1.670242188,2.15
 15880142,-0.5048373574\O,0.5080067525,1.8346873999,-0.1056659139\O,2.2
 790988047,0.5440609124,1.2546177449\H,1.1289672051,1.2172705338,0.3961
 198578\H,2.9125164536,1.1795662171,1.604512666\O,2.8261353193,-0.91713
 1499,-0.9303387404\H,2.7637152798,-0.0591793188,0.6580665305\H,3.20830
 06748,-1.6421286485,-1.4317706652\\Version=ES64L-G16RevA.03\State=1-A\
 HF=-583.4766674\RMSD=1.917e-09\RMSF=3.056e-05\ZeroPoint=0.1245889\Ther
 mal=0.1358851\Dipole=1.5504083,-2.158435,0.1941653\DipoleDeriv=0.02547
 04,-0.2582839,-0.0556825,-0.2680071,-1.3513259,0.1820563,-0.0162504,0.
 1814094,0.0173802,-0.6572796,-0.2786622,0.1521666,0.0224888,0.2557409,
 -0.0406246,0.1676198,-0.0298792,-0.2041538,0.1855267,-0.4103399,-0.019
 3029,-0.0455035,-0.0894083,0.0132183,-0.0441442,0.0863988,-0.0451619,0
 .2211881,0.3083631,-0.0964469,0.0445077,-0.2585458,0.004348,-0.0608622
 ,-0.0561592,-0.0335362,-0.3124537,0.4560413,0.0035452,0.0823382,0.1877
 735,-0.0659766,0.0293291,-0.0993547,-0.1538719,0.0741313,0.0586904,0.0
 170505,0.0299247,0.049437,0.0019533,0.0175888,0.0023543,0.150849,0.059
 0504,-0.0414963,0.0276642,-0.0181516,0.0731048,0.0107424,0.0255002,0.0
 134223,0.154669,0.7259845,-0.0530297,-0.1572458,-0.078831,0.2402462,-0
 .0091476,-0.1928288,-0.0046055,0.3383501,2.100157,-0.0226067,0.3917701
 ,0.1750106,2.5205398,-0.2507113,0.2736319,-0.3022664,0.517501,-0.94420
 83,0.4191026,-0.1967301,0.3029633,-1.0939009,0.1532424,-0.1782825,0.15
 38414,-0.4228111,-1.7164899,-0.147928,-0.3430696,-0.0312509,-0.729303,
 0.0765055,-0.3338762,0.0448906,-0.4920402,-0.8143143,0.148906,-0.11963
 24,0.184552,-0.6652111,-0.0148912,-0.2675575,-0.0419025,-0.8424109,1.0
 26246,-0.1440963,0.3510551,-0.4104256,0.4109467,-0.1735578,0.4628345,-
 0.0630458,0.5189046,0.2549039,-0.0254423,-0.0054859,-0.0085579,0.30332
 25,-0.0089453,0.0352903,0.0003271,0.3688517,-0.9105602,0.0698567,0.129
 3637,0.065132,-0.5556448,0.0219362,0.1434111,-0.0215146,-0.7569944,0.3
 276686,-0.0410195,-0.0462158,-0.0498466,0.4477732,0.1818618,-0.0390781
 ,0.2067508,0.5695657,0.3549789,-0.0380554,-0.0328035,0.003657,0.254455
 4,-0.0820098,-0.0223259,-0.0706667,0.3149091\Polar=86.6569816,-0.91019
 63,90.2356134,-1.6503277,-3.17139,51.8635896\Quadrupole=0.7550147,0.50
 33278,-1.2583425,4.9327517,-0.4810745,4.8386087\PG=C01 [X(C3H7N3O4)]\N
 Imag=1\\0.66688206,0.01668284,0.80494868,-0.10045539,-0.07168383,0.154
 49793,-0.21838165,0.05271728,0.02737000,0.55234782,0.13552204,-0.16677
 316,-0.02267621,0.05781581,0.58958158,0.02367557,-0.00574023,-0.076416
 74,-0.10686371,-0.05473205,0.14107563,-0.01540233,-0.02323690,0.006916
 22,-0.18202043,-0.12681399,0.03634024,0.63745751,0.03629085,-0.1460406
 6,0.00390684,-0.11909891,-0.33506247,0.04908290,-0.12306479,0.88613705
 ,0.00291756,0.01966002,0.01035201,0.03619051,0.05231809,-0.08602284,-0
 .10592562,-0.03588196,0.16769504,-0.02567509,-0.01353291,0.01179407,-0
 .05050815,-0.09645937,0.02588352,-0.28433743,0.05360069,0.04461857,0.7
 2840110,-0.08029470,-0.12628939,0.02881657,-0.00279144,0.02358073,-0.0
 0037610,0.00837079,-0.12244822,0.00301464,0.14981993,0.78025250,0.0139
 9002,0.01425720,0.00629811,0.01643290,0.02325361,0.01447102,0.04867027
 ,-0.00840803,-0.08212365,-0.15111788,-0.09374140,0.18379229,-0.2748210
 2,-0.01443541,0.04635655,-0.10604350,0.02581224,0.03018499,-0.00501183
 ,0.01974884,0.00367566,-0.12334771,0.05251496,0.00791856,0.50513071,-0
 .08739081,-0.11151596,0.02770285,-0.00661018,-0.05036688,0.00970768,0.
 11278434,-0.02045291,-0.02313065,0.05614528,-0.40143699,0.01773581,-0.
 04074499,0.62814893,0.05353365,0.00966790,-0.08756875,0.03157935,-0.00
 150906,0.01992254,-0.00162402,-0.00004398,0.02211091,0.00601425,0.0200
 9197,-0.07580456,-0.08838647,-0.04007020,0.13192380,-0.00176943,-0.006
 51427,0.00275958,0.01282478,-0.01592470,-0.00335231,-0.14184617,0.1427
 6332,0.01360912,0.00145205,0.01984833,-0.00211332,-0.00519785,0.003627
 54,0.00230710,0.13327575,-0.00238702,-0.00401863,0.00153238,0.01455354
 ,-0.01886860,-0.00236572,0.13411317,-0.28206444,-0.00964431,-0.0021891
 4,0.00489520,0.00000710,-0.00194974,0.00080122,0.00086655,-0.14345702,
 0.30006710,0.00233593,0.00321977,0.00798327,-0.00558075,0.00399272,-0.
 00618791,0.01444252,-0.01120289,-0.03457698,-0.00048928,-0.00503516,0.
 00004614,0.00272134,-0.00049995,0.00536891,-0.01318285,0.00960561,0.02
 725503,0.00187572,0.00505214,0.00119648,-0.00476465,-0.00041114,0.0027
 1028,-0.00481449,-0.01647420,0.00244468,-0.23703642,-0.14764355,0.0618
 6682,0.00937597,0.00467279,-0.00449873,-0.00041904,0.00036146,-0.00022
 105,0.23480150,0.00033790,-0.00722421,0.00164501,0.00461275,0.00039171
 ,-0.00052919,0.00606280,0.01074854,-0.00247726,-0.13934163,-0.17216267
 ,0.04560165,-0.02445249,-0.01582226,0.00651457,-0.00044448,-0.00039270
 ,0.00002684,0.15465984,0.18402123,0.00125488,-0.00023184,0.00878278,0.
 00206547,0.00079388,0.00574498,0.00013344,0.00274984,-0.00123913,0.061
 24206,0.04758954,-0.05105186,-0.00143205,-0.00035670,-0.00728048,-0.00
 013932,-0.00015217,-0.00114974,-0.06359867,-0.05099756,0.04505660,-0.0
 0201283,0.00362354,-0.00111557,-0.00460012,-0.00363025,-0.00258304,-0.
 00040499,-0.00367818,0.00076308,0.00152067,-0.00093080,0.00012430,0.00
 493211,0.00057679,-0.00045068,0.00027979,-0.00003128,-0.00024889,0.000
 32935,-0.00016366,-0.00000258,0.50084635,0.00205887,-0.00120976,-0.000
 86114,-0.00149457,-0.00425295,0.00158460,-0.00266164,0.00132961,0.0007
 0263,-0.00101735,-0.00073572,0.00010455,0.00043032,-0.00081366,0.00013
 218,-0.00031352,-0.00064767,0.00038862,-0.00011737,0.00006186,-0.00000
 396,0.01605086,0.04093019,-0.00058903,-0.00177959,-0.00008269,0.000188
 29,0.00282011,-0.00334713,0.00045276,0.00089962,-0.00014714,-0.0004613
 9,0.00030723,0.00027340,-0.00223731,0.00021643,0.00095323,0.00015230,0
 .00012235,0.00009894,-0.00012960,0.00007285,0.00009871,0.04299712,0.02
 258348,0.02994837,-0.10444188,-0.02205307,0.00742203,0.00803069,0.0182
 0583,-0.00704208,-0.00361355,0.01137092,0.00139127,-0.01180805,-0.0004
 9205,0.00489081,-0.00616209,-0.03768126,0.00032752,0.00113113,0.001293
 49,0.00008727,0.00054541,-0.00127058,0.00050458,0.00186189,0.00335143,
 -0.00008759,1.04926476,-0.01008330,-0.14288689,0.01154329,0.01330367,-
 0.03861396,0.00060712,0.01914272,0.01770741,-0.00579903,-0.01050985,0.
 02427551,0.00104183,-0.03163018,-0.02944582,0.00764378,0.00072537,0.00
 092872,-0.00015001,-0.00042423,0.00139179,0.00052882,0.00592358,0.0013
 3562,-0.00231496,-0.23427292,0.63015192,0.01134054,0.01084417,-0.05276
 755,-0.00814086,-0.00433424,-0.01274455,0.00110387,-0.00227243,0.00462
 696,0.00343515,-0.00190191,0.00456711,0.00048331,0.00939613,-0.0146219
 9,0.00007909,-0.00017625,0.00232386,0.00034618,0.00019128,0.00199759,-
 0.00043653,-0.00020419,0.00074667,0.16712085,-0.11586247,0.26688080,-0
 .00028419,0.03410321,-0.00579858,0.00507488,-0.00160358,-0.00081413,0.
 00300249,0.00127433,-0.00070857,-0.00011655,0.00455552,-0.00041856,-0.
 00301855,-0.00571266,0.00196652,0.00032342,0.00008298,-0.00012490,-0.0
 0002754,0.00026205,0.00006016,0.00006018,-0.00087152,-0.00045540,-0.53
 959943,0.32659465,-0.13212302,0.63195358,0.04427569,-0.06866260,0.0170
 8609,-0.00891021,-0.00003440,0.00514109,-0.00246648,-0.00734604,0.0002
 9501,0.00439640,-0.00564064,-0.00086564,0.00818858,0.00538789,-0.00043
 195,-0.00069143,-0.00082357,-0.00027992,-0.00003993,-0.00021511,-0.000
 10249,-0.00190105,-0.00008984,0.00095630,0.33203279,-0.34353752,0.1009
 8704,-0.38630035,0.39350499,-0.01129022,0.01633736,0.01484371,0.003548
 28,0.00306053,0.00313377,-0.00131436,0.00093577,-0.00045357,-0.0004364
 7,0.00001537,-0.00009237,-0.00040995,-0.00010390,0.00122086,0.00001457
 ,0.00021575,-0.00071974,0.00000977,0.00001896,-0.00024326,0.00030071,-
 0.00012667,-0.00037676,-0.13000924,0.09958552,-0.12252136,0.16367392,-
 0.12329655,0.08356268,-0.02870290,-0.03274842,0.00245239,-0.00155064,0
 .00737996,-0.00074813,-0.00459662,-0.00659827,0.00168622,0.00308564,-0
 .00575667,-0.00014642,0.00992467,0.00082630,-0.00260710,-0.00015482,-0
 .00044380,0.00011490,0.00040896,-0.00051673,-0.00002903,-0.00304283,-0
 .00217780,0.00016178,-0.35816020,-0.08983808,-0.02925274,-0.09948418,0
 .01313476,-0.02348092,0.63508919,-0.04910310,-0.02695172,0.00203253,-0
 .00304706,-0.00130066,-0.00070388,-0.00261505,-0.00016166,0.00086090,-
 0.00215964,-0.00358512,0.00137198,0.00448810,-0.00552211,-0.00223312,0
 .00004149,-0.00008106,0.00000913,0.00021164,-0.00066760,0.00023020,-0.
 00137270,0.00003842,0.00087811,-0.06940708,-0.13711816,0.01460336,0.03
 643899,0.02599368,0.00239286,-0.02634030,0.32909875,0.00094386,0.00365
 603,0.01414755,0.00053172,-0.00162747,0.00119724,-0.00002219,0.0001967
 6,0.00008670,-0.00084868,0.00031712,-0.00043140,0.00111538,-0.00105572
 ,0.00401638,-0.00002509,-0.00007731,-0.00025413,-0.00019634,-0.0001387
 4,-0.00070094,-0.00105284,0.00107652,-0.00064992,-0.03956019,0.0088502
 5,-0.07264828,-0.03099236,-0.00014636,0.01588144,0.17095639,-0.1383639
 0,0.14690199,-0.00031962,-0.00214330,0.00018928,-0.00184022,-0.0009206
 0,-0.00208153,-0.00090334,-0.00029329,0.00019892,0.00031438,-0.0009007
 8,0.00024016,0.00104565,-0.00005884,-0.00004369,-0.00008073,-0.0001056
 4,-0.00004009,-0.00001473,-0.00003706,0.00001470,-0.00246849,0.0014181
 7,0.00218046,0.01395924,0.00935767,-0.00090037,-0.00657128,0.00023351,
 -0.00064645,-0.03258457,0.01423121,-0.02087954,0.44344200,0.00256251,0
 .00207208,-0.00049272,-0.00178331,-0.00229052,-0.00208615,0.00131864,0
 .00162295,-0.00056744,-0.00062044,0.00142214,0.00017589,-0.00260481,-0
 .00048920,0.00080840,0.00013741,0.00020937,-0.00000981,-0.00007371,0.0
 0011217,0.00006087,0.00186871,-0.00075145,0.00111849,-0.01069294,-0.01
 044094,0.00135337,0.00475023,0.00083734,0.00043852,0.02446749,0.001091
 81,0.01258537,0.07559058,0.46509373,-0.00014485,-0.00186681,-0.0000769
 2,-0.00202819,-0.00064356,-0.00090380,-0.00052056,0.00005648,0.0000495
 8,-0.00000364,-0.00046971,0.00016394,-0.00030023,-0.00012724,0.0002402
 9,0.00004051,-0.00002029,-0.00019327,-0.00008069,-0.00001415,-0.000031
 38,0.00121222,0.00097457,0.00003730,0.00862255,0.00684789,-0.00089454,
 -0.00474137,0.00019770,-0.00067122,-0.02479378,0.00866854,-0.00594369,
 -0.01557359,0.31855606,0.29640589,0.00305784,0.00506919,0.00008976,0.0
 0078027,-0.00288084,-0.00063471,0.00278570,0.00212803,-0.00062756,-0.0
 0095853,0.00319704,-0.00030326,-0.00395240,-0.00034185,0.00153981,0.00
 017071,0.00028171,0.00002833,-0.00008057,0.00020391,-0.00007196,0.0034
 0247,0.00057659,0.00058000,-0.04877031,0.00525881,-0.01299385,0.008320
 86,-0.00289064,-0.00006786,-0.12182674,0.09561334,-0.07867899,0.014348
 91,-0.01412979,0.01753673,0.14936060,-0.00728322,-0.00550593,0.0010766
 4,-0.00131337,0.00155053,0.00105528,-0.00148452,-0.00294920,0.00073966
 ,0.00133809,-0.00204678,-0.00047452,0.00381269,0.00114369,-0.00112238,
 -0.00005745,-0.00014099,0.00010860,0.00014851,-0.00018868,-0.00009699,
 -0.00038200,-0.00121346,-0.00178520,0.00890436,0.02467131,-0.01308763,
 -0.01349464,0.00106963,0.00069692,0.11809611,-0.17768032,0.11429701,-0
 .01084080,-0.01337172,-0.01017789,-0.09477872,0.16981727,0.00238055,0.
 00237086,-0.00023951,0.00003117,0.00070575,-0.00067041,0.00159369,0.00
 067585,-0.00044205,0.00008739,0.00157385,0.00000751,-0.00124820,0.0007
 0008,0.00015541,0.00005090,0.00015595,0.00000497,0.00004658,0.00012820
 ,0.00003874,0.00176516,-0.00223959,0.00022607,-0.01300168,-0.01421727,
 -0.00438180,0.01005417,0.00121640,0.00616431,-0.09246749,0.10845509,-0
 .09832298,0.01283747,-0.00948587,-0.00728867,0.07538639,-0.08971825,0.
 09826965,0.00054410,0.00028916,-0.00015040,-0.00018669,-0.00049623,-0.
 00048561,0.00010788,0.00023809,-0.00011045,-0.00013716,0.00016784,0.00
 007924,-0.00029052,-0.00012954,0.00013420,-0.00001269,-0.00000964,-0.0
 0002955,-0.00000978,0.00001226,0.00000921,-0.00024556,-0.00012704,-0.0
 0031159,-0.00124055,-0.00076093,-0.00014225,0.00033825,0.00004362,0.00
 016067,0.00040668,0.00212320,-0.00040147,-0.26566116,-0.23370445,-0.13
 164618,-0.00212270,-0.00626235,-0.00047794,0.25479314,-0.00038052,-0.0
 0022441,0.00005745,0.00008179,0.00028722,0.00010414,-0.00003807,-0.000
 11210,0.00002431,0.00003460,-0.00005801,-0.00003281,0.00018624,0.00004
 622,-0.00004846,-0.00001210,-0.00001453,-0.00000493,0.00000452,-0.0000
 0894,-0.00001140,-0.00008050,-0.00006531,0.00011865,-0.00040096,0.0002
 7064,-0.00004418,0.00040331,-0.00025804,0.00001365,0.00265337,-0.00359
 679,0.00182794,-0.19697213,-0.24962250,-0.14193417,-0.00313172,0.00791
 791,-0.00208749,0.22120479,0.26069835,0.00000756,0.00041191,0.00004822
 ,0.00019244,-0.00022096,0.00002638,-0.00002565,0.00001231,0.00001561,-
 0.00006217,0.00007493,-0.00001941,0.00000278,-0.00001356,-0.00004800,-
 0.00001086,-0.00001378,0.00001307,0.00001015,0.00000872,0.00001247,-0.
 00016784,0.00012798,0.00042081,-0.00167498,-0.00035207,-0.00007717,0.0
 0064950,-0.00019545,0.00008653,0.00114624,0.00120582,-0.00021999,-0.09
 846274,-0.12965744,-0.08374541,-0.00293016,-0.00337769,-0.00090637,0.1
 2209166,0.14793903,0.09237292,0.00028227,-0.00285179,0.00073829,-0.008
 12985,0.00382342,0.00417570,0.00009369,0.00220243,-0.00020955,-0.00074
 828,0.00062437,-0.00000888,-0.00333711,0.00000380,0.00052386,0.0001116
 1,0.00011223,-0.00000791,-0.00020884,0.00010609,0.00001345,-0.49189515
 ,-0.04802586,-0.06067460,0.00002050,-0.00385706,0.00044116,-0.00059997
 ,0.00151386,-0.00033797,0.00080364,0.00106854,0.00057312,0.00418568,0.
 00280975,0.00555768,-0.00081116,-0.00061520,-0.00128687,-0.00118633,0.
 00083690,0.00113533,0.63165367,-0.00067417,0.00155321,0.00024119,0.002
 48868,0.00216943,-0.00075143,0.00154989,-0.00088141,-0.00028150,0.0004
 8015,0.00070055,-0.00014719,-0.00052080,0.00042613,0.00000260,0.000513
 55,0.00038692,-0.00020018,0.00006633,-0.00002256,-0.00000734,-0.005048
 59,-0.03651363,-0.02277299,-0.00350949,-0.00219050,0.00003022,0.001027
 99,0.00026447,0.00012101,0.00316754,0.00016282,0.00021553,0.00235227,-
 0.00566743,-0.01154240,-0.00258259,0.00115894,-0.00014926,0.00112567,-
 0.00042416,-0.00037104,-0.13224070,0.35820215,0.00047743,0.00075899,0.
 00022593,0.00381393,-0.00092973,0.00146796,-0.00012476,-0.00012734,0.0
 0008545,0.00005953,-0.00005346,-0.00006731,0.00072526,-0.00017569,-0.0
 0047317,-0.00025408,-0.00010874,-0.00026556,0.00003513,-0.00002640,-0.
 00008158,-0.03030499,-0.02686943,-0.02809894,-0.00167042,0.00030068,-0
 .00078707,0.00096740,-0.00054913,0.00043239,0.00243755,-0.00088922,0.0
 0197652,0.00323119,-0.01174906,-0.00993123,-0.00368025,0.00225426,-0.0
 0286810,0.00192480,-0.00037574,-0.00099167,-0.06135698,0.25609025,0.19
 914722,-0.00082118,0.00042206,0.00021878,0.00049329,0.00066404,0.00128
 593,-0.00005962,-0.00070422,0.00003140,0.00016976,-0.00013752,-0.00013
 113,0.00072162,0.00016904,-0.00036154,0.00002775,-0.00003062,0.0000060
 4,0.00005222,-0.00003567,-0.00003373,0.00091970,-0.00330241,-0.0066316
 7,-0.00066826,0.00079618,-0.00031022,0.00040726,-0.00041549,0.00023782
 ,0.00001233,-0.00000463,-0.00157313,-0.16791537,0.15170250,0.14942050,
 -0.00319274,0.00399101,0.00444845,0.01462059,-0.02427661,-0.02193871,-
 0.00682683,0.00107163,-0.00000333,0.16272394,-0.00024544,-0.00069520,0
 .00002220,0.00039935,-0.00046964,-0.00031013,-0.00089690,-0.00043142,0
 .00021299,0.00011053,-0.00066330,0.00010738,0.00136336,-0.00003421,-0.
 00032482,-0.00016515,-0.00020711,-0.00002130,0.00003266,-0.00003213,0.
 00000715,-0.00375010,0.00221758,-0.00194279,0.00445506,0.00343107,0.00
 057236,-0.00148211,-0.00042041,-0.00034062,-0.00527464,0.00033275,-0.0
 0171699,0.10935159,-0.19069752,-0.16880603,0.00860042,-0.00428670,0.00
 195961,0.01621211,-0.01500860,-0.01554540,-0.00021602,-0.00143365,0.00
 414470,-0.13003657,0.21031416,-0.00038126,-0.00000702,-0.00002258,0.00
 074075,-0.00024171,-0.00117942,-0.00026788,-0.00045820,0.00007087,0.00
 026391,-0.00035517,0.00003607,0.00119284,0.00000189,-0.00017177,-0.000
 12618,-0.00007551,0.00018437,0.00007275,-0.00003325,0.00003185,-0.0052
 8670,-0.00104368,-0.00114568,0.00262737,0.00234253,0.00014612,-0.00108
 864,-0.00025500,-0.00014348,-0.00554160,0.00134860,-0.00518726,0.11996
 706,-0.17967752,-0.18544321,0.00507609,-0.00040124,0.01067072,0.008897
 49,-0.00524049,-0.00667844,-0.00472638,0.00366552,-0.00311394,-0.12568
 207,0.18090745,0.18888263,-0.00000989,-0.00044336,0.00001652,-0.001525
 83,-0.00008265,0.00034902,-0.00043648,0.00029438,0.00005475,-0.0002702
 3,-0.00015128,0.00002634,0.00005187,-0.00013575,0.00004596,-0.00011627
 ,-0.00019469,0.00018894,-0.00001307,0.00000469,0.00000939,-0.00948255,
 0.03622284,0.02486546,-0.00034933,0.00027389,-0.00005031,0.00022076,-0
 .00020364,0.00004769,0.00037238,-0.00016693,0.00011035,0.00106365,-0.0
 0159836,-0.00255709,-0.00051220,0.00022150,-0.00019973,0.00028252,-0.0
 0011290,0.00003744,-0.12340754,0.13073263,0.08372260,-0.00066447,0.001
 54185,0.00426245,0.13479670,0.00011156,-0.00057543,0.00005084,-0.00092
 383,0.00047205,0.00031207,-0.00006401,0.00040496,-0.00004611,-0.000095
 35,-0.00005977,0.00001257,-0.00020690,-0.00005405,0.00005601,-0.000076
 90,-0.00002925,0.00005285,-0.00002577,0.00000960,0.00000015,-0.0070743
 5,0.00038020,0.00050192,0.00016649,0.00006979,-0.00009466,-0.00002841,
 -0.00002983,0.00003552,-0.00003083,-0.00005304,0.00010397,-0.00026255,
 0.00086969,0.00030102,-0.00019288,0.00005450,-0.00004388,0.00007345,0.
 00017304,-0.00003329,0.17470524,-0.31789130,-0.22169493,0.00012728,-0.
 00191566,-0.00047720,-0.16620223,0.31817450,0.00000319,0.00012509,-0.0
 0000477,-0.00007128,-0.00002969,0.00043328,0.00017203,-0.00012156,-0.0
 0008775,0.00002106,0.00013169,-0.00006505,-0.00036246,0.00007274,0.000
 05640,0.00019086,0.00012838,0.00006877,-0.00001374,0.00000846,0.000014
 66,-0.00551294,0.00367355,0.00104479,0.00005194,-0.00059591,0.00015519
 ,-0.00010615,0.00024287,-0.00010393,0.00011175,0.00013302,0.00015078,-
 0.00023123,-0.00137097,-0.00177366,-0.00024855,0.00001342,-0.00041749,
 0.00045816,-0.00030548,-0.00030955,0.11545054,-0.22414299,-0.15665690,
 0.00101660,0.00107425,0.00306317,-0.11092978,0.22096314,0.15443206\\-0
 .00000568,0.00004351,-0.00004730,0.00000095,-0.00005832,0.00001795,-0.
 00000589,-0.00001284,0.00001501,0.00001206,0.00001235,-0.00001364,-0.0
 0000520,-0.00000656,0.00002960,0.00000297,0.00000111,-0.00000538,0.000
 00043,-0.00000187,-0.00000160,-0.00000156,-0.00001976,-0.00001088,0.00
 008256,-0.00002800,0.00003373,-0.00006431,0.00003878,-0.00001992,-0.00
 006129,0.00006216,-0.00002871,0.00002920,0.00000872,0.00001197,0.00003
 713,-0.00005668,0.00000608,0.00000346,-0.00000681,0.00000781,0.0000110
 1,0.00007012,-0.00001005,-0.00003354,-0.00001607,-0.00001200,-0.000002
 30,-0.00002983,0.00002734\\\@


 YOU KNOW YOU'RE A TEACHER WHEN YOU SAY 2, WRITE 3, AND MEAN 4.
 -- RONALD ANSTROM, HIGH SCHOOL TEACHER, UNDERWOOD, N.D. 1974
 Job cpu time:       0 days  0 hours 17 minutes 12.3 seconds.
 Elapsed time:       0 days  0 hours  0 minutes 43.3 seconds.
 File lengths (MBytes):  RWF=     98 Int=      0 D2E=      0 Chk=      5 Scr=      1
 Normal termination of Gaussian 16 at Fri May 26 15:26:23 2023.
