 Entering Gaussian System, Link 0=/home/gau/soft/g16/g16
 Initial command:
 /home/gau/soft/g16/l1.exe "/home/gau/soft/scratch/Gau-170081.inp" -scrdir="/home/gau/soft/scratch/"
 Entering Link 1 = /home/gau/soft/g16/l1.exe PID=    170082.
  
 Copyright (c) 1988-2019, Gaussian, Inc.  All Rights Reserved.
  
 This is part of the Gaussian(R) 16 program.  It is based on
 the Gaussian(R) 09 system (copyright 2009, Gaussian, Inc.),
 the Gaussian(R) 03 system (copyright 2003, Gaussian, Inc.),
 the Gaussian(R) 98 system (copyright 1998, Gaussian, Inc.),
 the Gaussian(R) 94 system (copyright 1995, Gaussian, Inc.),
 the Gaussian 92(TM) system (copyright 1992, Gaussian, Inc.),
 the Gaussian 90(TM) system (copyright 1990, Gaussian, Inc.),
 the Gaussian 88(TM) system (copyright 1988, Gaussian, Inc.),
 the Gaussian 86(TM) system (copyright 1986, Carnegie Mellon
 University), and the Gaussian 82(TM) system (copyright 1983,
 Carnegie Mellon University). Gaussian is a federally registered
 trademark of Gaussian, Inc.
  
 This software contains proprietary and confidential information,
 including trade secrets, belonging to Gaussian, Inc.
  
 This software is provided under written license and may be
 used, copied, transmitted, or stored only in accord with that
 written license.
  
 The following legend is applicable only to US Government
 contracts under FAR:
  
                    RESTRICTED RIGHTS LEGEND
  
 Use, reproduction and disclosure by the US Government is
 subject to restrictions as set forth in subparagraphs (a)
 and (c) of the Commercial Computer Software - Restricted
 Rights clause in FAR 52.227-19.
  
 Gaussian, Inc.
 340 Quinnipiac St., Bldg. 40, Wallingford CT 06492
  
  
 ---------------------------------------------------------------
 Warning -- This program may not be used in any manner that
 competes with the business of Gaussian, Inc. or will provide
 assistance to any competitor of Gaussian, Inc.  The licensee
 of this program is prohibited from giving any competitor of
 Gaussian, Inc. access to this program.  By using this program,
 the user acknowledges that Gaussian, Inc. is engaged in the
 business of creating and licensing software in the field of
 computational chemistry and represents and warrants to the
 licensee that it is not a competitor of Gaussian, Inc. and that
 it will not use this program in any manner prohibited above.
 ---------------------------------------------------------------
  

 Cite this work as:
 Gaussian 16, Revision C.01,
 M. J. Frisch, G. W. Trucks, H. B. Schlegel, G. E. Scuseria, 
 M. A. Robb, J. R. Cheeseman, G. Scalmani, V. Barone, 
 G. A. Petersson, H. Nakatsuji, X. Li, M. Caricato, A. V. Marenich, 
 J. Bloino, B. G. Janesko, R. Gomperts, B. Mennucci, H. P. Hratchian, 
 J. V. Ortiz, A. F. Izmaylov, J. L. Sonnenberg, D. Williams-Young, 
 F. Ding, F. Lipparini, F. Egidi, J. Goings, B. Peng, A. Petrone, 
 T. Henderson, D. Ranasinghe, V. G. Zakrzewski, J. Gao, N. Rega, 
 G. Zheng, W. Liang, M. Hada, M. Ehara, K. Toyota, R. Fukuda, 
 J. Hasegawa, M. Ishida, T. Nakajima, Y. Honda, O. Kitao, H. Nakai, 
 T. Vreven, K. Throssell, J. A. Montgomery, Jr., J. E. Peralta, 
 F. Ogliaro, M. J. Bearpark, J. J. Heyd, E. N. Brothers, K. N. Kudin, 
 V. N. Staroverov, T. A. Keith, R. Kobayashi, J. Normand, 
 K. Raghavachari, A. P. Rendell, J. C. Burant, S. S. Iyengar, 
 J. Tomasi, M. Cossi, J. M. Millam, M. Klene, C. Adamo, R. Cammi, 
 J. W. Ochterski, R. L. Martin, K. Morokuma, O. Farkas, 
 J. B. Foresman, and D. J. Fox, Gaussian, Inc., Wallingford CT, 2019.
 
 ******************************************
 Gaussian 16:  ES64L-G16RevC.01  3-Jul-2019
                 7-Dec-2023 
 ******************************************
 %mem=10GB
 %nprocshared=48
 Will use up to   48 processors via shared memory.
 ----------------------------
 # opt freq 6-31+g(d,p) m062x
 ----------------------------
 1/18=20,19=15,26=3,38=1/1,3;
 2/9=110,12=2,17=6,18=5,40=1/2;
 3/5=1,6=6,7=111,11=2,25=1,30=1,71=1,74=-55/1,2,3;
 4//1;
 5/5=2,38=5/2;
 6/7=2,8=2,9=2,10=2,28=1/1;
 7//1,2,3,16;
 1/18=20,19=15,26=3/3(2);
 2/9=110/2;
 99//99;
 2/9=110/2;
 3/5=1,6=6,7=111,11=2,25=1,30=1,71=1,74=-55/1,2,3;
 4/5=5,16=3,69=1/1;
 5/5=2,38=5/2;
 7//1,2,3,16;
 1/18=20,19=15,26=3/3(-5);
 2/9=110/2;
 6/7=2,8=2,9=2,10=2,19=2,28=1/1;
 99/9=1/99;
 --
 RC
 --
 Symbolic Z-matrix:
 Charge = -1 Multiplicity = 2
 N                    -0.36646  -0.33579  -0.11955 
 N                    -0.43594   0.95696   0.42811 
 C                    -1.76666   1.33538   0.2619 
 C                    -2.43512   0.21001  -0.16416 
 N                    -1.6092   -0.83064  -0.36505 
 H                    -2.11465   2.30999   0.56395 
 H                    -3.49846   0.09045  -0.32322 
 H                     0.11193   1.21353   1.32706 
 C                     0.8212   -1.17144   0.11154 
 O                     1.8328   -0.49441   0.45219 
 O                     0.68464  -2.37174  -0.09112 
 O                     0.87457   0.90336   2.1632 
 H                     0.81759  -0.0322    2.5401 
 H                     1.22991   1.43354   2.88208 
 
 Add virtual bond connecting atoms O12        and H8         Dist= 2.22D+00.

 GradGradGradGradGradGradGradGradGradGradGradGradGradGradGradGradGradGrad
 Berny optimization.
 Initialization pass.
                           ----------------------------
                           !    Initial Parameters    !
                           ! (Angstroms and Degrees)  !
 --------------------------                            --------------------------
 ! Name  Definition              Value          Derivative Info.                !
 --------------------------------------------------------------------------------
 ! R1    R(1,2)                  1.4057         estimate D2E/DX2                !
 ! R2    R(1,5)                  1.36           estimate D2E/DX2                !
 ! R3    R(1,9)                  1.4705         estimate D2E/DX2                !
 ! R4    R(2,3)                  1.3934         estimate D2E/DX2                !
 ! R5    R(2,8)                  1.0836         estimate D2E/DX2                !
 ! R6    R(3,4)                  1.3765         estimate D2E/DX2                !
 ! R7    R(3,6)                  1.0781         estimate D2E/DX2                !
 ! R8    R(4,5)                  1.3437         estimate D2E/DX2                !
 ! R9    R(4,7)                  1.0818         estimate D2E/DX2                !
 ! R10   R(8,12)                 1.1734         estimate D2E/DX2                !
 ! R11   R(9,10)                 1.264          estimate D2E/DX2                !
 ! R12   R(9,11)                 1.2249         estimate D2E/DX2                !
 ! R13   R(12,13)                1.0102         estimate D2E/DX2                !
 ! R14   R(12,14)                0.9613         estimate D2E/DX2                !
 ! A1    A(2,1,5)              111.0878         estimate D2E/DX2                !
 ! A2    A(2,1,9)              120.0878         estimate D2E/DX2                !
 ! A3    A(5,1,9)              124.0306         estimate D2E/DX2                !
 ! A4    A(1,2,3)              104.5062         estimate D2E/DX2                !
 ! A5    A(1,2,8)              121.064          estimate D2E/DX2                !
 ! A6    A(3,2,8)              121.1656         estimate D2E/DX2                !
 ! A7    A(2,3,4)              106.18           estimate D2E/DX2                !
 ! A8    A(2,3,6)              121.357          estimate D2E/DX2                !
 ! A9    A(4,3,6)              131.9947         estimate D2E/DX2                !
 ! A10   A(3,4,5)              112.3926         estimate D2E/DX2                !
 ! A11   A(3,4,7)              127.8205         estimate D2E/DX2                !
 ! A12   A(5,4,7)              119.7762         estimate D2E/DX2                !
 ! A13   A(1,5,4)              104.6486         estimate D2E/DX2                !
 ! A14   A(2,8,12)             149.0011         estimate D2E/DX2                !
 ! A15   A(1,9,10)             112.6036         estimate D2E/DX2                !
 ! A16   A(1,9,11)             116.1562         estimate D2E/DX2                !
 ! A17   A(10,9,11)            131.1979         estimate D2E/DX2                !
 ! A18   A(8,12,13)            118.293          estimate D2E/DX2                !
 ! A19   A(8,12,14)            128.8512         estimate D2E/DX2                !
 ! A20   A(13,12,14)           104.6315         estimate D2E/DX2                !
 ! D1    D(5,1,2,3)            -11.3861         estimate D2E/DX2                !
 ! D2    D(5,1,2,8)            129.8657         estimate D2E/DX2                !
 ! D3    D(9,1,2,3)           -167.8257         estimate D2E/DX2                !
 ! D4    D(9,1,2,8)            -26.5739         estimate D2E/DX2                !
 ! D5    D(2,1,5,4)              8.8831         estimate D2E/DX2                !
 ! D6    D(9,1,5,4)            164.217          estimate D2E/DX2                !
 ! D7    D(2,1,9,10)           -19.9812         estimate D2E/DX2                !
 ! D8    D(2,1,9,11)           162.1156         estimate D2E/DX2                !
 ! D9    D(5,1,9,10)          -173.2364         estimate D2E/DX2                !
 ! D10   D(5,1,9,11)             8.8604         estimate D2E/DX2                !
 ! D11   D(1,2,3,4)              9.0321         estimate D2E/DX2                !
 ! D12   D(1,2,3,6)           -177.9326         estimate D2E/DX2                !
 ! D13   D(8,2,3,4)           -132.1705         estimate D2E/DX2                !
 ! D14   D(8,2,3,6)             40.8648         estimate D2E/DX2                !
 ! D15   D(1,2,8,12)             4.3337         estimate D2E/DX2                !
 ! D16   D(3,2,8,12)           139.2492         estimate D2E/DX2                !
 ! D17   D(2,3,4,5)             -4.1322         estimate D2E/DX2                !
 ! D18   D(2,3,4,7)            174.6635         estimate D2E/DX2                !
 ! D19   D(6,3,4,5)           -176.1234         estimate D2E/DX2                !
 ! D20   D(6,3,4,7)              2.6723         estimate D2E/DX2                !
 ! D21   D(3,4,5,1)             -2.8447         estimate D2E/DX2                !
 ! D22   D(7,4,5,1)            178.2514         estimate D2E/DX2                !
 ! D23   D(2,8,12,13)          -40.5545         estimate D2E/DX2                !
 ! D24   D(2,8,12,14)          176.1287         estimate D2E/DX2                !
 ! D25   D(8,12,13,14)        -151.2605         estimate D2E/DX2                !
 --------------------------------------------------------------------------------
 Trust Radius=3.00D-01 FncErr=1.00D-07 GrdErr=1.00D-06 EigMax=2.50D+02 EigMin=1.00D-04
 Number of steps in this run=     69 maximum allowed number of steps=    100.
 GradGradGradGradGradGradGradGradGradGradGradGradGradGradGradGradGradGrad

                          Input orientation:                          
 ---------------------------------------------------------------------
 Center     Atomic      Atomic             Coordinates (Angstroms)
 Number     Number       Type             X           Y           Z
 ---------------------------------------------------------------------
      1          7           0       -0.366461   -0.335787   -0.119546
      2          7           0       -0.435937    0.956961    0.428110
      3          6           0       -1.766659    1.335380    0.261904
      4          6           0       -2.435123    0.210005   -0.164162
      5          7           0       -1.609202   -0.830639   -0.365052
      6          1           0       -2.114654    2.309994    0.563950
      7          1           0       -3.498459    0.090448   -0.323217
      8          1           0        0.111925    1.213530    1.327062
      9          6           0        0.821202   -1.171443    0.111544
     10          8           0        1.832803   -0.494412    0.452189
     11          8           0        0.684637   -2.371739   -0.091120
     12          8           0        0.874567    0.903356    2.163202
     13          1           0        0.817593   -0.032202    2.540105
     14          1           0        1.229913    1.433545    2.882084
 ---------------------------------------------------------------------
                    Distance matrix (angstroms):
                    1          2          3          4          5
     1  N    0.000000
     2  N    1.405685   0.000000
     3  C    2.213336   1.393430   0.000000
     4  C    2.139916   2.214830   1.376534   0.000000
     5  N    1.359984   2.280607   2.260421   1.343667   0.000000
     6  H    3.243995   2.160380   1.078056   2.245618   3.313925
     7  H    3.167423   3.270226   2.211640   1.081793   2.102247
     8  H    2.172996   1.083557   2.162981   3.117413   3.162935
     9  C    1.470465   2.492131   3.606077   3.547966   2.500031
    10  O    2.277895   2.693370   4.042335   4.369357   3.553636
    11  O    2.291444   3.550427   4.458274   4.050141   2.776999
    12  O    2.878639   2.175049   3.282934   4.105046   3.945620
    13  H    2.927096   2.647698   3.706594   4.236966   3.868691
    14  H    3.832588   3.004027   3.981761   4.920280   4.871447
                    6          7          8          9         10
     6  H    0.000000
     7  H    2.761950   0.000000
     8  H    2.596580   4.125483   0.000000
     9  C    4.576497   4.521157   2.769233   0.000000
    10  O    4.843511   5.419010   2.577574   1.264020   0.000000
    11  O    5.493976   4.859478   3.897870   1.224922   2.266677
    12  O    3.670379   5.095729   1.173440   2.918380   2.408223
    13  H    4.241361   5.180923   1.876510   2.682497   2.367209
    14  H    4.162696   5.868165   1.927796   3.824774   3.159887
                   11         12         13         14
    11  O    0.000000
    12  O    3.980488   0.000000
    13  H    3.523415   1.010232   0.000000
    14  H    4.859779   0.961334   1.560568   0.000000
 Stoichiometry    C3H5N3O3(1-,2)
 Framework group  C1[X(C3H5N3O3)]
 Deg. of freedom    36
 Full point group                 C1      NOp   1
 Largest Abelian subgroup         C1      NOp   1
 Largest concise Abelian subgroup C1      NOp   1
                         Standard orientation:                         
 ---------------------------------------------------------------------
 Center     Atomic      Atomic             Coordinates (Angstroms)
 Number     Number       Type             X           Y           Z
 ---------------------------------------------------------------------
      1          7           0       -0.165310   -0.498320   -0.267854
      2          7           0       -0.661214    0.807069   -0.429063
      3          6           0       -2.036985    0.682872   -0.246101
      4          6           0       -2.249511   -0.599610    0.206578
      5          7           0       -1.118847   -1.324849    0.239270
      6          1           0       -2.694926    1.531103   -0.345211
      7          1           0       -3.180820   -1.041400    0.534848
      8          1           0       -0.119256    1.662601   -0.043782
      9          6           0        1.280588   -0.725352   -0.126067
     10          8           0        1.969063    0.242272   -0.559025
     11          8           0        1.614001   -1.807402    0.341305
     12          8           0        0.836015    2.093708    0.484010
     13          1           0        1.233084    1.574319    1.254167
     14          1           0        1.062323    3.009984    0.666731
 ---------------------------------------------------------------------
 Rotational constants (GHZ):           2.3737619           1.6401323           1.0452951
 Standard basis: 6-31+G(d,p) (6D, 7F)
 There are   196 symmetry adapted cartesian basis functions of A   symmetry.
 There are   196 symmetry adapted basis functions of A   symmetry.
   196 basis functions,   323 primitive gaussians,   196 cartesian basis functions
    35 alpha electrons       34 beta electrons
       nuclear repulsion energy       466.8637420746 Hartrees.
 NAtoms=   14 NActive=   14 NUniq=   14 SFac= 1.00D+00 NAtFMM=   60 NAOKFM=F Big=F
 Integral buffers will be    131072 words long.
 Raffenetti 2 integral format.
 Two-electron integral symmetry is turned on.
 One-electron integrals computed using PRISM.
 NBasis=   196 RedAO= T EigKep=  3.87D-05  NBF=   196
 NBsUse=   196 1.00D-06 EigRej= -1.00D+00 NBFU=   196
 ExpMin= 4.38D-02 ExpMax= 5.48D+03 ExpMxC= 8.25D+02 IAcc=3 IRadAn=         5 AccDes= 0.00D+00
 Harris functional with IExCor= 1009 and IRadAn=       5 diagonalized for initial guess.
 HarFok:  IExCor= 1009 AccDes= 0.00D+00 IRadAn=         5 IDoV= 1 UseB2=F ITyADJ=14
 ICtDFT=  3500011 ScaDFX=  1.000000  1.000000  1.000000  1.000000
 FoFCou: FMM=F IPFlag=           0 FMFlag=      100000 FMFlg1=           0
         NFxFlg=           0 DoJE=T BraDBF=F KetDBF=T FulRan=T
         wScrn=  0.000000 ICntrl=       500 IOpCl=  0 I1Cent=   200000004 NGrid=           0
         NMat0=    1 NMatS0=      1 NMatT0=    0 NMatD0=    1 NMtDS0=    0 NMtDT0=    0
 Petite list used in FoFCou.
 Initial guess <Sx>= 0.0000 <Sy>= 0.0000 <Sz>= 0.5000 <S**2>= 0.7500 S= 0.5000
 Requested convergence on RMS density matrix=1.00D-08 within 128 cycles.
 Requested convergence on MAX density matrix=1.00D-06.
 Requested convergence on             energy=1.00D-06.
 No special actions if energy rises.
 SCF Done:  E(UM062X) =  -506.988221245     A.U. after   20 cycles
            NFock= 20  Conv=0.96D-08     -V/T= 2.0074
 <Sx>= 0.0000 <Sy>= 0.0000 <Sz>= 0.5000 <S**2>= 0.7649 S= 0.5074
 <L.S>=  0.00000000000    
 Annihilation of the first spin contaminant:
 S**2 before annihilation     0.7649,   after     0.7501

 **********************************************************************

            Population analysis using the SCF Density.

 **********************************************************************

 Orbital symmetries:
 Alpha Orbitals:
       Occupied  (A) (A) (A) (A) (A) (A) (A) (A) (A) (A) (A) (A)
                 (A) (A) (A) (A) (A) (A) (A) (A) (A) (A) (A) (A)
                 (A) (A) (A) (A) (A) (A) (A) (A) (A) (A) (A)
       Virtual   (A) (A) (A) (A) (A) (A) (A) (A) (A) (A) (A) (A)
                 (A) (A) (A) (A) (A) (A) (A) (A) (A) (A) (A) (A)
                 (A) (A) (A) (A) (A) (A) (A) (A) (A) (A) (A) (A)
                 (A) (A) (A) (A) (A) (A) (A) (A) (A) (A) (A) (A)
                 (A) (A) (A) (A) (A) (A) (A) (A) (A) (A) (A) (A)
                 (A) (A) (A) (A) (A) (A) (A) (A) (A) (A) (A) (A)
                 (A) (A) (A) (A) (A) (A) (A) (A) (A) (A) (A) (A)
                 (A) (A) (A) (A) (A) (A) (A) (A) (A) (A) (A) (A)
                 (A) (A) (A) (A) (A) (A) (A) (A) (A) (A) (A) (A)
                 (A) (A) (A) (A) (A) (A) (A) (A) (A) (A) (A) (A)
                 (A) (A) (A) (A) (A) (A) (A) (A) (A) (A) (A) (A)
                 (A) (A) (A) (A) (A) (A) (A) (A) (A) (A) (A) (A)
                 (A) (A) (A) (A) (A) (A) (A) (A) (A) (A) (A) (A)
                 (A) (A) (A) (A) (A)
 Beta  Orbitals:
       Occupied  (A) (A) (A) (A) (A) (A) (A) (A) (A) (A) (A) (A)
                 (A) (A) (A) (A) (A) (A) (A) (A) (A) (A) (A) (A)
                 (A) (A) (A) (A) (A) (A) (A) (A) (A) (A)
       Virtual   (A) (A) (A) (A) (A) (A) (A) (A) (A) (A) (A) (A)
                 (A) (A) (A) (A) (A) (A) (A) (A) (A) (A) (A) (A)
                 (A) (A) (A) (A) (A) (A) (A) (A) (A) (A) (A) (A)
                 (A) (A) (A) (A) (A) (A) (A) (A) (A) (A) (A) (A)
                 (A) (A) (A) (A) (A) (A) (A) (A) (A) (A) (A) (A)
                 (A) (A) (A) (A) (A) (A) (A) (A) (A) (A) (A) (A)
                 (A) (A) (A) (A) (A) (A) (A) (A) (A) (A) (A) (A)
                 (A) (A) (A) (A) (A) (A) (A) (A) (A) (A) (A) (A)
                 (A) (A) (A) (A) (A) (A) (A) (A) (A) (A) (A) (A)
                 (A) (A) (A) (A) (A) (A) (A) (A) (A) (A) (A) (A)
                 (A) (A) (A) (A) (A) (A) (A) (A) (A) (A) (A) (A)
                 (A) (A) (A) (A) (A) (A) (A) (A) (A) (A) (A) (A)
                 (A) (A) (A) (A) (A) (A) (A) (A) (A) (A) (A) (A)
                 (A) (A) (A) (A) (A) (A)
 The electronic state is 2-A.
 Alpha  occ. eigenvalues --  -19.57654 -19.40426 -19.40084 -14.66582 -14.61868
 Alpha  occ. eigenvalues --  -14.60330 -10.48397 -10.41338 -10.41243  -1.08107
 Alpha  occ. eigenvalues --   -1.02263  -0.96536  -0.88398  -0.81627  -0.74492
 Alpha  occ. eigenvalues --   -0.59914  -0.55247  -0.52820  -0.51768  -0.44058
 Alpha  occ. eigenvalues --   -0.39189  -0.37448  -0.35429  -0.35264  -0.33033
 Alpha  occ. eigenvalues --   -0.29503  -0.28707  -0.27297  -0.20938  -0.19010
 Alpha  occ. eigenvalues --   -0.17440  -0.15612  -0.13665  -0.12745   0.00175
 Alpha virt. eigenvalues --    0.12144   0.14432   0.14988   0.18379   0.18997
 Alpha virt. eigenvalues --    0.19705   0.20004   0.21270   0.21490   0.22044
 Alpha virt. eigenvalues --    0.22831   0.25023   0.26908   0.27506   0.29129
 Alpha virt. eigenvalues --    0.30464   0.31233   0.32925   0.34491   0.35004
 Alpha virt. eigenvalues --    0.36331   0.36757   0.37778   0.38116   0.39125
 Alpha virt. eigenvalues --    0.39588   0.40582   0.41447   0.42726   0.43704
 Alpha virt. eigenvalues --    0.45632   0.45856   0.46248   0.47193   0.47664
 Alpha virt. eigenvalues --    0.47831   0.48899   0.49568   0.50565   0.51412
 Alpha virt. eigenvalues --    0.51495   0.53809   0.54646   0.56315   0.58319
 Alpha virt. eigenvalues --    0.61367   0.64005   0.65944   0.69358   0.72017
 Alpha virt. eigenvalues --    0.84720   0.85927   0.91331   0.94255   0.98345
 Alpha virt. eigenvalues --    1.00386   1.04572   1.05471   1.07185   1.08354
 Alpha virt. eigenvalues --    1.09309   1.10493   1.13425   1.14762   1.16444
 Alpha virt. eigenvalues --    1.17105   1.19532   1.21926   1.23573   1.25639
 Alpha virt. eigenvalues --    1.27801   1.31004   1.31503   1.33621   1.35138
 Alpha virt. eigenvalues --    1.36493   1.39143   1.41555   1.46665   1.48854
 Alpha virt. eigenvalues --    1.51926   1.52016   1.55706   1.56940   1.58810
 Alpha virt. eigenvalues --    1.59492   1.60327   1.61943   1.64609   1.65618
 Alpha virt. eigenvalues --    1.68717   1.70484   1.73655   1.74605   1.79319
 Alpha virt. eigenvalues --    1.79772   1.80385   1.86138   1.97228   2.01186
 Alpha virt. eigenvalues --    2.04433   2.05421   2.07935   2.09727   2.11338
 Alpha virt. eigenvalues --    2.14711   2.15607   2.19192   2.21261   2.22711
 Alpha virt. eigenvalues --    2.24778   2.27128   2.28218   2.33585   2.35049
 Alpha virt. eigenvalues --    2.39931   2.40826   2.42840   2.47678   2.49885
 Alpha virt. eigenvalues --    2.50780   2.57307   2.59077   2.62328   2.66516
 Alpha virt. eigenvalues --    2.67920   2.69168   2.70437   2.71744   2.75707
 Alpha virt. eigenvalues --    2.78604   2.86172   2.88073   2.91036   2.96843
 Alpha virt. eigenvalues --    2.98809   3.04746   3.05284   3.08674   3.13180
 Alpha virt. eigenvalues --    3.17990   3.24137   3.29141   3.34069   3.36060
 Alpha virt. eigenvalues --    3.44032   3.45954   3.49801   3.52348   3.81743
 Alpha virt. eigenvalues --    3.85876   3.98226   4.24913   4.40883   4.48766
 Alpha virt. eigenvalues --    4.56252   4.59192   4.64794   4.77758   4.85419
 Alpha virt. eigenvalues --    4.90207
  Beta  occ. eigenvalues --  -19.57628 -19.40376 -19.40034 -14.66126 -14.61380
  Beta  occ. eigenvalues --  -14.59874 -10.48401 -10.41378 -10.41141  -1.07974
  Beta  occ. eigenvalues --   -1.01201  -0.96101  -0.88214  -0.80075  -0.73520
  Beta  occ. eigenvalues --   -0.58893  -0.54734  -0.52717  -0.51101  -0.43250
  Beta  occ. eigenvalues --   -0.38528  -0.35352  -0.35110  -0.34763  -0.32826
  Beta  occ. eigenvalues --   -0.29305  -0.27960  -0.26359  -0.18779  -0.15778
  Beta  occ. eigenvalues --   -0.15320  -0.14037  -0.13038  -0.12500
  Beta virt. eigenvalues --    0.11252   0.13629   0.14289   0.15339   0.17348
  Beta virt. eigenvalues --    0.18323   0.18963   0.19663   0.20423   0.20720
  Beta virt. eigenvalues --    0.21706   0.22515   0.23883   0.26092   0.27244
  Beta virt. eigenvalues --    0.29015   0.30176   0.30944   0.33220   0.34130
  Beta virt. eigenvalues --    0.34656   0.36010   0.36570   0.37215   0.38102
  Beta virt. eigenvalues --    0.38618   0.39114   0.40507   0.41395   0.42734
  Beta virt. eigenvalues --    0.43569   0.45295   0.45487   0.46151   0.47114
  Beta virt. eigenvalues --    0.47450   0.47836   0.48602   0.49431   0.50269
  Beta virt. eigenvalues --    0.51078   0.51532   0.53624   0.54235   0.56252
  Beta virt. eigenvalues --    0.57919   0.61559   0.64284   0.66162   0.69658
  Beta virt. eigenvalues --    0.72079   0.84969   0.86066   0.90649   0.95109
  Beta virt. eigenvalues --    0.98430   1.00484   1.04602   1.05577   1.07460
  Beta virt. eigenvalues --    1.08665   1.09541   1.10633   1.13680   1.15608
  Beta virt. eigenvalues --    1.17032   1.18235   1.20194   1.22320   1.24209
  Beta virt. eigenvalues --    1.26211   1.28297   1.30843   1.31496   1.33925
  Beta virt. eigenvalues --    1.35446   1.36331   1.39221   1.41832   1.47185
  Beta virt. eigenvalues --    1.49251   1.52041   1.52126   1.55878   1.57025
  Beta virt. eigenvalues --    1.59005   1.59796   1.60723   1.62242   1.64990
  Beta virt. eigenvalues --    1.66064   1.69150   1.70802   1.73810   1.74985
  Beta virt. eigenvalues --    1.79548   1.79952   1.80830   1.86361   1.97547
  Beta virt. eigenvalues --    2.01525   2.04690   2.05747   2.08244   2.09913
  Beta virt. eigenvalues --    2.11552   2.14927   2.15879   2.19395   2.21494
  Beta virt. eigenvalues --    2.23037   2.25040   2.27514   2.28499   2.33869
  Beta virt. eigenvalues --    2.35435   2.40120   2.41523   2.43268   2.48132
  Beta virt. eigenvalues --    2.50323   2.51085   2.57408   2.59505   2.62626
  Beta virt. eigenvalues --    2.66800   2.68134   2.69421   2.70736   2.71948
  Beta virt. eigenvalues --    2.76101   2.79099   2.86500   2.88447   2.91611
  Beta virt. eigenvalues --    2.97240   2.99058   3.05166   3.05711   3.09021
  Beta virt. eigenvalues --    3.13696   3.18279   3.24331   3.29244   3.34309
  Beta virt. eigenvalues --    3.36208   3.44183   3.46051   3.49968   3.52340
  Beta virt. eigenvalues --    3.81800   3.86171   3.98373   4.25160   4.40846
  Beta virt. eigenvalues --    4.48773   4.56488   4.59269   4.64909   4.77768
  Beta virt. eigenvalues --    4.85983   4.90159
          Condensed to atoms (all electrons):
               1          2          3          4          5          6
     1  N    9.206708  -1.319412   0.242658  -0.020093  -0.611475   0.011203
     2  N   -1.319412   9.320453  -0.654255   0.293865  -0.361225  -0.056478
     3  C    0.242658  -0.654255   6.592597  -0.403286   0.203481   0.386912
     4  C   -0.020093   0.293865  -0.403286   5.975649  -0.087068  -0.015200
     5  N   -0.611475  -0.361225   0.203481  -0.087068   8.158494   0.001017
     6  H    0.011203  -0.056478   0.386912  -0.015200   0.001017   0.552819
     7  H   -0.024483   0.001847  -0.040656   0.398732  -0.034138   0.000446
     8  H   -0.067956   0.446055  -0.052905   0.012052  -0.006217  -0.000515
     9  C   -0.127104   0.116394  -0.032415  -0.018651   0.035465   0.000534
    10  O   -0.254540   0.102067  -0.013540   0.010160  -0.045698  -0.000090
    11  O   -0.161265   0.007828   0.016480  -0.020098  -0.016825   0.000068
    12  O    0.296033  -0.669352   0.070349  -0.020847   0.021955   0.000616
    13  H   -0.023182   0.042135   0.000101   0.001206  -0.006101  -0.000024
    14  H   -0.011419   0.032762  -0.002757   0.002529  -0.003506   0.000009
               7          8          9         10         11         12
     1  N   -0.024483  -0.067956  -0.127104  -0.254540  -0.161265   0.296033
     2  N    0.001847   0.446055   0.116394   0.102067   0.007828  -0.669352
     3  C   -0.040656  -0.052905  -0.032415  -0.013540   0.016480   0.070349
     4  C    0.398732   0.012052  -0.018651   0.010160  -0.020098  -0.020847
     5  N   -0.034138  -0.006217   0.035465  -0.045698  -0.016825   0.021955
     6  H    0.000446  -0.000515   0.000534  -0.000090   0.000068   0.000616
     7  H    0.584208  -0.000099   0.001305  -0.000039   0.000029   0.000140
     8  H   -0.000099   0.343515   0.017424   0.000663   0.000532  -0.163813
     9  C    0.001305   0.017424   4.609464   0.397889   0.453302  -0.021481
    10  O   -0.000039   0.000663   0.397889   8.712892  -0.153682  -0.126862
    11  O    0.000029   0.000532   0.453302  -0.153682   8.479189  -0.000424
    12  O    0.000140  -0.163813  -0.021481  -0.126862  -0.000424   8.800696
    13  H   -0.000001   0.010730   0.007256   0.006088  -0.001204   0.260768
    14  H   -0.000000   0.006838   0.002164   0.010722   0.000010   0.235199
              13         14
     1  N   -0.023182  -0.011419
     2  N    0.042135   0.032762
     3  C    0.000101  -0.002757
     4  C    0.001206   0.002529
     5  N   -0.006101  -0.003506
     6  H   -0.000024   0.000009
     7  H   -0.000001  -0.000000
     8  H    0.010730   0.006838
     9  C    0.007256   0.002164
    10  O    0.006088   0.010722
    11  O   -0.001204   0.000010
    12  O    0.260768   0.235199
    13  H    0.302829  -0.009776
    14  H   -0.009776   0.348765
          Atomic-Atomic Spin Densities.
               1          2          3          4          5          6
     1  N    0.997127  -0.940506   0.428880  -0.122322  -0.252726  -0.002172
     2  N   -0.940506   1.575170  -0.678842   0.133006   0.189006   0.003193
     3  C    0.428880  -0.678842   0.725037  -0.020024  -0.143553  -0.003239
     4  C   -0.122322   0.133006  -0.020024  -0.150808  -0.014902   0.004309
     5  N   -0.252726   0.189006  -0.143553  -0.014902   0.590299  -0.000323
     6  H   -0.002172   0.003193  -0.003239   0.004309  -0.000323  -0.014013
     7  H    0.000836   0.002680  -0.000630   0.002219  -0.004377   0.000033
     8  H   -0.076318   0.121573  -0.049773   0.013228   0.005638   0.000258
     9  C   -0.056918   0.103549  -0.050015   0.020502   0.012532  -0.000056
    10  O   -0.045516   0.051431  -0.016851   0.004484   0.011304   0.000034
    11  O    0.008126  -0.016115   0.000674  -0.000586   0.007077  -0.000004
    12  O    0.223029  -0.307887   0.115251  -0.024202  -0.026880  -0.000353
    13  H   -0.009623   0.014676  -0.004404   0.000757   0.001213   0.000004
    14  H   -0.001840   0.003499  -0.002138   0.000469   0.000354  -0.000000
               7          8          9         10         11         12
     1  N    0.000836  -0.076318  -0.056918  -0.045516   0.008126   0.223029
     2  N    0.002680   0.121573   0.103549   0.051431  -0.016115  -0.307887
     3  C   -0.000630  -0.049773  -0.050015  -0.016851   0.000674   0.115251
     4  C    0.002219   0.013228   0.020502   0.004484  -0.000586  -0.024202
     5  N   -0.004377   0.005638   0.012532   0.011304   0.007077  -0.026880
     6  H    0.000033   0.000258  -0.000056   0.000034  -0.000004  -0.000353
     7  H    0.004171   0.000015   0.000227   0.000014  -0.000007  -0.000084
     8  H    0.000015   0.019146   0.006838   0.003712  -0.000400  -0.040957
     9  C    0.000227   0.006838   0.004098   0.000277  -0.007584  -0.027090
    10  O    0.000014   0.003712   0.000277   0.032334   0.001037  -0.019108
    11  O   -0.000007  -0.000400  -0.007584   0.001037   0.032259   0.002000
    12  O   -0.000084  -0.040957  -0.027090  -0.019108   0.002000   0.128286
    13  H    0.000000   0.000717   0.001510   0.001102  -0.000037  -0.005922
    14  H    0.000000   0.000880   0.000695   0.000218  -0.000016  -0.001987
              13         14
     1  N   -0.009623  -0.001840
     2  N    0.014676   0.003499
     3  C   -0.004404  -0.002138
     4  C    0.000757   0.000469
     5  N    0.001213   0.000354
     6  H    0.000004  -0.000000
     7  H    0.000000   0.000000
     8  H    0.000717   0.000880
     9  C    0.001510   0.000695
    10  O    0.001102   0.000218
    11  O   -0.000037  -0.000016
    12  O   -0.005922  -0.001987
    13  H    0.000460   0.000528
    14  H    0.000528   0.001819
 Mulliken charges and spin densities:
               1          2
     1  N   -0.135675   0.150056
     2  N   -0.302685   0.254433
     3  C   -0.312763   0.300374
     4  C   -0.108950  -0.153873
     5  N   -0.248159   0.374662
     6  H    0.118682  -0.012329
     7  H    0.112710   0.005097
     8  H    0.453697   0.004557
     9  C    0.558455   0.008568
    10  O   -0.646031   0.024470
    11  O   -0.603941   0.026426
    12  O   -0.682977   0.014097
    13  H    0.409175   0.000980
    14  H    0.388461   0.002482
 Sum of Mulliken charges =  -1.00000   1.00000
 Mulliken charges and spin densities with hydrogens summed into heavy atoms:
               1          2
     1  N   -0.135675   0.150056
     2  N    0.151012   0.258991
     3  C   -0.194081   0.288045
     4  C    0.003760  -0.148776
     5  N   -0.248159   0.374662
     9  C    0.558455   0.008568
    10  O   -0.646031   0.024470
    11  O   -0.603941   0.026426
    12  O    0.114659   0.017559
 Electronic spatial extent (au):  <R**2>=           1110.2896
 Charge=             -1.0000 electrons
 Dipole moment (field-independent basis, Debye):
    X=             -3.5687    Y=              8.2530    Z=              2.7972  Tot=              9.4166
 Quadrupole moment (field-independent basis, Debye-Ang):
   XX=            -73.6768   YY=            -59.0835   ZZ=            -57.3105
   XY=              7.5463   XZ=              3.6965   YZ=              7.6505
 Traceless Quadrupole moment (field-independent basis, Debye-Ang):
   XX=            -10.3199   YY=              4.2734   ZZ=              6.0465
   XY=              7.5463   XZ=              3.6965   YZ=              7.6505
 Octapole moment (field-independent basis, Debye-Ang**2):
  XXX=            -16.9127  YYY=             71.9582  ZZZ=              8.4352  XYY=              5.5379
  XXY=             17.2726  XXZ=             12.1517  XZZ=             13.0926  YZZ=              6.6174
  YYZ=              3.2288  XYZ=             11.5957
 Hexadecapole moment (field-independent basis, Debye-Ang**3):
 XXXX=           -924.0762 YYYY=           -478.0862 ZZZZ=           -116.0037 XXXY=             35.4559
 XXXZ=              2.3692 YYYX=             61.2057 YYYZ=             37.7745 ZZZX=              6.0602
 ZZZY=             15.9428 XXYY=           -242.0778 XXZZ=           -174.3805 YYZZ=           -106.3985
 XXYZ=             11.9098 YYXZ=              8.7245 ZZXY=             12.3380
 N-N= 4.668637420746D+02 E-N=-2.134592221400D+03  KE= 5.032575739202D+02
                          Isotropic Fermi Contact Couplings
        Atom                 a.u.       MegaHertz       Gauss      10(-4) cm-1
     1  N(14)              0.08167      26.38898       9.41624       8.80242
     2  N(14)              0.08981      29.01694      10.35397       9.67901
     3  C(13)              0.03194      35.90106      12.81039      11.97530
     4  C(13)             -0.02796     -31.43308     -11.21611     -10.48495
     5  N(14)              0.08581      27.72608       9.89335       9.24842
     6  H(1)              -0.00378     -16.88592      -6.02532      -5.63254
     7  H(1)               0.00100       4.48044       1.59873       1.49451
     8  H(1)               0.00941      42.04102      15.00128      14.02337
     9  C(13)             -0.00216      -2.43285      -0.86810      -0.81151
    10  O(17)              0.00550      -3.33569      -1.19026      -1.11266
    11  O(17)              0.00518      -3.13995      -1.12041      -1.04738
    12  O(17)              0.03347     -20.29217      -7.24075      -6.76874
    13  H(1)              -0.00021      -0.94732      -0.33803      -0.31599
    14  H(1)               0.00109       4.85982       1.73411       1.62106
 --------------------------------------------------------
       Center         ----  Spin Dipole Couplings  ----
                      3XX-RR        3YY-RR        3ZZ-RR
 --------------------------------------------------------
     1   Atom       -0.305365     -0.263825      0.569190
     2   Atom       -0.357448     -0.338683      0.696131
     3   Atom       -0.095931     -0.092612      0.188543
     4   Atom        0.051293      0.042461     -0.093754
     5   Atom       -0.344774     -0.286471      0.631246
     6   Atom       -0.002578      0.006604     -0.004025
     7   Atom        0.003484      0.002377     -0.005861
     8   Atom       -0.006904      0.030801     -0.023897
     9   Atom        0.013506     -0.008166     -0.005340
    10   Atom       -0.032224     -0.012981      0.045205
    11   Atom       -0.047430     -0.009271      0.056701
    12   Atom        0.010616     -0.003555     -0.007061
    13   Atom        0.001468     -0.001077     -0.000391
    14   Atom       -0.000111      0.002841     -0.002730
 --------------------------------------------------------
                        XY            XZ            YZ
 --------------------------------------------------------
     1   Atom        0.028404      0.118149      0.225450
     2   Atom       -0.004227      0.003057      0.095891
     3   Atom        0.003750      0.036161      0.078818
     4   Atom       -0.015332     -0.027600     -0.041874
     5   Atom        0.032617      0.129596      0.261684
     6   Atom       -0.019430      0.003703      0.003473
     7   Atom       -0.002769     -0.000711     -0.002409
     8   Atom        0.038801      0.001601      0.006153
     9   Atom       -0.012619     -0.014244      0.006749
    10   Atom       -0.026942     -0.047048      0.060809
    11   Atom       -0.017231     -0.028528      0.066598
    12   Atom        0.005675     -0.001837      0.002613
    13   Atom        0.002887      0.005365      0.002786
    14   Atom        0.003745      0.001547      0.002132
 --------------------------------------------------------


 ---------------------------------------------------------------------------------
              Anisotropic Spin Dipole Couplings in Principal Axis System
 ---------------------------------------------------------------------------------

       Atom             a.u.   MegaHertz   Gauss  10(-4) cm-1        Axes

              Baa    -0.3224   -12.434    -4.437    -4.148  0.7042  0.6605 -0.2603
     1 N(14)  Bbb    -0.3195   -12.322    -4.397    -4.110 -0.6985  0.7103 -0.0873
              Bcc     0.6419    24.756     8.833     8.258  0.1272  0.2433  0.9616
 
              Baa    -0.3592   -13.853    -4.943    -4.621  0.9335  0.3569 -0.0351
     2 N(14)  Bbb    -0.3458   -13.336    -4.758    -4.448 -0.3586  0.9297 -0.0845
              Bcc     0.7049    27.188     9.701     9.069  0.0025  0.0915  0.9958
 
              Baa    -0.1152   -15.457    -5.515    -5.156  0.3391  0.9000 -0.2739
     3 C(13)  Bbb    -0.0981   -13.167    -4.698    -4.392  0.9336 -0.3577 -0.0194
              Bcc     0.2133    28.624    10.214     9.548  0.1155  0.2492  0.9616
 
              Baa    -0.1114   -14.951    -5.335    -4.987  0.1859  0.2752  0.9432
     4 C(13)  Bbb     0.0485     6.502     2.320     2.169  0.6234  0.7090 -0.3297
              Bcc     0.0630     8.448     3.015     2.818  0.7595 -0.6493  0.0397
 
              Baa    -0.3620   -13.963    -4.982    -4.658  0.9580  0.2207 -0.1831
     5 N(14)  Bbb    -0.3554   -13.707    -4.891    -4.572 -0.2582  0.9417 -0.2158
              Bcc     0.7174    27.670     9.873     9.230  0.1248  0.2541  0.9591
 
              Baa    -0.0196   -10.456    -3.731    -3.488  0.7438  0.5926 -0.3091
     6 H(1)   Bbb    -0.0024    -1.274    -0.455    -0.425  0.2527  0.1788  0.9509
              Bcc     0.0220    11.730     4.186     3.913 -0.6187  0.7854  0.0168
 
              Baa    -0.0067    -3.586    -1.280    -1.196  0.1457  0.2944  0.9445
     7 H(1)   Bbb     0.0009     0.469     0.167     0.156  0.6492  0.6920 -0.3158
              Bcc     0.0058     3.118     1.113     1.040  0.7465 -0.6592  0.0903
 
              Baa    -0.0317   -16.905    -6.032    -5.639  0.8111 -0.5284  0.2508
     8 H(1)   Bbb    -0.0239   -12.734    -4.544    -4.248 -0.2524  0.0705  0.9651
              Bcc     0.0555    29.639    10.576     9.886  0.5276  0.8461  0.0762
 
              Baa    -0.0140    -1.878    -0.670    -0.626  0.3449  0.9259 -0.1543
     9 C(13)  Bbb    -0.0130    -1.744    -0.622    -0.582  0.4639 -0.0252  0.8855
              Bcc     0.0270     3.621     1.292     1.208  0.8160 -0.3770 -0.4382
 
              Baa    -0.0549     3.971     1.417     1.325  0.8005 -0.2652  0.5374
    10 O(17)  Bbb    -0.0500     3.621     1.292     1.208  0.4735  0.8296 -0.2958
              Bcc     0.1049    -7.592    -2.709    -2.532 -0.3674  0.4913  0.7897
 
              Baa    -0.0547     3.961     1.413     1.321  0.9726  0.0312  0.2304
    11 O(17)  Bbb    -0.0506     3.659     1.306     1.221  0.0927  0.8568 -0.5073
              Bcc     0.1053    -7.620    -2.719    -2.542 -0.2132  0.5147  0.8304
 
              Baa    -0.0095     0.687     0.245     0.229  0.2328 -0.5695  0.7883
    12 O(17)  Bbb    -0.0032     0.228     0.082     0.076 -0.2295  0.7555  0.6136
              Bcc     0.0126    -0.915    -0.327    -0.305  0.9451  0.3237 -0.0452
 
              Baa    -0.0049    -2.634    -0.940    -0.879 -0.6075 -0.1132  0.7862
    13 H(1)   Bbb    -0.0029    -1.523    -0.543    -0.508 -0.3908  0.9043 -0.1718
              Bcc     0.0078     4.157     1.483     1.387  0.6915  0.4116  0.5936
 
              Baa    -0.0035    -1.876    -0.669    -0.626 -0.2319 -0.1837  0.9552
    14 H(1)   Bbb    -0.0027    -1.416    -0.505    -0.472  0.8080 -0.5832  0.0840
              Bcc     0.0062     3.292     1.175     1.098  0.5417  0.7913  0.2837
 

 ---------------------------------------------------------------------------------

 Calling FoFJK, ICntrl=      2127 FMM=F ISym2X=0 I1Cent= 0 IOpClX= 1 NMat=1 NMatS=1 NMatT=0.
 ***** Axes restored to original set *****
 -------------------------------------------------------------------
 Center     Atomic                   Forces (Hartrees/Bohr)
 Number     Number              X              Y              Z
 -------------------------------------------------------------------
      1        7           0.001266915    0.007346975    0.015861073
      2        7          -0.041054424    0.021326611   -0.056935591
      3        6           0.007657948   -0.008544797    0.006161442
      4        6          -0.004612908   -0.003677228   -0.003614701
      5        7          -0.008352561   -0.002454024   -0.003170050
      6        1          -0.000929762    0.000849587    0.000154350
      7        1          -0.000674114   -0.000124281   -0.002396389
      8        1          -0.022808264   -0.006921960   -0.044854423
      9        6           0.019178249    0.016680127   -0.001853927
     10        8          -0.008317512   -0.014092048   -0.007082342
     11        8          -0.005333528   -0.015454059   -0.001629930
     12        8           0.055141156   -0.031668773    0.121654203
     13        1           0.005032632    0.030726670   -0.026711343
     14        1           0.003806174    0.006007199    0.004417628
 -------------------------------------------------------------------
 Cartesian Forces:  Max     0.121654203 RMS     0.026909848

 GradGradGradGradGradGradGradGradGradGradGradGradGradGradGradGradGradGrad
 Berny optimization.
 FormGI is forming the generalized inverse of G from B-inverse, IUseBI=4.
 Internal  Forces:  Max     0.111040452 RMS     0.021791991
 Search for a local minimum.
 Step number   1 out of a maximum of   69
 All quantities printed in internal units (Hartrees-Bohrs-Radians)
 Mixed Optimization -- RFO/linear search
 Second derivative matrix not updated -- first step.
 ITU=  0
     Eigenvalues ---    0.00230   0.00230   0.00760   0.00773   0.01515
     Eigenvalues ---    0.01541   0.01696   0.02124   0.02204   0.02411
     Eigenvalues ---    0.02552   0.11810   0.14752   0.15794   0.15997
     Eigenvalues ---    0.16000   0.21504   0.23002   0.23438   0.25000
     Eigenvalues ---    0.25000   0.25000   0.26710   0.35568   0.35685
     Eigenvalues ---    0.35779   0.36230   0.40875   0.43663   0.45934
     Eigenvalues ---    0.47605   0.51501   0.54320   0.55188   0.78264
     Eigenvalues ---    0.93235
 RFO step:  Lambda=-8.11510932D-02 EMin= 2.30000000D-03
 Linear search not attempted -- first point.
 Maximum step size (   0.300) exceeded in Quadratic search.
    -- Step size scaled by   0.646
 Iteration  1 RMS(Cart)=  0.16128781 RMS(Int)=  0.00717731
 Iteration  2 RMS(Cart)=  0.01529335 RMS(Int)=  0.00039102
 Iteration  3 RMS(Cart)=  0.00015039 RMS(Int)=  0.00034714
 Iteration  4 RMS(Cart)=  0.00000005 RMS(Int)=  0.00034714
 Variable       Old X    -DE/DX   Delta X   Delta X   Delta X     New X
                                 (Linear)    (Quad)   (Total)
    R1        2.65636   0.01464   0.00000   0.01925   0.01921   2.67557
    R2        2.57000   0.01079   0.00000   0.01177   0.01181   2.58181
    R3        2.77878   0.01012   0.00000   0.01492   0.01492   2.79369
    R4        2.63320  -0.00128   0.00000  -0.00109  -0.00107   2.63213
    R5        2.04763   0.06560   0.00000   0.09699   0.09699   2.14461
    R6        2.60127   0.00130   0.00000   0.00045   0.00043   2.60170
    R7        2.03723   0.00111   0.00000   0.00162   0.00162   2.03885
    R8        2.53916  -0.00729   0.00000  -0.00823  -0.00824   2.53093
    R9        2.04429   0.00103   0.00000   0.00151   0.00151   2.04581
   R10        2.21748   0.11104   0.00000   0.20594   0.20594   2.42342
   R11        2.38865  -0.01611   0.00000  -0.01205  -0.01205   2.37660
   R12        2.31477   0.01601   0.00000   0.01020   0.01020   2.32497
   R13        1.90906  -0.03871   0.00000  -0.04626  -0.04626   1.86281
   R14        1.81666   0.00802   0.00000   0.00819   0.00819   1.82484
    A1        1.93885  -0.00398   0.00000  -0.00126  -0.00146   1.93739
    A2        2.09593   0.02891   0.00000   0.06088   0.06110   2.15703
    A3        2.16474  -0.02258   0.00000  -0.04496  -0.04560   2.11914
    A4        1.82398  -0.00677   0.00000  -0.01434  -0.01423   1.80975
    A5        2.11296   0.01716   0.00000   0.04772   0.04721   2.16017
    A6        2.11474  -0.01288   0.00000  -0.04391  -0.04317   2.07157
    A7        1.85319   0.00986   0.00000   0.02061   0.02059   1.87378
    A8        2.11808  -0.00447   0.00000  -0.00807  -0.00812   2.10996
    A9        2.30374  -0.00510   0.00000  -0.01065  -0.01065   2.29309
   A10        1.96162  -0.00333   0.00000  -0.01016  -0.01022   1.95141
   A11        2.23089   0.00237   0.00000   0.00699   0.00700   2.23789
   A12        2.09049   0.00101   0.00000   0.00332   0.00333   2.09382
   A13        1.82646   0.00471   0.00000   0.00839   0.00844   1.83490
   A14        2.60056   0.07551   0.00000   0.14728   0.14728   2.74784
   A15        1.96530   0.01341   0.00000   0.02605   0.02603   1.99133
   A16        2.02731  -0.01039   0.00000  -0.02037  -0.02039   2.00692
   A17        2.28984  -0.00308   0.00000  -0.00611  -0.00613   2.28371
   A18        2.06460  -0.00581   0.00000  -0.01079  -0.01105   2.05355
   A19        2.24888   0.00106   0.00000   0.00756   0.00724   2.25612
   A20        1.82617   0.00789   0.00000   0.02653   0.02626   1.85242
    D1       -0.19873   0.00338   0.00000   0.01699   0.01697  -0.18176
    D2        2.26658  -0.00659   0.00000  -0.01828  -0.01835   2.24824
    D3       -2.92911   0.00435   0.00000  -0.00422  -0.00522  -2.93433
    D4       -0.46380  -0.00562   0.00000  -0.03949  -0.04053  -0.50433
    D5        0.15504  -0.00235   0.00000  -0.01022  -0.01030   0.14474
    D6        2.86613   0.01132   0.00000   0.04226   0.04095   2.90707
    D7       -0.34874  -0.00065   0.00000  -0.00598  -0.00629  -0.35503
    D8        2.82945   0.00084   0.00000   0.00479   0.00448   2.83393
    D9       -3.02355  -0.00644   0.00000  -0.04555  -0.04523  -3.06878
   D10        0.15464  -0.00495   0.00000  -0.03477  -0.03446   0.12018
   D11        0.15764  -0.00112   0.00000  -0.01317  -0.01329   0.14435
   D12       -3.10551   0.00079   0.00000   0.00023   0.00046  -3.10505
   D13       -2.30681  -0.00571   0.00000  -0.02229  -0.02315  -2.32996
   D14        0.71323  -0.00380   0.00000  -0.00889  -0.00941   0.70382
   D15        0.07564   0.00827   0.00000   0.04985   0.05011   0.12575
   D16        2.43036   0.00187   0.00000   0.02868   0.02842   2.45877
   D17       -0.07212  -0.00058   0.00000   0.00684   0.00702  -0.06510
   D18        3.04845   0.00230   0.00000   0.01562   0.01578   3.06424
   D19       -3.07393  -0.00304   0.00000  -0.00925  -0.00937  -3.08330
   D20        0.04664  -0.00016   0.00000  -0.00047  -0.00061   0.04603
   D21       -0.04965   0.00118   0.00000   0.00131   0.00129  -0.04836
   D22        3.11107  -0.00146   0.00000  -0.00676  -0.00673   3.10435
   D23       -0.70781   0.01305   0.00000   0.09503   0.09503  -0.61278
   D24        3.07403   0.00436   0.00000   0.03971   0.03971   3.11374
   D25       -2.63999  -0.00574   0.00000  -0.04026  -0.04042  -2.68041
         Item               Value     Threshold  Converged?
 Maximum Force            0.111040     0.000450     NO 
 RMS     Force            0.021792     0.000300     NO 
 Maximum Displacement     0.471189     0.001800     NO 
 RMS     Displacement     0.172726     0.001200     NO 
 Predicted change in Energy=-4.010454D-02
 GradGradGradGradGradGradGradGradGradGradGradGradGradGradGradGradGradGrad

                          Input orientation:                          
 ---------------------------------------------------------------------
 Center     Atomic      Atomic             Coordinates (Angstroms)
 Number     Number       Type             X           Y           Z
 ---------------------------------------------------------------------
      1          7           0       -0.367468   -0.366733   -0.169854
      2          7           0       -0.421119    0.921233    0.415719
      3          6           0       -1.754896    1.294815    0.268933
      4          6           0       -2.441112    0.194604   -0.193790
      5          7           0       -1.622759   -0.838831   -0.430553
      6          1           0       -2.098384    2.263140    0.598196
      7          1           0       -3.505592    0.090913   -0.361543
      8          1           0        0.121416    1.202506    1.372012
      9          6           0        0.786246   -1.280692   -0.031407
     10          8           0        1.859177   -0.708233    0.289186
     11          8           0        0.551172   -2.458508   -0.298195
     12          8           0        0.915141    1.059813    2.369128
     13          1           0        0.997502    0.160081    2.763352
     14          1           0        1.126820    1.682887    3.075868
 ---------------------------------------------------------------------
                    Distance matrix (angstroms):
                    1          2          3          4          5
     1  N    0.000000
     2  N    1.415850   0.000000
     3  C    2.208672   1.392865   0.000000
     4  C    2.148412   2.231561   1.376761   0.000000
     5  N    1.366235   2.293021   2.249264   1.339308   0.000000
     6  H    3.240710   2.155744   1.078912   2.241327   3.302540
     7  H    3.177107   3.287483   2.216261   1.082594   2.101011
     8  H    2.253635   1.134881   2.178498   3.167673   3.233953
     9  C    1.478359   2.550711   3.630543   3.552282   2.481505
    10  O    2.298975   2.805516   4.132086   4.420505   3.557943
    11  O    2.288208   3.588548   4.441511   4.000459   2.714194
    12  O    3.182224   2.370781   3.405165   4.310635   4.228948
    13  H    3.277862   2.846616   3.883999   4.535411   4.250251
    14  H    4.119290   3.170587   4.041506   5.063179   5.119984
                    6          7          8          9         10
     6  H    0.000000
     7  H    2.760418   0.000000
     8  H    2.579001   4.170856   0.000000
     9  C    4.612617   4.517761   2.928798   0.000000
    10  O    4.958511   5.462859   2.800580   1.257644   0.000000
    11  O    5.487953   4.791753   4.046889   1.230320   2.262599
    12  O    3.696692   5.285661   1.282420   3.355167   2.888486
    13  H    4.323803   5.481570   1.946793   3.151370   2.760063
    14  H    4.108222   5.984097   2.035860   4.307429   3.744249
                   11         12         13         14
    11  O    0.000000
    12  O    4.430087   0.000000
    13  H    4.053306   0.985755   0.000000
    14  H    5.372786   0.965666   1.559913   0.000000
 Stoichiometry    C3H5N3O3(1-,2)
 Framework group  C1[X(C3H5N3O3)]
 Deg. of freedom    36
 Full point group                 C1      NOp   1
 Largest Abelian subgroup         C1      NOp   1
 Largest concise Abelian subgroup C1      NOp   1
                         Standard orientation:                         
 ---------------------------------------------------------------------
 Center     Atomic      Atomic             Coordinates (Angstroms)
 Number     Number       Type             X           Y           Z
 ---------------------------------------------------------------------
      1          7           0       -0.116823   -0.525197   -0.254875
      2          7           0       -0.690439    0.752006   -0.465460
      3          6           0       -2.053195    0.537037   -0.273736
      4          6           0       -2.203095   -0.743441    0.209354
      5          7           0       -1.033816   -1.394125    0.265400
      6          1           0       -2.763967    1.338369   -0.403052
      7          1           0       -3.111303   -1.234376    0.535164
      8          1           0       -0.232880    1.719185   -0.087094
      9          6           0        1.335576   -0.754194   -0.101116
     10          8           0        2.052711    0.171410   -0.560077
     11          8           0        1.640938   -1.834096    0.403119
     12          8           0        0.645815    2.482509    0.451265
     13          1           0        1.178225    2.114159    1.194616
     14          1           0        0.626042    3.438882    0.583444
 ---------------------------------------------------------------------
 Rotational constants (GHZ):           2.0185192           1.6398835           0.9727668
 Standard basis: 6-31+G(d,p) (6D, 7F)
 There are   196 symmetry adapted cartesian basis functions of A   symmetry.
 There are   196 symmetry adapted basis functions of A   symmetry.
   196 basis functions,   323 primitive gaussians,   196 cartesian basis functions
    35 alpha electrons       34 beta electrons
       nuclear repulsion energy       455.9595316764 Hartrees.
 NAtoms=   14 NActive=   14 NUniq=   14 SFac= 1.00D+00 NAtFMM=   60 NAOKFM=F Big=F
 Integral buffers will be    131072 words long.
 Raffenetti 2 integral format.
 Two-electron integral symmetry is turned on.
 One-electron integrals computed using PRISM.
 NBasis=   196 RedAO= T EigKep=  3.92D-05  NBF=   196
 NBsUse=   196 1.00D-06 EigRej= -1.00D+00 NBFU=   196
 Initial guess from the checkpoint file:  "/home/gau/soft/scratch/Gau-170082.chk"
 B after Tr=     0.000000   -0.000000    0.000000
         Rot=    0.999380    0.021799    0.006576   -0.026868 Ang=   4.04 deg.
 Initial guess <Sx>= 0.0000 <Sy>= 0.0000 <Sz>= 0.5000 <S**2>= 0.7649 S= 0.5074
 ExpMin= 4.38D-02 ExpMax= 5.48D+03 ExpMxC= 8.25D+02 IAcc=3 IRadAn=         5 AccDes= 0.00D+00
 Harris functional with IExCor= 1009 and IRadAn=       5 diagonalized for initial guess.
 HarFok:  IExCor= 1009 AccDes= 0.00D+00 IRadAn=         5 IDoV= 1 UseB2=F ITyADJ=14
 ICtDFT=  3500011 ScaDFX=  1.000000  1.000000  1.000000  1.000000
 FoFCou: FMM=F IPFlag=           0 FMFlag=      100000 FMFlg1=           0
         NFxFlg=           0 DoJE=T BraDBF=F KetDBF=T FulRan=T
         wScrn=  0.000000 ICntrl=       500 IOpCl=  0 I1Cent=   200000004 NGrid=           0
         NMat0=    1 NMatS0=      1 NMatT0=    0 NMatD0=    1 NMtDS0=    0 NMtDT0=    0
 Petite list used in FoFCou.
 Requested convergence on RMS density matrix=1.00D-08 within 128 cycles.
 Requested convergence on MAX density matrix=1.00D-06.
 Requested convergence on             energy=1.00D-06.
 No special actions if energy rises.
 SCF Done:  E(UM062X) =  -507.016560419     A.U. after   19 cycles
            NFock= 19  Conv=0.41D-08     -V/T= 2.0081
 <Sx>= 0.0000 <Sy>= 0.0000 <Sz>= 0.5000 <S**2>= 0.7650 S= 0.5075
 <L.S>=  0.00000000000    
 Annihilation of the first spin contaminant:
 S**2 before annihilation     0.7650,   after     0.7501
 Calling FoFJK, ICntrl=      2127 FMM=F ISym2X=0 I1Cent= 0 IOpClX= 1 NMat=1 NMatS=1 NMatT=0.
 ***** Axes restored to original set *****
 -------------------------------------------------------------------
 Center     Atomic                   Forces (Hartrees/Bohr)
 Number     Number              X              Y              Z
 -------------------------------------------------------------------
      1        7          -0.004551973    0.003234617    0.014847037
      2        7          -0.005303479    0.016365833   -0.008800580
      3        6           0.002848834   -0.001384968    0.007505687
      4        6          -0.000458097   -0.001052601   -0.002656490
      5        7          -0.002353517   -0.001530902   -0.002526450
      6        1          -0.000724016    0.000774860    0.000329892
      7        1           0.000075539    0.000421484   -0.001697146
      8        1          -0.021756064   -0.025297022   -0.055770713
      9        6           0.014569114    0.006086389   -0.001531128
     10        8          -0.010791148    0.002989693    0.006911391
     11        8          -0.003703555   -0.005649053   -0.000595825
     12        8           0.031682550   -0.008205436    0.063295899
     13        1           0.000453883    0.011894358   -0.018297386
     14        1           0.000011931    0.001352747   -0.001014188
 -------------------------------------------------------------------
 Cartesian Forces:  Max     0.063295899 RMS     0.016161082

 GradGradGradGradGradGradGradGradGradGradGradGradGradGradGradGradGradGrad
 Berny optimization.
 Using GEDIIS/GDIIS optimizer.
 FormGI is forming the generalized inverse of G from B-inverse, IUseBI=4.
 Internal  Forces:  Max     0.053537028 RMS     0.009950423
 Search for a local minimum.
 Step number   2 out of a maximum of   69
 All quantities printed in internal units (Hartrees-Bohrs-Radians)
 Mixed Optimization -- RFO/linear search
 Update second derivatives using D2CorX and points    1    2
 DE= -2.83D-02 DEPred=-4.01D-02 R= 7.07D-01
 TightC=F SS=  1.41D+00  RLast= 3.37D-01 DXNew= 5.0454D-01 1.0124D+00
 Trust test= 7.07D-01 RLast= 3.37D-01 DXMaxT set to 5.05D-01
 ITU=  1  0
 Use linear search instead of GDIIS.
     Eigenvalues ---    0.00227   0.00232   0.00769   0.00781   0.01395
     Eigenvalues ---    0.01525   0.01635   0.02119   0.02200   0.02410
     Eigenvalues ---    0.02558   0.11702   0.14914   0.15754   0.15863
     Eigenvalues ---    0.15999   0.20457   0.21736   0.23439   0.24521
     Eigenvalues ---    0.25000   0.25271   0.30253   0.35682   0.35778
     Eigenvalues ---    0.36229   0.39717   0.43624   0.45201   0.47600
     Eigenvalues ---    0.51440   0.54227   0.54995   0.63268   0.78244
     Eigenvalues ---    0.93148
 RFO step:  Lambda=-5.77863519D-02 EMin= 2.27287088D-03
 Quartic linear search produced a step of  0.59563.
 Iteration  1 RMS(Cart)=  0.15652971 RMS(Int)=  0.05492923
 Iteration  2 RMS(Cart)=  0.07714377 RMS(Int)=  0.00890288
 Iteration  3 RMS(Cart)=  0.00992061 RMS(Int)=  0.00240027
 Iteration  4 RMS(Cart)=  0.00022521 RMS(Int)=  0.00239156
 Iteration  5 RMS(Cart)=  0.00000035 RMS(Int)=  0.00239156
 Variable       Old X    -DE/DX   Delta X   Delta X   Delta X     New X
                                 (Linear)    (Quad)   (Total)
    R1        2.67557  -0.01421   0.01144  -0.04151  -0.03051   2.64505
    R2        2.58181   0.00137   0.00704   0.00287   0.01016   2.59197
    R3        2.79369  -0.00161   0.00889  -0.00464   0.00424   2.79793
    R4        2.63213  -0.00215  -0.00064  -0.00529  -0.00654   2.62559
    R5        2.14461  -0.00998   0.05777  -0.02847   0.02930   2.17392
    R6        2.60170   0.00467   0.00026   0.01322   0.01359   2.61529
    R7        2.03885   0.00103   0.00096   0.00366   0.00462   2.04347
    R8        2.53093   0.00136  -0.00491   0.00334  -0.00083   2.53009
    R9        2.04581   0.00015   0.00090   0.00062   0.00152   2.04733
   R10        2.42342   0.05354   0.12266   0.26435   0.38701   2.81043
   R11        2.37660  -0.00608  -0.00718  -0.01019  -0.01736   2.35924
   R12        2.32497   0.00624   0.00608   0.00874   0.01482   2.33979
   R13        1.86281  -0.01813  -0.02755  -0.05240  -0.07995   1.78286
   R14        1.82484   0.00013   0.00488   0.00038   0.00525   1.83010
    A1        1.93739   0.00676  -0.00087   0.03565   0.03248   1.96987
    A2        2.15703  -0.01641   0.03639  -0.06723  -0.03052   2.12651
    A3        2.11914   0.00949  -0.02716   0.04165   0.01524   2.13438
    A4        1.80975   0.00152  -0.00847   0.00204  -0.00946   1.80029
    A5        2.16017  -0.01775   0.02812  -0.14183  -0.11078   2.04939
    A6        2.07157   0.01374  -0.02571   0.08770   0.05957   2.13114
    A7        1.87378  -0.00154   0.01226   0.00425   0.01289   1.88667
    A8        2.10996   0.00162  -0.00484   0.00585   0.00099   2.11095
    A9        2.29309   0.00025  -0.00634  -0.00145  -0.00792   2.28517
   A10        1.95141  -0.00027  -0.00608   0.00288  -0.00448   1.94693
   A11        2.23789   0.00026   0.00417  -0.00021   0.00450   2.24239
   A12        2.09382  -0.00002   0.00199  -0.00294  -0.00042   2.09340
   A13        1.83490  -0.00537   0.00503  -0.02057  -0.01701   1.81789
   A14        2.74784   0.01270   0.08773   0.07968   0.16741   2.91525
   A15        1.99133  -0.01043   0.01550  -0.04287  -0.03556   1.95577
   A16        2.00692   0.00279  -0.01215   0.01338  -0.00696   1.99996
   A17        2.28371   0.00817  -0.00365   0.04070   0.02869   2.31240
   A18        2.05355  -0.00809  -0.00658  -0.04165  -0.05198   2.00157
   A19        2.25612   0.00210   0.00431   0.03083   0.03110   2.28723
   A20        1.85242   0.00762   0.01564   0.07371   0.08558   1.93800
    D1       -0.18176   0.00491   0.01011   0.12078   0.13085  -0.05091
    D2        2.24824   0.00936  -0.01093   0.10642   0.09890   2.34714
    D3       -2.93433   0.00248  -0.00311   0.08142   0.07702  -2.85731
    D4       -0.50433   0.00693  -0.02414   0.06706   0.04506  -0.45927
    D5        0.14474  -0.00176  -0.00613  -0.06301  -0.06945   0.07529
    D6        2.90707  -0.00605   0.02439  -0.05268  -0.02710   2.87997
    D7       -0.35503   0.00981  -0.00375   0.19526   0.19050  -0.16453
    D8        2.83393  -0.00052   0.00267  -0.02205  -0.01886   2.81507
    D9       -3.06878   0.00856  -0.02694   0.15684   0.12937  -2.93941
   D10        0.12018  -0.00177  -0.02052  -0.06048  -0.07999   0.04019
   D11        0.14435  -0.00678  -0.00791  -0.13120  -0.13847   0.00588
   D12       -3.10505  -0.00401   0.00027  -0.05832  -0.05761   3.12052
   D13       -2.32996   0.00443  -0.01379  -0.00554  -0.01722  -2.34717
   D14        0.70382   0.00720  -0.00560   0.06733   0.06365   0.76747
   D15        0.12575   0.00848   0.02985   0.26008   0.29145   0.41720
   D16        2.45877   0.00639   0.01693   0.19288   0.20829   2.66706
   D17       -0.06510   0.00630   0.00418   0.10193   0.10651   0.04141
   D18        3.06424   0.00330   0.00940   0.07649   0.08544  -3.13350
   D19       -3.08330   0.00304  -0.00558   0.01784   0.01371  -3.06959
   D20        0.04603   0.00004  -0.00036  -0.00761  -0.00735   0.03868
   D21       -0.04836  -0.00212   0.00077  -0.02171  -0.02143  -0.06979
   D22        3.10435   0.00060  -0.00401   0.00135  -0.00244   3.10191
   D23       -0.61278   0.00974   0.05660   0.32857   0.38521  -0.22757
   D24        3.11374   0.00422   0.02365   0.16887   0.19248  -2.97696
   D25       -2.68041  -0.00390  -0.02407  -0.12176  -0.14720  -2.82761
         Item               Value     Threshold  Converged?
 Maximum Force            0.053537     0.000450     NO 
 RMS     Force            0.009950     0.000300     NO 
 Maximum Displacement     1.175129     0.001800     NO 
 RMS     Displacement     0.224942     0.001200     NO 
 Predicted change in Energy=-3.004903D-02
 GradGradGradGradGradGradGradGradGradGradGradGradGradGradGradGradGradGrad

                          Input orientation:                          
 ---------------------------------------------------------------------
 Center     Atomic      Atomic             Coordinates (Angstroms)
 Number     Number       Type             X           Y           Z
 ---------------------------------------------------------------------
      1          7           0       -0.435726   -0.360993   -0.184953
      2          7           0       -0.483875    0.924035    0.367813
      3          6           0       -1.827333    1.262749    0.263699
      4          6           0       -2.495014    0.199214   -0.318042
      5          7           0       -1.671460   -0.830392   -0.550928
      6          1           0       -2.191682    2.211957    0.631927
      7          1           0       -3.548098    0.114345   -0.557973
      8          1           0        0.121026    1.110576    1.328379
      9          6           0        0.720473   -1.260677    0.029426
     10          8           0        1.677076   -0.672817    0.575293
     11          8           0        0.490337   -2.456994   -0.191720
     12          8           0        1.085201    1.091680    2.460557
     13          1           0        1.619354    0.315594    2.510214
     14          1           0        1.085868    1.568721    3.303362
 ---------------------------------------------------------------------
                    Distance matrix (angstroms):
                    1          2          3          4          5
     1  N    0.000000
     2  N    1.399702   0.000000
     3  C    2.185039   1.389405   0.000000
     4  C    2.138273   2.245093   1.383953   0.000000
     5  N    1.371609   2.309212   2.251478   1.338867   0.000000
     6  H    3.220364   2.155250   1.081359   2.246238   3.305399
     7  H    3.170481   3.301838   2.225984   1.083400   2.101035
     8  H    2.183040   1.150387   2.225489   3.222568   3.242246
     9  C    1.480603   2.517524   3.593588   3.548432   2.498660
    10  O    2.266967   2.694938   4.015518   4.354861   3.536368
    11  O    2.291475   3.562797   4.406301   3.997965   2.729145
    12  O    3.379675   2.621008   3.652164   4.618987   4.512492
    13  H    3.456161   3.063275   4.221798   4.994056   4.638247
    14  H    4.267011   3.390746   4.221363   5.273787   5.311699
                    6          7          8          9         10
     6  H    0.000000
     7  H    2.766894   0.000000
     8  H    2.654563   4.244204   0.000000
     9  C    4.571962   4.522877   2.769378   0.000000
    10  O    4.826221   5.404290   2.483730   1.248455   0.000000
    11  O    5.447084   4.801551   3.895465   1.238161   2.275950
    12  O    3.916231   5.615529   1.487218   3.402500   2.649148
    13  H    4.652757   6.013055   2.067297   3.073585   2.173523
    14  H    4.276990   6.204736   2.245300   4.342541   3.579996
                   11         12         13         14
    11  O    0.000000
    12  O    4.470070   0.000000
    13  H    4.032663   0.943449   0.000000
    14  H    5.364386   0.968446   1.576077   0.000000
 Stoichiometry    C3H5N3O3(1-,2)
 Framework group  C1[X(C3H5N3O3)]
 Deg. of freedom    36
 Full point group                 C1      NOp   1
 Largest Abelian subgroup         C1      NOp   1
 Largest concise Abelian subgroup C1      NOp   1
                         Standard orientation:                         
 ---------------------------------------------------------------------
 Center     Atomic      Atomic             Coordinates (Angstroms)
 Number     Number       Type             X           Y           Z
 ---------------------------------------------------------------------
      1          7           0       -0.384972   -0.440991   -0.269634
      2          7           0       -0.385324    0.944954   -0.465391
      3          6           0       -1.686706    1.309383   -0.142832
      4          6           0       -2.374762    0.166190    0.224613
      5          7           0       -1.581217   -0.912043    0.208300
      6          1           0       -1.999598    2.343868   -0.178572
      7          1           0       -3.409712    0.071352    0.530619
      8          1           0        0.526666    1.533971   -0.084966
      9          6           0        0.873005   -1.212854   -0.151710
     10          8           0        1.874583   -0.522864   -0.433482
     11          8           0        0.745884   -2.328653    0.369708
     12          8           0        1.862000    1.999832    0.375114
     13          1           0        2.474408    1.309244    0.570407
     14          1           0        2.139879    2.835294    0.778444
 ---------------------------------------------------------------------
 Rotational constants (GHZ):           2.0071829           1.6178721           0.9441139
 Standard basis: 6-31+G(d,p) (6D, 7F)
 There are   196 symmetry adapted cartesian basis functions of A   symmetry.
 There are   196 symmetry adapted basis functions of A   symmetry.
   196 basis functions,   323 primitive gaussians,   196 cartesian basis functions
    35 alpha electrons       34 beta electrons
       nuclear repulsion energy       454.6368486591 Hartrees.
 NAtoms=   14 NActive=   14 NUniq=   14 SFac= 1.00D+00 NAtFMM=   60 NAOKFM=F Big=F
 Integral buffers will be    131072 words long.
 Raffenetti 2 integral format.
 Two-electron integral symmetry is turned on.
 One-electron integrals computed using PRISM.
 NBasis=   196 RedAO= T EigKep=  4.14D-05  NBF=   196
 NBsUse=   196 1.00D-06 EigRej= -1.00D+00 NBFU=   196
 Initial guess from the checkpoint file:  "/home/gau/soft/scratch/Gau-170082.chk"
 B after Tr=    -0.000000    0.000000   -0.000000
         Rot=    0.977220   -0.003223   -0.012169    0.211855 Ang= -24.51 deg.
 Initial guess <Sx>= 0.0000 <Sy>= 0.0000 <Sz>= 0.5000 <S**2>= 0.7650 S= 0.5075
 ExpMin= 4.38D-02 ExpMax= 5.48D+03 ExpMxC= 8.25D+02 IAcc=3 IRadAn=         5 AccDes= 0.00D+00
 Harris functional with IExCor= 1009 and IRadAn=       5 diagonalized for initial guess.
 HarFok:  IExCor= 1009 AccDes= 0.00D+00 IRadAn=         5 IDoV= 1 UseB2=F ITyADJ=14
 ICtDFT=  3500011 ScaDFX=  1.000000  1.000000  1.000000  1.000000
 FoFCou: FMM=F IPFlag=           0 FMFlag=      100000 FMFlg1=           0
         NFxFlg=           0 DoJE=T BraDBF=F KetDBF=T FulRan=T
         wScrn=  0.000000 ICntrl=       500 IOpCl=  0 I1Cent=   200000004 NGrid=           0
         NMat0=    1 NMatS0=      1 NMatT0=    0 NMatD0=    1 NMtDS0=    0 NMtDT0=    0
 Petite list used in FoFCou.
 Requested convergence on RMS density matrix=1.00D-08 within 128 cycles.
 Requested convergence on MAX density matrix=1.00D-06.
 Requested convergence on             energy=1.00D-06.
 No special actions if energy rises.
 SCF Done:  E(UM062X) =  -507.045056215     A.U. after   18 cycles
            NFock= 18  Conv=0.78D-08     -V/T= 2.0083
 <Sx>= 0.0000 <Sy>= 0.0000 <Sz>= 0.5000 <S**2>= 0.7649 S= 0.5074
 <L.S>=  0.00000000000    
 Annihilation of the first spin contaminant:
 S**2 before annihilation     0.7649,   after     0.7501
 Calling FoFJK, ICntrl=      2127 FMM=F ISym2X=0 I1Cent= 0 IOpClX= 1 NMat=1 NMatS=1 NMatT=0.
 ***** Axes restored to original set *****
 -------------------------------------------------------------------
 Center     Atomic                   Forces (Hartrees/Bohr)
 Number     Number              X              Y              Z
 -------------------------------------------------------------------
      1        7           0.002009310   -0.012085740   -0.003024200
      2        7           0.016381668    0.008803842    0.028396954
      3        6          -0.007323905    0.005402434    0.002769358
      4        6           0.003756861    0.003930774    0.005837385
      5        7           0.006133048    0.004273486   -0.003275744
      6        1           0.000328427   -0.000463610   -0.001479712
      7        1           0.000630354    0.000962971    0.000361381
      8        1          -0.027648223   -0.017273015   -0.051481628
      9        6          -0.022326880   -0.010814669    0.023724393
     10        8           0.012619284    0.004860803   -0.000819092
     11        8           0.008904451    0.008404957   -0.009780556
     12        8          -0.008640089    0.036171902    0.023736940
     13        1           0.014724340   -0.025982476   -0.009808822
     14        1           0.000451355   -0.006191660   -0.005156657
 -------------------------------------------------------------------
 Cartesian Forces:  Max     0.051481628 RMS     0.015319239

 GradGradGradGradGradGradGradGradGradGradGradGradGradGradGradGradGradGrad
 Berny optimization.
 Using GEDIIS/GDIIS optimizer.
 FormGI is forming the generalized inverse of G from B-inverse, IUseBI=4.
 Internal  Forces:  Max     0.048916353 RMS     0.009845603
 Search for a local minimum.
 Step number   3 out of a maximum of   69
 All quantities printed in internal units (Hartrees-Bohrs-Radians)
 Mixed Optimization -- RFO/linear search
 Update second derivatives using D2CorX and points    2    3
 DE= -2.85D-02 DEPred=-3.00D-02 R= 9.48D-01
 TightC=F SS=  1.41D+00  RLast= 8.37D-01 DXNew= 8.4853D-01 2.5110D+00
 Trust test= 9.48D-01 RLast= 8.37D-01 DXMaxT set to 8.49D-01
 ITU=  1  1  0
 Use linear search instead of GDIIS.
     Eigenvalues ---    0.00227   0.00237   0.00770   0.00894   0.01180
     Eigenvalues ---    0.01521   0.01878   0.02109   0.02261   0.02429
     Eigenvalues ---    0.03093   0.08995   0.13874   0.15492   0.15994
     Eigenvalues ---    0.15995   0.17791   0.22079   0.23602   0.24584
     Eigenvalues ---    0.25027   0.25667   0.30741   0.35774   0.35788
     Eigenvalues ---    0.36238   0.40705   0.43636   0.47669   0.49366
     Eigenvalues ---    0.51637   0.54316   0.54991   0.65547   0.79263
     Eigenvalues ---    0.93646
 RFO step:  Lambda=-2.98926730D-02 EMin= 2.27339067D-03
 Quartic linear search produced a step of  0.10958.
 Iteration  1 RMS(Cart)=  0.12442345 RMS(Int)=  0.03753618
 Iteration  2 RMS(Cart)=  0.03578189 RMS(Int)=  0.01114472
 Iteration  3 RMS(Cart)=  0.00179758 RMS(Int)=  0.01098426
 Iteration  4 RMS(Cart)=  0.00006268 RMS(Int)=  0.01098415
 Iteration  5 RMS(Cart)=  0.00000399 RMS(Int)=  0.01098415
 Iteration  6 RMS(Cart)=  0.00000026 RMS(Int)=  0.01098415
 Variable       Old X    -DE/DX   Delta X   Delta X   Delta X     New X
                                 (Linear)    (Quad)   (Total)
    R1        2.64505  -0.00374  -0.00334  -0.01729  -0.02112   2.62393
    R2        2.59197  -0.00609   0.00111  -0.00387  -0.00274   2.58923
    R3        2.79793  -0.00022   0.00046   0.00417   0.00464   2.80257
    R4        2.62559   0.00045  -0.00072  -0.00253  -0.00355   2.62204
    R5        2.17392  -0.04892   0.00321  -0.08673  -0.08352   2.09040
    R6        2.61529  -0.00451   0.00149  -0.00161   0.00013   2.61543
    R7        2.04347  -0.00102   0.00051  -0.00024   0.00026   2.04374
    R8        2.53009   0.00641  -0.00009   0.00905   0.00948   2.53958
    R9        2.04733  -0.00077   0.00017  -0.00093  -0.00076   2.04657
   R10        2.81043   0.01086   0.04241   0.22947   0.27188   3.08231
   R11        2.35924   0.01160  -0.00190   0.00396   0.00206   2.36130
   R12        2.33979  -0.00803   0.00162   0.00017   0.00179   2.34158
   R13        1.78286   0.02919  -0.00876   0.01411   0.00535   1.78821
   R14        1.83010  -0.00754   0.00058  -0.00845  -0.00787   1.82223
    A1        1.96987  -0.00340   0.00356  -0.00302  -0.00120   1.96867
    A2        2.12651  -0.00804  -0.00334  -0.02419  -0.02724   2.09926
    A3        2.13438   0.01145   0.00167   0.03441   0.03715   2.17153
    A4        1.80029   0.00801  -0.00104   0.02055   0.01839   1.81868
    A5        2.04939  -0.01533  -0.01214  -0.10637  -0.11626   1.93313
    A6        2.13114   0.00684   0.00653   0.05475   0.05992   2.19106
    A7        1.88667  -0.00746   0.00141  -0.01877  -0.01894   1.86774
    A8        2.11095   0.00401   0.00011   0.01269   0.01293   2.12388
    A9        2.28517   0.00347  -0.00087   0.00703   0.00630   2.29147
   A10        1.94693   0.00311  -0.00049   0.00931   0.00834   1.95527
   A11        2.24239  -0.00248   0.00049  -0.00762  -0.00691   2.23548
   A12        2.09340  -0.00065  -0.00005  -0.00141  -0.00123   2.09217
   A13        1.81789  -0.00010  -0.00186  -0.00395  -0.00681   1.81108
   A14        2.91525  -0.01293   0.01834   0.05518   0.07353   2.98877
   A15        1.95577   0.00228  -0.00390   0.03008  -0.02001   1.93575
   A16        1.99996   0.00581  -0.00076   0.04170  -0.00506   1.99490
   A17        2.31240  -0.00397   0.00314   0.02669  -0.02023   2.29217
   A18        2.00157  -0.01400  -0.00570  -0.09497  -0.10132   1.90025
   A19        2.28723   0.00814   0.00341   0.04803   0.05086   2.33809
   A20        1.93800   0.00559   0.00938   0.05851   0.06719   2.00519
    D1       -0.05091   0.00344   0.01434   0.07961   0.09419   0.04328
    D2        2.34714   0.00758   0.01084   0.08313   0.09579   2.44292
    D3       -2.85731   0.00102   0.00844   0.05015   0.05883  -2.79848
    D4       -0.45927   0.00516   0.00494   0.05366   0.06043  -0.39884
    D5        0.07529  -0.00287  -0.00761  -0.06517  -0.07214   0.00315
    D6        2.87997  -0.00472  -0.00297  -0.04842  -0.04958   2.83039
    D7       -0.16453  -0.00779   0.02087  -0.19828  -0.16840  -0.33293
    D8        2.81507   0.01366  -0.00207   0.32795   0.31686   3.13193
    D9       -2.93941  -0.00713   0.01418  -0.22193  -0.19873  -3.13814
   D10        0.04019   0.01431  -0.00877   0.30431   0.28653   0.32672
   D11        0.00588  -0.00290  -0.01517  -0.06174  -0.07651  -0.07063
   D12        3.12052  -0.00230  -0.00631  -0.02910  -0.03564   3.08489
   D13       -2.34717   0.00489  -0.00189   0.02451   0.02404  -2.32314
   D14        0.76747   0.00549   0.00697   0.05715   0.06491   0.83238
   D15        0.41720   0.00402   0.03194   0.16217   0.19562   0.61282
   D16        2.66706   0.00659   0.02282   0.13030   0.15162   2.81868
   D17        0.04141   0.00147   0.01167   0.02687   0.03786   0.07927
   D18       -3.13350   0.00092   0.00936   0.03693   0.04566  -3.08784
   D19       -3.06959   0.00080   0.00150  -0.01023  -0.00850  -3.07809
   D20        0.03868   0.00026  -0.00081  -0.00017  -0.00070   0.03798
   D21       -0.06979   0.00048  -0.00235   0.02186   0.01921  -0.05057
   D22        3.10191   0.00102  -0.00027   0.01293   0.01227   3.11418
   D23       -0.22757   0.00483   0.04221   0.18955   0.23210   0.00453
   D24       -2.97696   0.00546   0.02109   0.14409   0.16484  -2.81212
   D25       -2.82761  -0.00111  -0.01613  -0.04196  -0.05786  -2.88548
         Item               Value     Threshold  Converged?
 Maximum Force            0.048916     0.000450     NO 
 RMS     Force            0.009846     0.000300     NO 
 Maximum Displacement     0.450289     0.001800     NO 
 RMS     Displacement     0.140170     0.001200     NO 
 Predicted change in Energy=-2.368437D-02
 GradGradGradGradGradGradGradGradGradGradGradGradGradGradGradGradGradGrad

                          Input orientation:                          
 ---------------------------------------------------------------------
 Center     Atomic      Atomic             Coordinates (Angstroms)
 Number     Number       Type             X           Y           Z
 ---------------------------------------------------------------------
[...]
 ! D1    D(5,1,2,3)             11.3734         -DE/DX =    0.0                 !
 ! D2    D(5,1,2,8)            145.9256         -DE/DX =    0.0                 !
 ! D3    D(9,1,2,3)            167.939          -DE/DX =    0.0                 !
 ! D4    D(9,1,2,8)            -57.5088         -DE/DX =    0.0                 !
 ! D5    D(2,1,5,4)             -8.8648         -DE/DX =    0.0                 !
 ! D6    D(9,1,5,4)           -164.3369         -DE/DX =    0.0                 !
 ! D7    D(2,1,9,10)            19.9084         -DE/DX =    0.0                 !
 ! D8    D(2,1,9,11)          -162.1764         -DE/DX =    0.0                 !
 ! D9    D(5,1,9,10)           173.3054         -DE/DX =    0.0                 !
 ! D10   D(5,1,9,11)            -8.7794         -DE/DX =    0.0                 !
 ! D11   D(1,2,3,4)             -9.0299         -DE/DX =    0.0                 !
 ! D12   D(1,2,3,6)            177.99           -DE/DX =    0.0                 !
 ! D13   D(8,2,3,4)           -138.7024         -DE/DX =    0.0                 !
 ! D14   D(8,2,3,6)             48.3175         -DE/DX =    0.0                 !
 ! D15   D(1,2,8,12)            37.1262         -DE/DX =    0.0                 !
 ! D16   D(3,2,8,12)           162.9533         -DE/DX =    0.0                 !
 ! D17   D(2,3,4,5)              4.1409         -DE/DX =    0.0                 !
 ! D18   D(2,3,4,7)           -174.6712         -DE/DX =    0.0                 !
 ! D19   D(6,3,4,5)            176.0691         -DE/DX =    0.0                 !
 ! D20   D(6,3,4,7)             -2.7429         -DE/DX =    0.0                 !
 ! D21   D(3,4,5,1)              2.8266         -DE/DX =    0.0                 !
 ! D22   D(7,4,5,1)           -178.2547         -DE/DX =    0.0                 !
 ! D23   D(2,8,12,13)            7.3099         -DE/DX =    0.0                 !
 ! D24   D(2,8,12,14)          -90.7427         -DE/DX =    0.0                 !
 ! D25   D(8,12,13,14)        -112.5955         -DE/DX =    0.0                 !
 --------------------------------------------------------------------------------
 GradGradGradGradGradGradGradGradGradGradGradGradGradGradGradGradGradGrad


 ----------------------------------------------------------------------

 Electric dipole moment (input orientation):
 (Debye = 10**-18 statcoulomb cm , SI units = C m)
                  (au)            (Debye)         (10**-30 SI)
   Tot        0.247680D+01      0.629540D+01      0.209992D+02
   x         -0.172892D+01     -0.439448D+01     -0.146584D+02
   y          0.162301D+01      0.412529D+01      0.137605D+02
   z          0.714983D+00      0.181731D+01      0.606188D+01

 Dipole polarizability, Alpha (input orientation).
 (esu units = cm**3 , SI units = C**2 m**2 J**-1)
 Alpha(0;0):
               (au)            (10**-24 esu)      (10**-40 SI)
   iso        0.822285D+02      0.121850D+02      0.135576D+02
   aniso      0.423709D+02      0.627872D+01      0.698602D+01
   xx         0.923723D+02      0.136882D+02      0.152301D+02
   yx        -0.976717D+01     -0.144735D+01     -0.161039D+01
   yy         0.902474D+02      0.133733D+02      0.148798D+02
   zx         0.112522D+02      0.166740D+01      0.185524D+01
   zy         0.113083D+02      0.167572D+01      0.186449D+01
   zz         0.640657D+02      0.949356D+01      0.105630D+02

 ----------------------------------------------------------------------

 Dipole orientation:
     7         -0.57705409         -1.28793238          0.32173623
     7          0.52471668          0.27183450          2.16750191
     6         -1.14921597          0.17459181          4.19834322
     6         -3.26654538         -1.06401704          3.33305293
     7         -2.99006541         -1.90607531          0.95360828
     1         -0.76242965          1.15938514          5.93927721
     1         -5.03075238         -1.36964920          4.31963711
     1          2.41867168         -0.04031234          2.39653712
     6          0.39172916         -1.26513389         -2.28242173
     8          2.60890519         -0.38779545         -2.43075710
     8         -1.01022929         -2.14538505         -3.90001545
     8          5.85276940         -0.81857803          1.16958603
     1          4.72243687         -0.58513078         -0.35320738
     1          6.29750009         -2.57962857          1.14616000

 Electric dipole moment (dipole orientation):
 (Debye = 10**-18 statcoulomb cm , SI units = C m)
                  (au)            (Debye)         (10**-30 SI)
   Tot        0.247680D+01      0.629540D+01      0.209992D+02
   x          0.000000D+00      0.000000D+00      0.000000D+00
   y          0.000000D+00      0.000000D+00      0.000000D+00
   z          0.247680D+01      0.629540D+01      0.209992D+02

 Dipole polarizability, Alpha (dipole orientation).
 (esu units = cm**3 , SI units = C**2 m**2 J**-1)
 Alpha(0;0):
               (au)            (10**-24 esu)      (10**-40 SI)
   iso        0.822285D+02      0.121850D+02      0.135576D+02
   aniso      0.423709D+02      0.627872D+01      0.698602D+01
   xx         0.893727D+02      0.132437D+02      0.147356D+02
   yx         0.800019D+01      0.118551D+01      0.131905D+01
   yy         0.595328D+02      0.882185D+01      0.981564D+01
   zx        -0.488985D+01     -0.724601D+00     -0.806227D+00
   zy         0.103212D+02      0.152945D+01      0.170174D+01
   zz         0.977799D+02      0.144895D+02      0.161217D+02

 ----------------------------------------------------------------------
 Unable to Open any file for archive entry.
 1\1\GINC-NODE01\Freq\UM062X\6-31+G(d,p)\C3H5N3O3(1-,2)\GAU\07-Dec-2023
 \0\\#N Geom=AllCheck Guess=TCheck SCRF=Check GenChk UM062X/6-31+G(d,p)
  Freq\\RC\\-1,2\N,-0.5506642327,-0.4512704,0.2825965496\N,-0.576917035
 9,0.9460846802,0.4306675956\C,-1.8962237483,1.3015709956,0.1562818243\
 C,-2.5060310523,0.1667720923,-0.3285161749\N,-1.6942689206,-0.90351758
 46,-0.2978734371\H,-2.2270439333,2.3253969807,0.2236099958\H,-3.508450
 1239,0.0696624793,-0.7235059428\H,-0.0968773618,1.2711136893,1.2735038
 584\C,0.7343818025,-1.1642800201,0.2347425145\O,1.6836117826,-0.489687
 9701,0.7268579334\O,0.7051985573,-2.2991323466,-0.2249902891\O,1.34027
 63813,1.2160825118,2.6244718992\H,1.5746535683,0.5580917327,1.89336771
 42\H,1.1644995067,0.6701091697,3.3958388588\\Version=ES64L-G16RevC.01\
 State=2-A\HF=-507.0809226\S2=0.765325\S2-1=0.\S2A=0.75008\RMSD=3.334e-
 09\RMSF=2.051e-05\ZeroPoint=0.0965785\Thermal=0.105721\ETot=-506.97520
 16\HTot=-506.9742574\GTot=-507.0198372\Dipole=-1.7289227,1.6230145,0.7
 149831\DipoleDeriv=-1.059259,0.7814328,-0.0777864,0.516471,-0.198236,0
 .0401003,-0.1044045,0.1600577,-0.1920969,-0.6168756,-0.4990783,-0.2151
 006,-0.3125902,-0.2631366,-0.1277528,-0.1137291,0.0149854,-0.1556838,0
 .0879337,0.202037,0.0978797,0.1416039,-0.3161007,-0.0545405,0.1899561,
 -0.1886493,-0.3862739,0.2058421,-0.099015,0.0798772,-0.0881976,0.66912
 6,0.2724471,0.0890392,0.1790934,-0.0018257,-0.189918,-0.004803,0.09068
 28,0.0908572,-0.795838,-0.1529381,0.0344884,-0.1790791,-0.2100109,0.06
 48483,0.0345095,-0.0450883,0.0655873,-0.0569968,-0.0262395,-0.0620576,
 0.0365091,0.222182,-0.0993557,0.0096618,-0.0893509,-0.0030393,0.094480
 6,-0.0161074,-0.0987177,-0.005009,0.1091303,0.4654288,0.1307058,0.2044
 058,0.0879501,0.2638599,0.0595775,0.136373,0.0169311,0.4205233,2.56894
 ,-0.454252,0.5676387,-0.5052565,2.2260952,0.6843807,0.3792292,0.626917
 5,0.721995,-1.4874981,-0.2018816,-0.4493722,-0.3964633,-1.0112963,-0.4
 948656,-0.4544558,-0.4086958,-0.9879558,-0.7662534,0.1455625,-0.069290
 5,0.3535438,-1.675861,-0.4240128,0.0369678,-0.4052008,-0.6465158,-0.81
 69855,-0.0027471,-0.1131392,-0.0737203,-0.7056689,-0.4101993,-0.279128
 2,-0.4069547,-1.058842,0.328043,-0.0273068,-0.0236395,0.1401993,0.5889
 473,0.5293787,0.1933638,0.4902053,0.9118527,0.3151095,-0.0148255,0.042
 2834,-0.0169456,0.1806251,0.1207717,0.0530753,0.0688891,0.2535217\Pola
 r=92.3723115,-9.7671706,90.2474334,11.2521908,11.3083321,64.065695\Qua
 drupole=-2.178025,-4.5010141,6.6790391,-1.0273717,-1.4635209,-6.779492
 6\PG=C01 [X(C3H5N3O3)]\NImag=0\\0.63787724,-0.08600103,0.55760734,0.17
 044574,0.09660525,0.14265147,-0.08281816,0.02231492,-0.02202040,0.5727
 5010,0.00439773,-0.22395653,-0.01636103,-0.00542870,0.47193881,-0.0435
 9330,-0.01571283,-0.04452821,0.29955816,0.16405440,0.41845245,-0.04061
 985,0.04849213,-0.00507118,-0.27840552,0.05981981,-0.07289987,0.537560
 29,0.03873371,-0.04823186,0.00019119,0.03317871,-0.09964977,-0.0163145
 5,-0.06620528,0.83023207,-0.00028385,0.01254493,-0.00279104,-0.0566459
 0,-0.01141550,-0.06104059,0.14436143,0.13641955,0.15341073,-0.08736343
 ,0.01850019,-0.02717732,-0.05898475,-0.00319718,-0.02737743,-0.1596168
 8,-0.12803045,-0.07096649,0.79168744,0.02253842,-0.00638850,0.00639180
 ,-0.02844030,-0.00543489,-0.01274515,-0.10934532,-0.24237701,-0.071979
 71,0.03125427,0.54725960,-0.03362981,0.00498857,-0.00230099,-0.0243782
 5,-0.00508796,0.00081330,-0.06608822,-0.08542082,-0.09381897,0.2528767
 8,0.10016284,0.23360785,-0.21405783,-0.06475602,-0.08583952,-0.0360347
 2,-0.04738081,-0.01490592,0.03121041,0.05307689,0.01097040,-0.18385702
 ,0.12457680,-0.02123833,0.44486413,-0.00110220,-0.11769780,-0.02661514
 ,-0.03179528,-0.03700198,-0.02281249,0.00313881,-0.11589712,-0.0439904
 2,0.10165677,-0.21528761,0.00346880,-0.08181070,0.46724347,-0.07956565
 ,-0.05563906,-0.07760995,-0.01898547,-0.01984002,-0.01259728,0.0049174
 1,-0.01838516,0.02088939,-0.02288997,0.00857956,-0.06151330,0.12164968
 ,0.07090795,0.13185215,-0.00667904,0.00024435,-0.00202828,-0.00391602,
 0.02990852,0.00532912,-0.07929909,0.08429246,-0.00581052,0.01105547,-0
 .01024986,0.00322780,-0.00063188,-0.00474064,-0.00381327,0.07886179,-0
 .00129390,-0.00029201,-0.00111697,-0.00210291,-0.00062385,0.00059889,0
 .09428484,-0.33850026,-0.02768987,0.01142624,-0.00874052,0.00373193,-0
 .00058226,-0.00147181,-0.00188700,-0.10136452,0.35021223,-0.00576818,0
 .00046197,0.00075254,0.00110821,0.00768387,-0.00260467,-0.00687240,-0.
 02401706,-0.01748901,0.00842879,-0.00931422,-0.00124451,-0.00201531,-0
 .00073621,0.00578683,0.00275989,0.02638265,0.01679999,-0.00161370,0.00
 382979,-0.00151580,0.00138399,-0.00005868,-0.00280382,-0.00383115,0.00
 306573,-0.00078179,-0.30647831,-0.02830748,-0.10811384,-0.01573505,-0.
 00241295,-0.00464857,-0.00054148,-0.00060895,0.00051342,0.32680399,0.0
 0637965,-0.00484739,-0.00152234,-0.00063537,-0.00498926,-0.00467068,-0
 .02153935,0.00816109,-0.00500214,-0.03205151,-0.06272866,-0.01932211,0
 .02302188,0.00828991,0.01241000,0.00057938,-0.00030568,0.00056225,0.02
 494141,0.05432732,-0.00163365,-0.00192770,0.00647907,-0.00341380,-0.00
 152079,0.00486602,-0.00640632,0.00288961,-0.00149946,-0.11002842,-0.01
 655432,-0.07629822,0.00315555,0.00189679,-0.00431648,0.00068065,0.0000
 5435,-0.00202575,0.11785456,0.01619362,0.07180125,-0.00430075,-0.00076
 518,0.00491732,-0.10631545,-0.03729904,-0.14118863,-0.01486435,-0.0126
 3623,-0.02052093,-0.00478526,0.00385166,-0.00215478,0.00412904,0.00275
 082,0.00107017,0.00003601,0.00031519,0.00063498,-0.00021882,-0.0010165
 9,0.00006079,0.12874169,-0.02417715,-0.01280562,-0.02847659,-0.0283210
 7,-0.08520420,-0.08888827,-0.00159215,0.00849501,0.01306748,0.00477526
 ,-0.00245723,0.00106132,0.00177376,-0.00523405,-0.00210786,0.00007965,
 -0.00044136,-0.00054483,0.00037905,0.00072905,-0.00085839,0.04431785,0
 .10272301,0.00557762,-0.00204203,0.00434433,-0.17119360,-0.11746874,-0
 .29413545,0.00487479,0.00696907,0.00259822,0.00208241,0.00000049,0.001
 27219,0.00236935,0.00478645,0.00030826,-0.00041808,-0.00034735,-0.0001
 5521,0.00029249,0.00072663,0.00071701,0.15568640,0.10512861,0.28515765
 ,-0.10823062,0.02948736,-0.01994990,-0.00297479,-0.00301745,0.00682459
 ,0.01225255,-0.01223891,-0.00205560,-0.00030356,-0.00280096,0.00043541
 ,-0.02619303,-0.00088471,-0.00083351,0.00203352,-0.00104333,0.00203611
 ,0.00168527,-0.00051073,0.00008012,0.01314184,0.00045382,0.00397093,0.
 52480660,0.00313535,-0.09582148,-0.00815140,0.02607271,-0.01940530,-0.
 00241147,-0.00633290,-0.00414545,-0.00057816,-0.00843033,-0.00071612,-
 0.00442707,-0.00390666,0.01314398,0.00609236,0.00049772,0.00018210,-0.
 00078306,-0.00157650,0.00177903,-0.00086860,0.00205109,-0.00348336,-0.
 00206910,0.16105459,0.88697689,-0.00018950,-0.01423496,-0.04777559,-0.
 00389005,-0.00040563,-0.00662390,0.00414245,-0.00269694,-0.00079628,-0
 .00639380,-0.00195345,-0.00057103,-0.00999861,0.01190248,-0.00798920,-
 0.00043185,0.00002480,0.00057348,-0.00111045,0.00071355,0.00081851,0.0
 0368098,-0.00278925,0.00058362,0.14128983,0.30038828,0.37433752,-0.085
 07232,-0.01723350,-0.02377854,0.00570092,0.00024441,-0.00173881,-0.004
 80075,0.00336310,0.00155610,-0.00277876,-0.00416228,-0.00220058,-0.003
 70444,0.01299395,0.00235042,-0.00026587,0.00048388,-0.00063715,-0.0011
 6396,0.00097777,-0.00029257,-0.00549827,-0.00145727,-0.00283475,-0.313
 78316,-0.15690110,-0.11668909,0.40789369,-0.00601472,0.01052313,0.0044
 7063,0.01076926,0.00309034,-0.00090015,-0.00443287,0.00461313,0.000162
 76,0.00261322,-0.00152901,0.00058536,-0.00006369,0.00302535,-0.0016325
 3,-0.00008683,0.00023296,-0.00049882,-0.00002232,-0.00001101,0.0003639
 3,-0.00651343,-0.00004950,-0.00010199,-0.14585888,-0.20981992,-0.09136
 125,0.19629321,0.26223541,-0.02354900,-0.00366651,0.01230318,0.0045766
 3,0.00096071,-0.00056240,-0.00296925,0.00230366,0.00193900,0.00047940,
 -0.00207512,-0.00030737,-0.00259195,0.00230810,0.00429994,-0.00002873,
 0.00026630,-0.00056993,-0.00001939,0.00029546,-0.00062567,-0.00503060,
 0.00051903,-0.00462863,-0.10670128,-0.08934843,-0.14328533,0.15508800,
 0.14875303,0.14480458,-0.00738645,0.04554901,0.01121587,-0.00518461,0.
 00147927,-0.00018496,-0.00138755,0.00418066,0.00076659,0.00175542,0.00
 110638,0.00121192,0.00065408,0.00329950,0.00128114,-0.00063675,0.00049
 987,-0.00031187,-0.00024273,-0.00003695,-0.00009257,-0.00257700,0.0003
 1835,-0.00110997,-0.09739751,-0.01186190,-0.00610742,0.00744152,-0.056
 06340,-0.03010504,0.10405872,0.03966199,-0.05901627,-0.02621467,0.0063
 3759,-0.00036294,0.00088866,0.00232138,-0.00168021,-0.00091866,0.00173
 322,-0.00196657,0.00023900,-0.00374235,0.00190173,0.00160963,0.0008957
 9,-0.00022169,0.00067533,0.00070595,-0.00030292,0.00028642,-0.00020505
 ,0.00070205,0.00080098,-0.01425178,-0.56315023,-0.19585121,-0.04350051
 ,-0.05831479,-0.04742598,0.00978566,0.67932989,0.00864780,-0.02227058,
 0.00763611,0.00384147,-0.00061444,0.00403997,-0.00047181,0.00006264,0.
 00014729,0.00156363,-0.00081738,0.00035128,-0.00095453,0.00119065,0.00
 174250,0.00051100,-0.00001116,0.00002083,0.00030987,-0.00013086,0.0000
 0354,-0.00089191,0.00084681,0.00009637,-0.00963011,-0.19369237,-0.1629
 8266,-0.02274540,-0.04782164,0.00212218,0.01996584,0.26235305,0.144337
 76,0.00425375,0.00176586,0.00021933,-0.00531941,0.00040813,-0.00616957
 ,0.00311888,-0.00173561,-0.00122762,-0.00069505,0.00047591,0.00004066,
 -0.00050261,-0.00185465,-0.00087802,-0.00011478,-0.00003002,0.00032100
 ,-0.00013002,-0.00020741,0.00007991,-0.00198388,-0.00214123,0.00559882
 ,-0.01306632,0.00081724,-0.00021414,0.01411483,0.00807809,0.00874154,0
 .00289866,0.00065838,0.00065530,0.06184413,-0.00403305,0.00041646,-0.0
 0040108,0.00194603,0.00132844,0.00049163,-0.00138062,0.00116458,0.0004
 6264,-0.00009779,-0.00073714,-0.00018179,-0.00001945,0.00223742,0.0006
 2569,-0.00019195,0.00017380,-0.00034058,-0.00014760,0.00009691,-0.0000
 3278,-0.00274743,-0.00458365,-0.00184564,0.02227626,0.00696437,0.00414
 728,-0.00998613,-0.02126590,-0.03465690,-0.00451854,-0.00601553,-0.001
 95500,-0.00249082,0.40331875,-0.00336073,0.00163181,-0.00002187,-0.006
 43516,-0.00038959,-0.00424497,0.00083791,-0.00063387,-0.00009351,-0.00
 087644,-0.00087399,-0.00042069,-0.00128189,0.00053856,-0.00040233,-0.0
 0016912,0.00026754,-0.00033843,-0.00028284,-0.00008851,-0.00011042,0.0
 0338605,-0.00022001,-0.00180132,0.02040721,0.00623015,0.00407690,-0.00
 972202,-0.03199957,-0.03063856,-0.00450794,-0.00750216,-0.00278083,-0.
 14048072,-0.07052810,0.58571274,-0.00324765,-0.00148543,0.00015092,0.0
 0152424,0.00041693,-0.00013815,-0.00122281,0.00100157,0.00051850,0.000
 47398,-0.00022565,0.00009435,0.00010619,0.00073391,0.00042656,0.000080
 32,-0.00003083,-0.00008622,0.00007593,0.00011091,-0.00001664,-0.008201
 97,0.00397356,-0.00422967,0.00642211,-0.00473406,-0.00396743,-0.017264
 38,0.00126164,0.00257949,-0.00169279,-0.00048388,-0.00080373,-0.040208
 14,0.04424724,0.06072347,0.06350277,0.00747577,0.00051399,0.00074979,-
 0.00358698,-0.00001127,-0.00100400,0.00265225,-0.00204249,-0.00095695,
 -0.00012727,0.00093457,0.00018365,-0.00020182,-0.00304177,-0.00067714,
 0.00013345,-0.00017188,0.00039672,0.00019729,-0.00019503,0.00006645,0.
 00799600,0.00200818,0.00485225,-0.03231232,-0.01202131,-0.00727870,0.0
 1891015,0.00982262,0.02222576,0.00633409,0.00924661,0.00279812,0.05083
 660,-0.17999259,-0.15206230,-0.04970347,0.15950816,0.00687677,-0.00053
 251,0.00057688,-0.00200299,0.00004890,-0.00217589,0.00173298,-0.001263
 34,-0.00137571,0.00025722,0.00114994,0.00043865,0.00073164,-0.00269883
 ,-0.00040696,0.00016762,-0.00025668,0.00048090,0.00025883,-0.00016043,
 0.00018293,-0.00016444,0.00242225,0.00722863,-0.03529950,-0.00865573,-
 0.00913429,0.02180341,0.02150089,0.01384608,0.00802228,0.01040486,0.00
 507488,0.04941798,-0.10443064,-0.18711483,-0.06030090,0.10352234,0.195
 08672,-0.00074118,0.00005755,0.00043176,-0.00140584,-0.00029293,-0.000
 71141,-0.00009419,-0.00004635,0.00011968,-0.00010930,-0.00027159,-0.00
 008310,-0.00024727,0.00002736,-0.00008093,0.00001781,0.00004671,-0.000
 11127,0.00000604,-0.00001311,-0.00002760,0.00269717,0.00161757,-0.0006
 6675,0.00160711,0.00011477,-0.00012092,-0.00081907,0.00004071,-0.00046
 983,-0.00030301,0.00008360,0.00000257,-0.02421004,-0.04285614,0.081762
 20,-0.00034780,-0.00860378,0.00849911,0.02394956,0.00029942,-0.0000034
 7,0.00045055,-0.00030862,0.00028241,-0.00057398,0.00011927,-0.00014170
 ,-0.00012594,-0.00002465,0.00016910,0.00001827,0.00001441,-0.00020971,
 -0.00005641,0.00000249,-0.00003204,0.00007201,0.00001525,-0.00000337,0
 .00001142,-0.00009965,-0.00039832,0.00061036,-0.00035296,-0.00048320,-
 0.00060501,-0.00002568,-0.00255280,-0.00045911,-0.00007200,-0.00014913
 ,0.00006217,-0.05458049,-0.20310592,0.25563004,0.00491757,0.01544223,-
 0.02105103,0.05009563,0.19118592,0.00002575,-0.00020636,0.00028406,-0.
 00011885,0.00035583,0.00034161,-0.00008792,-0.00010399,-0.00008006,0.0
 0002163,0.00002872,-0.00000821,-0.00005056,-0.00014668,-0.00004359,0.0
 0002377,-0.00001742,0.00001293,0.00004734,-0.00000443,0.00000767,0.000
 51459,0.00083971,-0.00158567,-0.00057432,-0.00172539,-0.00123174,-0.00
 015903,-0.00152065,0.00130294,-0.00004387,0.00065473,0.00019078,0.0838
 9553,0.20864526,-0.36182187,0.00504944,0.02718400,-0.02270798,-0.08854
 351,-0.23398333,0.38533912\\-0.00000467,-0.00002793,0.00000103,0.00000
 681,0.00003278,-0.00002511,-0.00001909,-0.00000463,0.00000099,-0.00000
 416,0.00001252,0.00000060,0.00003757,-0.00000608,0.00000714,-0.0000018
 6,0.00000057,-0.00000854,0.00000091,-0.00000332,0.00000008,0.00001194,
 -0.00003291,0.00003427,-0.00002583,0.00002934,-0.00002014,0.00000833,-
 0.00002126,-0.00001231,0.00000229,-0.00000458,0.00000234,-0.00001383,0
 .00007578,0.00002315,0.00000438,-0.00003366,-0.00000381,-0.00000278,-0
 .00001662,0.00000032\\\@
 The archive entry for this job was punched.


 THE WORLD IS MADE UP OF THE WILLS, THE WON'TS, AND THE CANT'S:
 THE WILLS DO EVERYTHING,
 THE WON'TS DO NOTHING,
 THE CAN'TS CAN'T DO ANYTHING.

                               -- FROM WALT DISNEY'S "BLACK HOLE"
 Job cpu time:       0 days  0 hours 58 minutes 59.5 seconds.
 Elapsed time:       0 days  0 hours  1 minutes 14.2 seconds.
 File lengths (MBytes):  RWF=    127 Int=      0 D2E=      0 Chk=      6 Scr=      1
 Normal termination of Gaussian 16 at Thu Dec  7 09:12:17 2023.
