 Entering Gaussian System, Link 0=/opt/soft/g16/g16
 Initial command:
 /opt/soft/g16/l1.exe "/scratch/gongke2021/RC-2-N-test/Gau-8032.inp" -scrdir="/scratch/gongke2021/RC-2-N-test/"
 Entering Link 1 = /opt/soft/g16/l1.exe PID=      8033.
  
 Copyright (c) 1988,1990,1992,1993,1995,1998,2003,2009,2016,
            Gaussian, Inc.  All Rights Reserved.
  
 This is part of the Gaussian(R) 16 program.  It is based on
 the Gaussian(R) 09 system (copyright 2009, Gaussian, Inc.),
 the Gaussian(R) 03 system (copyright 2003, Gaussian, Inc.),
 the Gaussian(R) 98 system (copyright 1998, Gaussian, Inc.),
 the Gaussian(R) 94 system (copyright 1995, Gaussian, Inc.),
 the Gaussian 92(TM) system (copyright 1992, Gaussian, Inc.),
 the Gaussian 90(TM) system (copyright 1990, Gaussian, Inc.),
 the Gaussian 88(TM) system (copyright 1988, Gaussian, Inc.),
 the Gaussian 86(TM) system (copyright 1986, Carnegie Mellon
 University), and the Gaussian 82(TM) system (copyright 1983,
 Carnegie Mellon University). Gaussian is a federally registered
 trademark of Gaussian, Inc.
  
 This software contains proprietary and confidential information,
 including trade secrets, belonging to Gaussian, Inc.
  
 This software is provided under written license and may be
 used, copied, transmitted, or stored only in accord with that
 written license.
  
 The following legend is applicable only to US Government
 contracts under FAR:
  
                    RESTRICTED RIGHTS LEGEND
  
 Use, reproduction and disclosure by the US Government is
 subject to restrictions as set forth in subparagraphs (a)
 and (c) of the Commercial Computer Software - Restricted
 Rights clause in FAR 52.227-19.
  
 Gaussian, Inc.
 340 Quinnipiac St., Bldg. 40, Wallingford CT 06492
  
  
 ---------------------------------------------------------------
 Warning -- This program may not be used in any manner that
 competes with the business of Gaussian, Inc. or will provide
 assistance to any competitor of Gaussian, Inc.  The licensee
 of this program is prohibited from giving any competitor of
 Gaussian, Inc. access to this program.  By using this program,
 the user acknowledges that Gaussian, Inc. is engaged in the
 business of creating and licensing software in the field of
 computational chemistry and represents and warrants to the
 licensee that it is not a competitor of Gaussian, Inc. and that
 it will not use this program in any manner prohibited above.
 ---------------------------------------------------------------
  

 Cite this work as:
 Gaussian 16, Revision A.03,
 M. J. Frisch, G. W. Trucks, H. B. Schlegel, G. E. Scuseria, 
 M. A. Robb, J. R. Cheeseman, G. Scalmani, V. Barone, 
 G. A. Petersson, H. Nakatsuji, X. Li, M. Caricato, A. V. Marenich, 
 J. Bloino, B. G. Janesko, R. Gomperts, B. Mennucci, H. P. Hratchian, 
 J. V. Ortiz, A. F. Izmaylov, J. L. Sonnenberg, D. Williams-Young, 
 F. Ding, F. Lipparini, F. Egidi, J. Goings, B. Peng, A. Petrone, 
 T. Henderson, D. Ranasinghe, V. G. Zakrzewski, J. Gao, N. Rega, 
 G. Zheng, W. Liang, M. Hada, M. Ehara, K. Toyota, R. Fukuda, 
 J. Hasegawa, M. Ishida, T. Nakajima, Y. Honda, O. Kitao, H. Nakai, 
 T. Vreven, K. Throssell, J. A. Montgomery, Jr., J. E. Peralta, 
 F. Ogliaro, M. J. Bearpark, J. J. Heyd, E. N. Brothers, K. N. Kudin, 
 V. N. Staroverov, T. A. Keith, R. Kobayashi, J. Normand, 
 K. Raghavachari, A. P. Rendell, J. C. Burant, S. S. Iyengar, 
 J. Tomasi, M. Cossi, J. M. Millam, M. Klene, C. Adamo, R. Cammi, 
 J. W. Ochterski, R. L. Martin, K. Morokuma, O. Farkas, 
 J. B. Foresman, and D. J. Fox, Gaussian, Inc., Wallingford CT, 2016.
 
 ******************************************
 Gaussian 16:  ES64L-G16RevA.03 25-Dec-2016
                 7-Jul-2023 
 ******************************************
 %mem=10GB
 %nprocshared=24
 Will use up to   24 processors via shared memory.
 ----------------------------
 # opt freq 6-31+g(d,p) m062x
 ----------------------------
 1/18=20,19=15,26=3,38=1/1,3;
 2/9=110,12=2,17=6,18=5,40=1/2;
 3/5=1,6=6,7=111,11=2,25=1,30=1,71=1,74=-55/1,2,3;
 4//1;
 5/5=2,38=5/2;
 6/7=2,8=2,9=2,10=2,28=1/1;
 7//1,2,3,16;
 1/18=20,19=15,26=3/3(2);
 2/9=110/2;
 99//99;
 2/9=110/2;
 3/5=1,6=6,7=111,11=2,25=1,30=1,71=1,74=-55/1,2,3;
 4/5=5,16=3,69=1/1;
 5/5=2,38=5/2;
 7//1,2,3,16;
 1/18=20,19=15,26=3/3(-5);
 2/9=110/2;
 6/7=2,8=2,9=2,10=2,19=2,28=1/1;
 99/9=1/99;
 ----
 test
 ----
 Symbolic Z-matrix:
 Charge =  0 Multiplicity = 1
 N                    -0.20375  -0.41843  -0.03708 
 N                    -1.47416  -0.733    -0.26585 
 C                    -1.73088  -2.00897   0.0833 
 C                    -0.52129  -2.47308   0.55018 
 N                     0.38489  -1.46438   0.46033 
 H                    -2.70516  -2.45853  -0.01713 
 H                    -0.2536   -3.44456   0.93381 
 H                    -2.08268   0.01084  -0.62581 
 C                     2.51911   0.31365  -0.2713 
 O                     2.84645  -0.37823  -1.14193 
 O                     2.23797   1.04923   0.5897 
 O                    -0.45952   2.57442   0.84974 
 H                     0.38038   2.09953   0.76877 
 H                    -0.68298   2.55887   1.78566 
 O                    -2.48572   1.76898  -0.82342 
 H                    -1.7701    2.15752  -0.27971 
 H                    -2.54994   2.28211  -1.63318 
 
 Add virtual bond connecting atoms H16        and O12        Dist= 3.36D+00.
 Add virtual bond connecting atoms O15        and H8         Dist= 3.43D+00.
 Add virtual bond connecting atoms H13        and O11        Dist= 4.05D+00.

 GradGradGradGradGradGradGradGradGradGradGradGradGradGradGradGradGradGrad
 Berny optimization.
 Initialization pass.
                           ----------------------------
                           !    Initial Parameters    !
                           ! (Angstroms and Degrees)  !
 --------------------------                            --------------------------
 ! Name  Definition              Value          Derivative Info.                !
 --------------------------------------------------------------------------------
 ! R1    R(1,2)                  1.3286         estimate D2E/DX2                !
 ! R2    R(1,5)                  1.2992         estimate D2E/DX2                !
 ! R3    R(2,3)                  1.3476         estimate D2E/DX2                !
 ! R4    R(2,8)                  1.0262         estimate D2E/DX2                !
 ! R5    R(3,4)                  1.3771         estimate D2E/DX2                !
 ! R6    R(3,6)                  1.0777         estimate D2E/DX2                !
 ! R7    R(4,5)                  1.3589         estimate D2E/DX2                !
 ! R8    R(4,7)                  1.0782         estimate D2E/DX2                !
 ! R9    R(8,15)                 1.8145         estimate D2E/DX2                !
 ! R10   R(9,10)                 1.1592         estimate D2E/DX2                !
 ! R11   R(9,11)                 1.1668         estimate D2E/DX2                !
 ! R12   R(11,13)                2.1415         estimate D2E/DX2                !
 ! R13   R(12,13)                0.9682         estimate D2E/DX2                !
 ! R14   R(12,14)                0.9624         estimate D2E/DX2                !
 ! R15   R(12,16)                1.7796         estimate D2E/DX2                !
 ! R16   R(15,16)                0.9791         estimate D2E/DX2                !
 ! R17   R(15,17)                0.9608         estimate D2E/DX2                !
 ! A1    A(2,1,5)              107.9714         estimate D2E/DX2                !
 ! A2    A(1,2,3)              111.2066         estimate D2E/DX2                !
 ! A3    A(1,2,8)              117.1149         estimate D2E/DX2                !
 ! A4    A(3,2,8)              131.6231         estimate D2E/DX2                !
 ! A5    A(2,3,4)              103.8643         estimate D2E/DX2                !
 ! A6    A(2,3,6)              122.8933         estimate D2E/DX2                !
 ! A7    A(4,3,6)              133.2407         estimate D2E/DX2                !
 ! A8    A(3,4,5)              108.2481         estimate D2E/DX2                !
 ! A9    A(3,4,7)              129.9664         estimate D2E/DX2                !
 ! A10   A(5,4,7)              121.7855         estimate D2E/DX2                !
 ! A11   A(1,5,4)              108.7092         estimate D2E/DX2                !
 ! A12   A(2,8,15)             150.7147         estimate D2E/DX2                !
 ! A13   A(9,11,13)            125.4444         estimate D2E/DX2                !
 ! A14   A(13,12,14)           105.952          estimate D2E/DX2                !
 ! A15   A(13,12,16)           118.0892         estimate D2E/DX2                !
 ! A16   A(14,12,16)           116.2593         estimate D2E/DX2                !
 ! A17   A(8,15,16)             99.3041         estimate D2E/DX2                !
 ! A18   A(8,15,17)            128.6156         estimate D2E/DX2                !
 ! A19   A(16,15,17)           107.7535         estimate D2E/DX2                !
 ! A20   L(10,9,11,1,-1)       182.8797         estimate D2E/DX2                !
 ! A21   L(11,13,12,1,-1)      180.0            estimate D2E/DX2                !
 ! A22   L(12,16,15,1,-1)      171.4201         estimate D2E/DX2                !
 ! A23   L(10,9,11,1,-2)       181.286          estimate D2E/DX2                !
 ! A24   L(11,13,12,1,-2)      180.0            estimate D2E/DX2                !
 ! A25   L(12,16,15,1,-2)      174.0691         estimate D2E/DX2                !
 ! D1    D(5,1,2,3)             -0.1198         estimate D2E/DX2                !
 ! D2    D(5,1,2,8)            177.4879         estimate D2E/DX2                !
 ! D3    D(2,1,5,4)              0.1885         estimate D2E/DX2                !
 ! D4    D(1,2,3,4)              0.0019         estimate D2E/DX2                !
 ! D5    D(1,2,3,6)            179.5864         estimate D2E/DX2                !
 ! D6    D(8,2,3,4)           -177.1491         estimate D2E/DX2                !
 ! D7    D(8,2,3,6)              2.4353         estimate D2E/DX2                !
 ! D8    D(1,2,8,15)           -24.6284         estimate D2E/DX2                !
 ! D9    D(3,2,8,15)           152.3876         estimate D2E/DX2                !
 ! D10   D(2,3,4,5)              0.1116         estimate D2E/DX2                !
 ! D11   D(2,3,4,7)           -179.8077         estimate D2E/DX2                !
 ! D12   D(6,3,4,5)           -179.4094         estimate D2E/DX2                !
 ! D13   D(6,3,4,7)              0.6713         estimate D2E/DX2                !
 ! D14   D(3,4,5,1)             -0.1899         estimate D2E/DX2                !
 ! D15   D(7,4,5,1)            179.7374         estimate D2E/DX2                !
 ! D16   D(2,8,15,16)           -3.9964         estimate D2E/DX2                !
 ! D17   D(2,8,15,17)          117.76           estimate D2E/DX2                !
 ! D18   D(9,11,12,14)         140.4553         estimate D2E/DX2                !
 ! D19   D(9,11,12,16)           8.0677         estimate D2E/DX2                !
 ! D20   D(13,12,15,8)          40.2296         estimate D2E/DX2                !
 ! D21   D(13,12,15,17)        -94.8282         estimate D2E/DX2                !
 ! D22   D(14,12,15,8)         -84.1585         estimate D2E/DX2                !
 ! D23   D(14,12,15,17)        140.7838         estimate D2E/DX2                !
 --------------------------------------------------------------------------------
 Trust Radius=3.00D-01 FncErr=1.00D-07 GrdErr=1.00D-06 EigMax=2.50D+02 EigMin=1.00D-04
 Number of steps in this run=     75 maximum allowed number of steps=    102.
 GradGradGradGradGradGradGradGradGradGradGradGradGradGradGradGradGradGrad

                          Input orientation:                          
 ---------------------------------------------------------------------
 Center     Atomic      Atomic             Coordinates (Angstroms)
 Number     Number       Type             X           Y           Z
 ---------------------------------------------------------------------
      1          7           0       -0.203746   -0.418432   -0.037082
      2          7           0       -1.474156   -0.732995   -0.265847
      3          6           0       -1.730875   -2.008969    0.083297
      4          6           0       -0.521293   -2.473083    0.550176
      5          7           0        0.384893   -1.464378    0.460333
      6          1           0       -2.705161   -2.458533   -0.017130
      7          1           0       -0.253597   -3.444557    0.933810
      8          1           0       -2.082681    0.010839   -0.625809
      9          6           0        2.519108    0.313653   -0.271297
     10          8           0        2.846454   -0.378226   -1.141933
     11          8           0        2.237971    1.049229    0.589696
     12          8           0       -0.459516    2.574418    0.849741
     13          1           0        0.380377    2.099533    0.768773
     14          1           0       -0.682983    2.558874    1.785662
     15          8           0       -2.485722    1.768984   -0.823417
     16          1           0       -1.770095    2.157524   -0.279713
     17          1           0       -2.549940    2.282110   -1.633175
 ---------------------------------------------------------------------
                    Distance matrix (angstroms):
                    1          2          3          4          5
     1  N    0.000000
     2  N    1.328618   0.000000
     3  C    2.208262   1.347559   0.000000
     4  C    2.160393   2.145168   1.377123   0.000000
     5  N    1.299200   2.125634   2.217027   1.358945   0.000000
     6  H    3.227923   2.134178   1.077695   2.256397   3.280968
     7  H    3.178451   3.206479   2.228595   1.078238   2.133766
     8  H    2.015259   1.026238   2.169383   3.160813   3.073254
     9  C    2.829265   4.128154   4.856199   4.205324   2.872551
    10  O    3.244385   4.422789   5.011233   4.312004   3.131496
    11  O    2.916995   4.205730   5.035946   4.474571   3.125516
    12  O    3.131936   3.634971   4.817803   5.056760   4.144459
    13  H    2.707536   3.540190   4.669802   4.665792   3.577236
    14  H    3.523693   3.958667   4.986112   5.183933   4.368457
    15  O    3.257380   2.755730   3.957885   4.872461   4.510330
    16  H    3.024544   2.905662   4.182461   4.867314   4.278997
    17  H    3.917278   3.481057   4.693666   5.611977   5.199249
                    6          7          8          9         10
     6  H    0.000000
     7  H    2.808326   0.000000
     8  H    2.618352   4.209242   0.000000
     9  C    5.919679   4.823310   4.625347   0.000000
    10  O    6.034342   4.829225   4.971331   1.159249   0.000000
    11  O    6.091567   5.149800   4.606923   1.166799   2.325171
    12  O    5.578977   6.023083   3.373996   3.903842   4.859456
    13  H    5.560050   5.582660   3.517692   2.974102   3.983921
    14  H    5.702073   6.078751   3.777146   4.418765   5.445576
    15  O    4.309310   5.937275   1.814543   5.241293   5.757088
    16  H    4.717126   5.929226   2.196759   4.668746   5.337226
    17  H    5.010927   6.682613   2.528199   5.605781   6.036537
                   11         12         13         14         15
    11  O    0.000000
    12  O    3.109704   0.000000
    13  H    2.141463   0.968242   0.000000
    14  H    3.498762   0.962355   1.541360   0.000000
    15  O    4.982792   2.748398   3.295278   3.268193   0.000000
    16  H    4.248386   1.779630   2.393160   2.368263   0.979132
    17  H    5.420816   3.258863   3.793342   3.905198   0.960797
                   16         17
    16  H    0.000000
    17  H    1.567016   0.000000
 Stoichiometry    C3H7N3O4
 Framework group  C1[X(C3H7N3O4)]
 Deg. of freedom    45
 Full point group                 C1      NOp   1
 Largest Abelian subgroup         C1      NOp   1
 Largest concise Abelian subgroup C1      NOp   1
                         Standard orientation:                         
 ---------------------------------------------------------------------
 Center     Atomic      Atomic             Coordinates (Angstroms)
 Number     Number       Type             X           Y           Z
 ---------------------------------------------------------------------
      1          7           0        0.203746   -0.418432    0.037082
      2          7           0        1.474156   -0.732995    0.265847
      3          6           0        1.730875   -2.008969   -0.083297
      4          6           0        0.521293   -2.473083   -0.550176
      5          7           0       -0.384893   -1.464378   -0.460333
      6          1           0        2.705161   -2.458533    0.017130
      7          1           0        0.253597   -3.444557   -0.933810
      8          1           0        2.082681    0.010839    0.625809
      9          6           0       -2.519108    0.313653    0.271297
     10          8           0       -2.846454   -0.378226    1.141933
     11          8           0       -2.237971    1.049229   -0.589696
     12          8           0        0.459516    2.574418   -0.849741
     13          1           0       -0.380377    2.099533   -0.768773
     14          1           0        0.682983    2.558874   -1.785662
     15          8           0        2.485722    1.768984    0.823417
     16          1           0        1.770095    2.157524    0.279713
     17          1           0        2.549940    2.282110    1.633175
 ---------------------------------------------------------------------
 Rotational constants (GHZ):           1.1407972           0.9235448           0.5877356
 Standard basis: 6-31+G(d,p) (6D, 7F)
 There are   225 symmetry adapted cartesian basis functions of A   symmetry.
 There are   225 symmetry adapted basis functions of A   symmetry.
   225 basis functions,   369 primitive gaussians,   225 cartesian basis functions
    39 alpha electrons       39 beta electrons
       nuclear repulsion energy       523.3027529013 Hartrees.
 NAtoms=   17 NActive=   17 NUniq=   17 SFac= 1.00D+00 NAtFMM=   60 NAOKFM=F Big=F
 Integral buffers will be    131072 words long.
 Raffenetti 2 integral format.
 Two-electron integral symmetry is turned on.
 One-electron integrals computed using PRISM.
 NBasis=   225 RedAO= T EigKep=  3.59D-05  NBF=   225
 NBsUse=   225 1.00D-06 EigRej= -1.00D+00 NBFU=   225
 ExpMin= 4.38D-02 ExpMax= 5.48D+03 ExpMxC= 8.25D+02 IAcc=3 IRadAn=         5 AccDes= 0.00D+00
 Harris functional with IExCor= 1009 and IRadAn=       5 diagonalized for initial guess.
 HarFok:  IExCor= 1009 AccDes= 0.00D+00 IRadAn=         5 IDoV= 1 UseB2=F ITyADJ=14
 ICtDFT=  3500011 ScaDFX=  1.000000  1.000000  1.000000  1.000000
 FoFCou: FMM=F IPFlag=           0 FMFlag=      100000 FMFlg1=           0
         NFxFlg=           0 DoJE=T BraDBF=F KetDBF=T FulRan=T
         wScrn=  0.000000 ICntrl=       500 IOpCl=  0 I1Cent=   200000004 NGrid=           0
         NMat0=    1 NMatS0=      1 NMatT0=    0 NMatD0=    1 NMtDS0=    0 NMtDT0=    0
 Petite list used in FoFCou.
 Requested convergence on RMS density matrix=1.00D-08 within 128 cycles.
 Requested convergence on MAX density matrix=1.00D-06.
 Requested convergence on             energy=1.00D-06.
 No special actions if energy rises.
 SCF Done:  E(RM062X) =  -583.488736706     A.U. after   14 cycles
            NFock= 14  Conv=0.40D-08     -V/T= 2.0083

 **********************************************************************

            Population analysis using the SCF density.

 **********************************************************************

 Orbital symmetries:
       Occupied  (A) (A) (A) (A) (A) (A) (A) (A) (A) (A) (A) (A)
                 (A) (A) (A) (A) (A) (A) (A) (A) (A) (A) (A) (A)
                 (A) (A) (A) (A) (A) (A) (A) (A) (A) (A) (A) (A)
                 (A) (A) (A)
       Virtual   (A) (A) (A) (A) (A) (A) (A) (A) (A) (A) (A) (A)
                 (A) (A) (A) (A) (A) (A) (A) (A) (A) (A) (A) (A)
                 (A) (A) (A) (A) (A) (A) (A) (A) (A) (A) (A) (A)
                 (A) (A) (A) (A) (A) (A) (A) (A) (A) (A) (A) (A)
                 (A) (A) (A) (A) (A) (A) (A) (A) (A) (A) (A) (A)
                 (A) (A) (A) (A) (A) (A) (A) (A) (A) (A) (A) (A)
                 (A) (A) (A) (A) (A) (A) (A) (A) (A) (A) (A) (A)
                 (A) (A) (A) (A) (A) (A) (A) (A) (A) (A) (A) (A)
                 (A) (A) (A) (A) (A) (A) (A) (A) (A) (A) (A) (A)
                 (A) (A) (A) (A) (A) (A) (A) (A) (A) (A) (A) (A)
                 (A) (A) (A) (A) (A) (A) (A) (A) (A) (A) (A) (A)
                 (A) (A) (A) (A) (A) (A) (A) (A) (A) (A) (A) (A)
                 (A) (A) (A) (A) (A) (A) (A) (A) (A) (A) (A) (A)
                 (A) (A) (A) (A) (A) (A) (A) (A) (A) (A) (A) (A)
                 (A) (A) (A) (A) (A) (A) (A) (A) (A) (A) (A) (A)
                 (A) (A) (A) (A) (A) (A)
 The electronic state is 1-A.
 Alpha  occ. eigenvalues --  -19.72161 -19.72074 -19.66427 -19.65074 -14.84797
 Alpha  occ. eigenvalues --  -14.82737 -14.79015 -10.74368 -10.60007 -10.57679
 Alpha  occ. eigenvalues --   -1.28321  -1.23300  -1.22379  -1.15072  -1.13270
 Alpha  occ. eigenvalues --   -1.00918  -0.90857  -0.72833  -0.70836  -0.65373
 Alpha  occ. eigenvalues --   -0.65015  -0.62403  -0.61960  -0.59653  -0.59227
 Alpha  occ. eigenvalues --   -0.59127  -0.54999  -0.53178  -0.52206  -0.49866
 Alpha  occ. eigenvalues --   -0.46353  -0.43585  -0.43462  -0.41825  -0.40625
 Alpha  occ. eigenvalues --   -0.40175  -0.36485  -0.34851  -0.32238
 Alpha virt. eigenvalues --    0.01150   0.02164   0.03123   0.03570   0.04575
 Alpha virt. eigenvalues --    0.05013   0.05719   0.06720   0.07415   0.07914
 Alpha virt. eigenvalues --    0.08691   0.08903   0.09436   0.09575   0.10710
 Alpha virt. eigenvalues --    0.12010   0.13083   0.14360   0.16557   0.16977
 Alpha virt. eigenvalues --    0.17464   0.18234   0.18662   0.19504   0.20787
 Alpha virt. eigenvalues --    0.21527   0.22563   0.23003   0.23872   0.24169
 Alpha virt. eigenvalues --    0.24937   0.25136   0.26294   0.26825   0.27396
 Alpha virt. eigenvalues --    0.27668   0.28101   0.28550   0.28988   0.30778
 Alpha virt. eigenvalues --    0.31319   0.31537   0.32931   0.33867   0.34519
 Alpha virt. eigenvalues --    0.35054   0.36148   0.36806   0.37670   0.39954
 Alpha virt. eigenvalues --    0.41006   0.43028   0.44035   0.46307   0.49817
 Alpha virt. eigenvalues --    0.52290   0.55845   0.70625   0.72978   0.74198
 Alpha virt. eigenvalues --    0.77051   0.78821   0.80740   0.86421   0.89376
 Alpha virt. eigenvalues --    0.92011   0.92782   0.94944   0.96383   0.96624
 Alpha virt. eigenvalues --    0.98877   0.99928   1.02674   1.03668   1.03979
 Alpha virt. eigenvalues --    1.05798   1.06633   1.09578   1.12304   1.13285
 Alpha virt. eigenvalues --    1.15893   1.17314   1.18802   1.18875   1.19613
 Alpha virt. eigenvalues --    1.21299   1.22757   1.24274   1.25863   1.26149
 Alpha virt. eigenvalues --    1.27684   1.29144   1.30196   1.31298   1.33375
 Alpha virt. eigenvalues --    1.34497   1.36376   1.37600   1.38895   1.40588
 Alpha virt. eigenvalues --    1.42043   1.42385   1.48412   1.49302   1.50487
 Alpha virt. eigenvalues --    1.53171   1.54450   1.55046   1.57842   1.58311
 Alpha virt. eigenvalues --    1.60635   1.61771   1.62910   1.63458   1.64918
 Alpha virt. eigenvalues --    1.66547   1.68756   1.80061   1.81847   1.83553
 Alpha virt. eigenvalues --    1.84754   1.86562   1.90355   1.96588   2.01478
 Alpha virt. eigenvalues --    2.08104   2.10149   2.11193   2.13981   2.16754
 Alpha virt. eigenvalues --    2.20463   2.21113   2.21372   2.21779   2.26515
 Alpha virt. eigenvalues --    2.28840   2.29340   2.32526   2.35409   2.38977
 Alpha virt. eigenvalues --    2.39942   2.42478   2.44711   2.48167   2.52340
 Alpha virt. eigenvalues --    2.56768   2.57226   2.61683   2.62152   2.64628
 Alpha virt. eigenvalues --    2.64992   2.68016   2.68625   2.71447   2.73111
 Alpha virt. eigenvalues --    2.75712   2.79496   2.85953   2.92001   2.95384
 Alpha virt. eigenvalues --    2.99496   3.03665   3.04492   3.05464   3.06505
 Alpha virt. eigenvalues --    3.07541   3.21727   3.30870   3.34611   3.38511
 Alpha virt. eigenvalues --    3.41871   3.47920   3.52279   3.62240   3.65974
 Alpha virt. eigenvalues --    3.80816   4.04844   4.16248   4.23188   4.24226
 Alpha virt. eigenvalues --    4.33065   4.36624   4.44928   4.67785   4.74823
 Alpha virt. eigenvalues --    4.91483
          Condensed to atoms (all electrons):
               1          2          3          4          5          6
     1  N    7.860822  -0.605061  -0.060459   0.073412  -0.197479   0.015410
     2  N   -0.605061   7.500919   0.216118  -0.083363   0.082031  -0.054811
     3  C   -0.060459   0.216118   5.470082   0.122881   0.027730   0.380029
     4  C    0.073412  -0.083363   0.122881   5.513855   0.197981  -0.004314
     5  N   -0.197479   0.082031   0.027730   0.197981   7.084937  -0.001764
     6  H    0.015410  -0.054811   0.380029  -0.004314  -0.001764   0.471248
     7  H   -0.000360   0.001649  -0.026785   0.397093  -0.045929   0.000666
     8  H   -0.016901   0.282288  -0.011039  -0.002476   0.011700  -0.000273
     9  C   -0.004495   0.007857   0.000435  -0.012183  -0.003208   0.000071
    10  O    0.024902  -0.000593  -0.001984   0.001993  -0.023967   0.000003
    11  O   -0.019307  -0.001975  -0.003905   0.003426   0.019786   0.000007
    12  O   -0.025160   0.031034  -0.000944   0.002201  -0.019737   0.000007
    13  H    0.007561   0.003529  -0.001304   0.001215  -0.008269  -0.000000
    14  H    0.000144   0.001177  -0.000516   0.000566  -0.002734   0.000000
    15  O    0.064787  -0.113047   0.004267  -0.002746   0.009605  -0.000186
    16  H    0.011708  -0.009239  -0.001700   0.000907  -0.002035  -0.000001
    17  H   -0.005542   0.008005  -0.000685   0.000551  -0.001438   0.000001
               7          8          9         10         11         12
     1  N   -0.000360  -0.016901  -0.004495   0.024902  -0.019307  -0.025160
     2  N    0.001649   0.282288   0.007857  -0.000593  -0.001975   0.031034
     3  C   -0.026785  -0.011039   0.000435  -0.001984  -0.003905  -0.000944
     4  C    0.397093  -0.002476  -0.012183   0.001993   0.003426   0.002201
     5  N   -0.045929   0.011700  -0.003208  -0.023967   0.019786  -0.019737
     6  H    0.000666  -0.000273   0.000071   0.000003   0.000007   0.000007
     7  H    0.499773  -0.000041   0.000119  -0.000027  -0.000047   0.000004
     8  H   -0.000041   0.302473   0.000142  -0.000004   0.000176   0.001343
     9  C    0.000119   0.000142   4.378980   0.455039   0.436670  -0.001273
    10  O   -0.000027  -0.000004   0.455039   7.998710  -0.123871  -0.000167
    11  O   -0.000047   0.000176   0.436670  -0.123871   8.079366  -0.002079
    12  O    0.000004   0.001343  -0.001273  -0.000167  -0.002079   8.315982
    13  H    0.000000  -0.000033   0.000442   0.000050   0.004629   0.273277
    14  H   -0.000000  -0.000076   0.000146   0.000023  -0.000413   0.288277
    15  O    0.000000   0.005831  -0.002106   0.000262  -0.000300  -0.037846
    16  H   -0.000000  -0.001140   0.000388  -0.000002   0.000000   0.001167
    17  H   -0.000000  -0.001428   0.000181  -0.000007  -0.000015   0.002783
              13         14         15         16         17
     1  N    0.007561   0.000144   0.064787   0.011708  -0.005542
     2  N    0.003529   0.001177  -0.113047  -0.009239   0.008005
     3  C   -0.001304  -0.000516   0.004267  -0.001700  -0.000685
     4  C    0.001215   0.000566  -0.002746   0.000907   0.000551
     5  N   -0.008269  -0.002734   0.009605  -0.002035  -0.001438
     6  H   -0.000000   0.000000  -0.000186  -0.000001   0.000001
     7  H    0.000000  -0.000000   0.000000  -0.000000  -0.000000
     8  H   -0.000033  -0.000076   0.005831  -0.001140  -0.001428
     9  C    0.000442   0.000146  -0.002106   0.000388   0.000181
    10  O    0.000050   0.000023   0.000262  -0.000002  -0.000007
    11  O    0.004629  -0.000413  -0.000300   0.000000  -0.000015
    12  O    0.273277   0.288277  -0.037846   0.001167   0.002783
    13  H    0.297578  -0.019496   0.001624  -0.000181  -0.000036
    14  H   -0.019496   0.336159   0.003188  -0.001278  -0.000009
    15  O    0.001624   0.003188   8.360924   0.270331   0.288162
    16  H   -0.000181  -0.001278   0.270331   0.271439  -0.019027
    17  H   -0.000036  -0.000009   0.288162  -0.019027   0.336405
 Mulliken charges:
               1
     1  N   -0.123982
     2  N   -0.266520
     3  C   -0.112222
     4  C   -0.210999
     5  N   -0.127209
     6  H    0.193907
     7  H    0.173886
     8  H    0.429457
     9  C    0.742795
    10  O   -0.330361
    11  O   -0.392147
    12  O   -0.828868
    13  H    0.439414
    14  H    0.394840
    15  O   -0.852751
    16  H    0.478661
    17  H    0.392097
 Sum of Mulliken charges =  -0.00000
 Mulliken charges with hydrogens summed into heavy atoms:
               1
     1  N   -0.123982
     2  N    0.162937
     3  C    0.081686
     4  C   -0.037113
     5  N   -0.127209
     9  C    0.742795
    10  O   -0.330361
    11  O   -0.392147
    12  O    0.005386
    15  O    0.018007
 Electronic spatial extent (au):  <R**2>=           1896.2718
 Charge=             -0.0000 electrons
 Dipole moment (field-independent basis, Debye):
    X=              2.4545    Y=              0.1258    Z=             -0.2315  Tot=              2.4685
 Quadrupole moment (field-independent basis, Debye-Ang):
   XX=            -56.6783   YY=            -52.7859   ZZ=            -54.2786
   XY=             -4.9738   XZ=              2.8974   YZ=              2.2199
 Traceless Quadrupole moment (field-independent basis, Debye-Ang):
   XX=             -2.0973   YY=              1.7950   ZZ=              0.3023
   XY=             -4.9738   XZ=              2.8974   YZ=              2.2199
 Octapole moment (field-independent basis, Debye-Ang**2):
  XXX=             -3.0917  YYY=             -1.4184  ZZZ=             -1.3375  XYY=             16.5692
  XXY=              0.9427  XXZ=              4.7404  XZZ=             14.1231  YZZ=             28.5691
  YYZ=             -1.8706  XYZ=              0.5709
 Hexadecapole moment (field-independent basis, Debye-Ang**3):
 XXXX=          -1144.5798 YYYY=           -943.7518 ZZZZ=           -175.7064 XXXY=            -43.3387
 XXXZ=             37.9685 YYYX=             20.3801 YYYZ=             31.8875 ZZZX=             17.6076
 ZZZY=            -16.9975 XXYY=           -328.0633 XXZZ=           -218.9427 YYZZ=           -152.4531
 XXYZ=             23.9397 YYXZ=             13.4450 ZZXY=             37.2617
 N-N= 5.233027529013D+02 E-N=-2.413780414207D+03  KE= 5.787000875449D+02
 Calling FoFJK, ICntrl=      2127 FMM=F ISym2X=0 I1Cent= 0 IOpClX= 0 NMat=1 NMatS=1 NMatT=0.
 ***** Axes restored to original set *****
 -------------------------------------------------------------------
 Center     Atomic                   Forces (Hartrees/Bohr)
 Number     Number              X              Y              Z
 -------------------------------------------------------------------
      1        7           0.000005798    0.000085392    0.000527413
      2        7           0.000074998    0.000270241   -0.000903469
      3        6           0.000156334    0.000020351    0.000669860
      4        6           0.000564384   -0.000235395    0.000062798
      5        7           0.000096470   -0.000529611   -0.000300401
      6        1           0.000029762   -0.000116925   -0.000066527
      7        1          -0.000066129    0.000017286    0.000053244
      8        1          -0.000500749    0.000639353   -0.000288114
      9        6          -0.000190593    0.000657560    0.000175031
     10        8          -0.000116566   -0.000568703   -0.000120881
     11        8           0.000228173    0.000796194    0.000468785
     12        8           0.001022248    0.002694568    0.001203545
     13        1          -0.001424939   -0.003531207   -0.001520304
     14        1          -0.000014115    0.000066980    0.000039855
     15        8          -0.000965518   -0.001427094   -0.000114388
     16        1           0.000710796    0.000648938   -0.000038913
     17        1           0.000389645    0.000512072    0.000152466
 -------------------------------------------------------------------
 Cartesian Forces:  Max     0.003531207 RMS     0.000838490

 GradGradGradGradGradGradGradGradGradGradGradGradGradGradGradGradGradGrad
 Berny optimization.
 FormGI is forming the generalized inverse of G from B-inverse, IUseBI=4.
 Internal  Forces:  Max     0.002528721 RMS     0.000640308
 Search for a local minimum.
 Step number   1 out of a maximum of   75
 All quantities printed in internal units (Hartrees-Bohrs-Radians)
 Mixed Optimization -- En-DIIS/RFO-DIIS
 Second derivative matrix not updated -- first step.
 ITU=  0
     Eigenvalues ---    0.00230   0.00230   0.00230   0.00681   0.01157
     Eigenvalues ---    0.01220   0.01289   0.01448   0.01934   0.02333
     Eigenvalues ---    0.02344   0.02383   0.02389   0.02865   0.03438
     Eigenvalues ---    0.03783   0.04777   0.04777   0.05952   0.06352
     Eigenvalues ---    0.11667   0.14039   0.15984   0.15999   0.16000
     Eigenvalues ---    0.16000   0.16000   0.16000   0.22168   0.23914
     Eigenvalues ---    0.24999   0.36208   0.36274   0.43358   0.46107
     Eigenvalues ---    0.48322   0.51548   0.53738   0.54192   0.54970
     Eigenvalues ---    0.55302   0.57652   0.64724   1.23446   1.28286
 RFO step:  Lambda=-1.63541618D-03 EMin= 2.30000000D-03
 Linear search not attempted -- first point.
 Iteration  1 RMS(Cart)=  0.36125058 RMS(Int)=  0.01906065
 Iteration  2 RMS(Cart)=  0.08999861 RMS(Int)=  0.00277704
 Iteration  3 RMS(Cart)=  0.00243114 RMS(Int)=  0.00244595
 Iteration  4 RMS(Cart)=  0.00002256 RMS(Int)=  0.00244595
 Iteration  5 RMS(Cart)=  0.00000017 RMS(Int)=  0.00244595
 Variable       Old X    -DE/DX   Delta X   Delta X   Delta X     New X
                                 (Linear)    (Quad)   (Total)
    R1        2.51072   0.00034   0.00000   0.00065   0.00057   2.51129
    R2        2.45513   0.00035   0.00000   0.00050   0.00049   2.45562
    R3        2.54652   0.00056   0.00000   0.00108   0.00111   2.54763
    R4        1.93931   0.00088   0.00000   0.00202   0.00212   1.94143
    R5        2.60238   0.00037   0.00000   0.00069   0.00068   2.60307
    R6        2.03655   0.00003   0.00000   0.00008   0.00008   2.03662
    R7        2.56803  -0.00030   0.00000  -0.00067  -0.00070   2.56733
    R8        2.03758  -0.00001   0.00000  -0.00003  -0.00003   2.03754
    R9        3.42899  -0.00010   0.00000  -0.00159  -0.00147   3.42752
   R10        2.19066   0.00040   0.00000   0.00031   0.00031   2.19097
   R11        2.20493  -0.00017   0.00000  -0.00014  -0.00014   2.20479
   R12        4.04678  -0.00055   0.00000  -0.01517  -0.01516   4.03162
   R13        1.82971   0.00008   0.00000   0.00014   0.00010   1.82981
   R14        1.81859   0.00004   0.00000   0.00007   0.00007   1.81866
   R15        3.36301  -0.00017   0.00000  -0.00276  -0.00297   3.36004
   R16        1.85029   0.00054   0.00000   0.00108   0.00131   1.85160
   R17        1.81564   0.00012   0.00000   0.00021   0.00021   1.81586
    A1        1.88446   0.00033   0.00000   0.00157   0.00162   1.88608
    A2        1.94092  -0.00064   0.00000  -0.00248  -0.00256   1.93836
    A3        2.04404   0.00002   0.00000  -0.00063  -0.00038   2.04366
    A4        2.29726   0.00061   0.00000   0.00304   0.00286   2.30012
    A5        1.81277   0.00034   0.00000   0.00167   0.00170   1.81448
    A6        2.14489  -0.00008   0.00000  -0.00026  -0.00029   2.14460
    A7        2.32549  -0.00026   0.00000  -0.00136  -0.00138   2.32410
    A8        1.88929  -0.00009   0.00000  -0.00068  -0.00071   1.88858
    A9        2.26834  -0.00000   0.00000   0.00005   0.00006   2.26840
   A10        2.12556   0.00009   0.00000   0.00064   0.00065   2.12621
   A11        1.89733   0.00006   0.00000  -0.00006  -0.00009   1.89725
   A12        2.63047  -0.00079   0.00000  -0.00316  -0.00275   2.62771
   A13        2.18942  -0.00075   0.00000  -0.00467  -0.00467   2.18475
   A14        1.84921   0.00038   0.00000  -0.00756  -0.01051   1.83870
   A15        2.06105  -0.00227   0.00000  -0.02027  -0.02046   2.04058
   A16        2.02911   0.00064   0.00000  -0.00253   0.00386   2.03296
   A17        1.73318  -0.00061   0.00000  -0.00830  -0.00809   1.72509
   A18        2.24477   0.00003   0.00000  -0.00554  -0.00445   2.24031
   A19        1.88065  -0.00007   0.00000  -0.00513  -0.00560   1.87505
   A20        3.19185  -0.00071   0.00000  -0.01444  -0.01444   3.17741
   A21        3.14159   0.00253   0.00000   0.15623   0.15849   3.30008
   A22        2.99185  -0.00131   0.00000  -0.11602  -0.11762   2.87422
   A23        3.16404  -0.00064   0.00000  -0.01289  -0.01289   3.15115
   A24        3.14159  -0.00093   0.00000  -0.05795  -0.05310   3.08849
   A25        3.03808  -0.00004   0.00000  -0.00766  -0.00948   3.02860
    D1       -0.00209   0.00026   0.00000   0.01037   0.01042   0.00833
    D2        3.09775   0.00024   0.00000   0.00897   0.00892   3.10667
    D3        0.00329  -0.00021   0.00000  -0.00835  -0.00839  -0.00510
    D4        0.00003  -0.00019   0.00000  -0.00785  -0.00789  -0.00785
    D5        3.13437  -0.00005   0.00000  -0.00211  -0.00214   3.13223
    D6       -3.09184  -0.00015   0.00000  -0.00602  -0.00596  -3.09780
    D7        0.04250  -0.00001   0.00000  -0.00029  -0.00022   0.04229
    D8       -0.42985  -0.00022   0.00000  -0.02881  -0.02852  -0.45836
    D9        2.65966  -0.00028   0.00000  -0.03075  -0.03058   2.62909
   D10        0.00195   0.00006   0.00000   0.00259   0.00262   0.00457
   D11       -3.13824   0.00007   0.00000   0.00259   0.00260  -3.13563
   D12       -3.13128  -0.00010   0.00000  -0.00404  -0.00401  -3.13529
   D13        0.01172  -0.00010   0.00000  -0.00403  -0.00402   0.00769
   D14       -0.00331   0.00009   0.00000   0.00354   0.00354   0.00023
   D15        3.13701   0.00009   0.00000   0.00354   0.00356   3.14057
   D16       -0.06975  -0.00020   0.00000  -0.13456  -0.13440  -0.20415
   D17        2.05530  -0.00092   0.00000  -0.15444  -0.15375   1.90155
   D18        2.45141  -0.00045   0.00000  -0.10840  -0.11865   2.33276
   D19        0.14081  -0.00046   0.00000  -0.12291  -0.11267   0.02814
   D20        0.70214  -0.00175   0.00000  -0.23816  -0.23321   0.46893
   D21       -1.65506  -0.00098   0.00000  -0.19057  -0.18516  -1.84023
   D22       -1.46884  -0.00046   0.00000  -0.17609  -0.18071  -1.64955
   D23        2.45714   0.00030   0.00000  -0.12850  -0.13266   2.32448
         Item               Value     Threshold  Converged?
 Maximum Force            0.002529     0.000450     NO 
 RMS     Force            0.000640     0.000300     NO 
 Maximum Displacement     1.474329     0.001800     NO 
 RMS     Displacement     0.439711     0.001200     NO 
 Predicted change in Energy=-1.011867D-03
 GradGradGradGradGradGradGradGradGradGradGradGradGradGradGradGradGradGrad

                          Input orientation:                          
 ---------------------------------------------------------------------
 Center     Atomic      Atomic             Coordinates (Angstroms)
 Number     Number       Type             X           Y           Z
 ---------------------------------------------------------------------
      1          7           0       -0.124585   -0.195546   -0.396356
      2          7           0       -1.391841   -0.590398   -0.331716
      3          6           0       -1.482256   -1.856186    0.123378
      4          6           0       -0.172491   -2.229501    0.329805
      5          7           0        0.625106   -1.180909   -0.001873
      6          1           0       -2.423479   -2.363528    0.258341
      7          1           0        0.233894   -3.162670    0.685623
      8          1           0       -2.110213    0.098888   -0.585284
      9          6           0        2.190389   -0.217214    0.088456
     10          8           0        2.421353   -1.158407   -0.547979
     11          8           0        2.000344    0.738404    0.730271
     12          8           0       -0.498489    2.560426    0.749036
     13          1           0        0.232752    1.931273    0.665069
     14          1           0       -0.642662    2.658624    1.695488
     15          8           0       -2.662289    1.819265   -0.744189
     16          1           0       -1.940739    2.255658   -0.245210
     17          1           0       -2.805756    2.327814   -1.546775
 ---------------------------------------------------------------------
                    Distance matrix (angstroms):
                    1          2          3          4          5
     1  N    0.000000
     2  N    1.328919   0.000000
     3  C    2.207061   1.348148   0.000000
     4  C    2.160227   2.147343   1.377484   0.000000
     5  N    1.299459   2.127340   2.216452   1.358572   0.000000
     6  H    3.227025   2.134580   1.077735   2.256107   3.280270
     7  H    3.178523   3.208516   2.228944   1.078220   2.133793
     8  H    2.016210   1.027361   2.172291   3.164420   3.075747
     9  C    2.365294   3.626043   4.021912   3.112998   1.840375
    10  O    2.726149   3.861328   4.021912   2.940370   1.877563
    11  O    2.580092   3.794793   4.385056   3.700006   2.472059
    12  O    3.007841   3.448738   4.567899   4.819277   3.977928
    13  H    2.403679   3.160967   4.192795   4.193885   3.206935
    14  H    3.576381   3.902175   4.853860   5.097050   4.385234
    15  O    3.258895   2.755113   3.956525   4.872891   4.512099
    16  H    3.054450   2.899795   4.153712   4.855306   4.295668
    17  H    3.857394   3.462873   4.695415   5.587912   5.144771
                    6          7          8          9         10
     6  H    0.000000
     7  H    2.807638   0.000000
     8  H    2.621704   4.212814   0.000000
     9  C    5.091494   3.586111   4.364519   0.000000
    10  O    5.057160   3.213070   4.702901   1.159413   0.000000
    11  O    5.423552   4.282606   4.363066   1.166726   2.325739
    12  O    5.309585   5.770115   3.230671   3.921953   4.902800
    13  H    5.066193   5.093985   3.226531   2.963245   3.975875
    14  H    5.518941   5.972909   3.729326   4.345017   5.384334
    15  O    4.307883   5.937333   1.813763   5.328135   5.894781
    16  H    4.671561   5.912170   2.189983   4.826246   5.547554
    17  H    5.041158   6.660968   2.525145   5.840600   6.361918
                   11         12         13         14         15
    11  O    0.000000
    12  O    3.092617   0.000000
    13  H    2.133441   0.968296   0.000000
    14  H    3.406519   0.962393   1.535302   0.000000
    15  O    5.008237   2.731496   3.221772   3.276498   0.000000
    16  H    4.334254   1.778059   2.378633   2.369323   0.979823
    17  H    5.550654   3.263179   3.779157   3.911608   0.960910
                   16         17
    16  H    0.000000
    17  H    1.564459   0.000000
 Stoichiometry    C3H7N3O4
 Framework group  C1[X(C3H7N3O4)]
 Deg. of freedom    45
 Full point group                 C1      NOp   1
 Largest Abelian subgroup         C1      NOp   1
 Largest concise Abelian subgroup C1      NOp   1
                         Standard orientation:                         
 ---------------------------------------------------------------------
 Center     Atomic      Atomic             Coordinates (Angstroms)
 Number     Number       Type             X           Y           Z
 ---------------------------------------------------------------------
      1          7           0        0.008479   -0.228875    0.373452
      2          7           0        0.768050   -1.286323    0.107216
      3          6           0        0.045697   -2.269647   -0.466181
      4          6           0       -1.229078   -1.751634   -0.530005
      5          7           0       -1.205144   -0.499141   -0.004262
      6          1           0        0.475062   -3.210720   -0.768734
      7          1           0       -2.137154   -2.191348   -0.910279
      8          1           0        1.769404   -1.209577    0.323713
      9          6           0       -1.862311    1.207872    0.198756
     10          8           0       -2.585478    0.507785    0.774209
     11          8           0       -1.163034    1.944547   -0.375326
     12          8           0        1.923484    1.893324   -0.562571
     13          1           0        0.965871    1.820837   -0.438803
     14          1           0        2.048838    2.027260   -1.507319
     15          8           0        3.261949   -0.206494    0.560082
     16          1           0        2.930771    0.643071    0.201455
     17          1           0        3.726305   -0.011991    1.378550
 ---------------------------------------------------------------------
 Rotational constants (GHZ):           1.5466708           0.9750768           0.6544301
 Standard basis: 6-31+G(d,p) (6D, 7F)
 There are   225 symmetry adapted cartesian basis functions of A   symmetry.
 There are   225 symmetry adapted basis functions of A   symmetry.
   225 basis functions,   369 primitive gaussians,   225 cartesian basis functions
    39 alpha electrons       39 beta electrons
       nuclear repulsion energy       555.3193251230 Hartrees.
 NAtoms=   17 NActive=   17 NUniq=   17 SFac= 1.00D+00 NAtFMM=   60 NAOKFM=F Big=F
 Integral buffers will be    131072 words long.
 Raffenetti 2 integral format.
 Two-electron integral symmetry is turned on.
 One-electron integrals computed using PRISM.
 NBasis=   225 RedAO= T EigKep=  3.49D-05  NBF=   225
 NBsUse=   225 1.00D-06 EigRej= -1.00D+00 NBFU=   225
 Initial guess from the checkpoint file:  "/scratch/gongke2021/RC-2-N-test/Gau-8033.chk"
 B after Tr=     0.000000   -0.000000   -0.000000
         Rot=    0.951733   -0.053900   -0.024587    0.301154 Ang= -35.75 deg.
 ExpMin= 4.38D-02 ExpMax= 5.48D+03 ExpMxC= 8.25D+02 IAcc=2 IRadAn=         4 AccDes= 0.00D+00
 Harris functional with IExCor= 1009 and IRadAn=       4 diagonalized for initial guess.
 HarFok:  IExCor= 1009 AccDes= 0.00D+00 IRadAn=         4 IDoV= 1 UseB2=F ITyADJ=14
 ICtDFT=  3500011 ScaDFX=  1.000000  1.000000  1.000000  1.000000
 FoFCou: FMM=F IPFlag=           0 FMFlag=      100000 FMFlg1=           0
         NFxFlg=           0 DoJE=T BraDBF=F KetDBF=T FulRan=T
         wScrn=  0.000000 ICntrl=       500 IOpCl=  0 I1Cent=   200000004 NGrid=           0
         NMat0=    1 NMatS0=      1 NMatT0=    0 NMatD0=    1 NMtDS0=    0 NMtDT0=    0
 Petite list used in FoFCou.
 Requested convergence on RMS density matrix=1.00D-08 within 128 cycles.
 Requested convergence on MAX density matrix=1.00D-06.
 Requested convergence on             energy=1.00D-06.
 No special actions if energy rises.
 SCF Done:  E(RM062X) =  -583.367519106     A.U. after   16 cycles
            NFock= 16  Conv=0.40D-08     -V/T= 2.0068
 Calling FoFJK, ICntrl=      2127 FMM=F ISym2X=0 I1Cent= 0 IOpClX= 0 NMat=1 NMatS=1 NMatT=0.
 ***** Axes restored to original set *****
 -------------------------------------------------------------------
 Center     Atomic                   Forces (Hartrees/Bohr)
 Number     Number              X              Y              Z
 -------------------------------------------------------------------
      1        7          -0.023063094   -0.005396655   -0.002000390
      2        7           0.000330755   -0.001469544   -0.004322178
      3        6           0.000295300    0.000426899   -0.003758141
      4        6           0.000262321   -0.003427130   -0.000548618
      5        7          -0.187033101   -0.002005744    0.061721191
      6        1          -0.000188222   -0.000330896   -0.000283422
      7        1           0.000327341   -0.000162480    0.001084181
      8        1          -0.001082631    0.000883042   -0.001323389
      9        6           0.015275123   -0.011518218    0.003408578
     10        8           0.178478834    0.005989953   -0.060900878
     11        8           0.015999830    0.017939088    0.007264637
     12        8          -0.000852122    0.001409535    0.004204812
     13        1           0.001101777   -0.002716640   -0.004404662
     14        1          -0.000027031    0.001753079    0.000214533
     15        8          -0.001104407   -0.000310171    0.000596737
     16        1           0.001230219   -0.001101078   -0.000651875
     17        1           0.000049107    0.000036961   -0.000301115
 -------------------------------------------------------------------
 Cartesian Forces:  Max     0.187033101 RMS     0.038622545

 GradGradGradGradGradGradGradGradGradGradGradGradGradGradGradGradGradGrad
 Berny optimization.
 Using GEDIIS/GDIIS optimizer.
 FormGI is forming the generalized inverse of G from B-inverse, IUseBI=4.
 Internal  Forces:  Max     0.942310650 RMS     0.292006007
 Search for a local minimum.
 Step number   2 out of a maximum of   75
 All quantities printed in internal units (Hartrees-Bohrs-Radians)
 Mixed Optimization -- RFO/linear search
 Update second derivatives using D2CorX and points    2    1
 DE=  1.21D-01 DEPred=-1.01D-03 R=-1.20D+02
 Trust test=-1.20D+02 RLast= 5.03D-01 DXMaxT set to 1.50D-01
 ITU= -1  0
 Use linear search instead of GDIIS.
     Eigenvalues ---    0.00230   0.00230   0.00284   0.00631   0.00744
     Eigenvalues ---    0.01239   0.01302   0.01931   0.02326   0.02337
     Eigenvalues ---    0.02381   0.02389   0.02997   0.03387   0.03951
     Eigenvalues ---    0.04539   0.04774   0.05949   0.06311   0.09898
     Eigenvalues ---    0.11193   0.14228   0.15927   0.15984   0.16000
     Eigenvalues ---    0.16000   0.16000   0.22117   0.23774   0.24469
     Eigenvalues ---    0.36208   0.36274   0.43222   0.46075   0.48283
     Eigenvalues ---    0.51323   0.53535   0.54188   0.54970   0.55301
     Eigenvalues ---    0.57449   0.64707   1.23339   1.28175  13.05654
 RFO step:  Lambda=-4.29996318D-02 EMin= 2.29822627D-03
 Quartic linear search produced a step of -0.94283.
 Maximum step size (   0.150) exceeded in Quadratic search.
    -- Step size scaled by   0.249
 Iteration  1 RMS(Cart)=  0.33739723 RMS(Int)=  0.01097331
 Iteration  2 RMS(Cart)=  0.04735102 RMS(Int)=  0.00251303
 Iteration  3 RMS(Cart)=  0.00066298 RMS(Int)=  0.00250576
 Iteration  4 RMS(Cart)=  0.00000665 RMS(Int)=  0.00250576
 Iteration  5 RMS(Cart)=  0.00000008 RMS(Int)=  0.00250576
 Variable       Old X    -DE/DX   Delta X   Delta X   Delta X     New X
                                 (Linear)    (Quad)   (Total)
    R1        2.51129  -0.12061  -0.00054  -0.00026  -0.00078   2.51052
    R2        2.45562  -0.03423  -0.00046   0.00016  -0.00029   2.45533
    R3        2.54763   0.01385  -0.00105   0.00082  -0.00024   2.54739
    R4        1.94143  -0.11323  -0.00200   0.00061  -0.00147   1.93996
    R5        2.60307  -0.09167  -0.00064  -0.00009  -0.00073   2.60234
    R6        2.03662   0.00028  -0.00007   0.00005  -0.00002   2.03661
    R7        2.56733  -0.06263   0.00066  -0.00082  -0.00014   2.56719
    R8        2.03754   0.00062   0.00003  -0.00002   0.00001   2.03756
    R9        3.42752  -0.03532   0.00139  -0.00203  -0.00071   3.42681
   R10        2.19097   0.06412  -0.00029   0.00037   0.00008   2.19105
   R11        2.20479   0.06768   0.00013   0.00009   0.00021   2.20501
   R12        4.03162   0.16456   0.01429  -0.00192   0.01233   4.04395
   R13        1.82981   0.15744  -0.00010   0.00099   0.00099   1.83080
   R14        1.81866   0.00039  -0.00007   0.00005  -0.00002   1.81864
   R15        3.36004   0.13279   0.00280   0.00234   0.00530   3.36534
   R16        1.85160   0.13662  -0.00123   0.00165   0.00029   1.85189
   R17        1.81586   0.00026  -0.00020   0.00015  -0.00006   1.81580
    A1        1.88608  -0.09025  -0.00153  -0.00004  -0.00159   1.88449
    A2        1.93836   0.04854   0.00241  -0.00112   0.00135   1.93971
    A3        2.04366   0.15594   0.00035   0.00243   0.00264   2.04630
    A4        2.30012  -0.20750  -0.00270  -0.00152  -0.00412   2.29600
    A5        1.81448   0.00271  -0.00160   0.00120  -0.00042   1.81406
    A6        2.14460  -0.00124   0.00027  -0.00024   0.00005   2.14465
    A7        2.32410  -0.00150   0.00131  -0.00096   0.00036   2.32447
    A8        1.88858  -0.06414   0.00067  -0.00122  -0.00054   1.88804
    A9        2.26840   0.03224  -0.00005   0.00042   0.00036   2.26876
   A10        2.12621   0.03193  -0.00061   0.00080   0.00018   2.12639
   A11        1.89725   0.10315   0.00008   0.00113   0.00123   1.89847
   A12        2.62771   0.45809   0.00260   0.00343   0.00586   2.63358
   A13        2.18475   0.62066   0.00440   0.00725   0.01165   2.19640
   A14        1.83870  -0.12109   0.00991  -0.00447   0.00689   1.84559
   A15        2.04058   0.89044   0.01929   0.00418   0.02202   2.06260
   A16        2.03296  -0.42552  -0.00363  -0.00179  -0.01235   2.02061
   A17        1.72509   0.59333   0.00763   0.00661   0.01440   1.73949
   A18        2.24031   0.01100   0.00420   0.00095   0.00517   2.24548
   A19        1.87505  -0.36109   0.00528  -0.00820  -0.00281   1.87225
   A20        3.17741   0.34402   0.01362   0.00392   0.01754   3.19495
   A21        3.30008   0.94231  -0.14943   0.14714  -0.00622   3.29387
   A22        2.87422   0.85761   0.11090  -0.01129   0.10181   2.97604
   A23        3.15115   0.18039   0.01215  -0.00119   0.01096   3.16211
   A24        3.08849   0.42249   0.05007  -0.00232   0.04292   3.13142
   A25        3.02860   0.27256   0.00894   0.01047   0.02103   3.04963
    D1        0.00833  -0.00515  -0.00982   0.00593  -0.00391   0.00441
    D2        3.10667  -0.07397  -0.00841   0.00161  -0.00677   3.09989
    D3       -0.00510   0.01239   0.00791  -0.00431   0.00362  -0.00148
    D4       -0.00785  -0.00470   0.00744  -0.00495   0.00251  -0.00534
    D5        3.13223  -0.01609   0.00202  -0.00218  -0.00014   3.13209
    D6       -3.09780   0.06379   0.00562   0.00008   0.00565  -3.09215
    D7        0.04229   0.05241   0.00020   0.00284   0.00300   0.04528
    D8       -0.45836   0.13437   0.02689  -0.00687   0.01982  -0.43855
    D9        2.62909   0.05925   0.02883  -0.01223   0.01648   2.64557
   D10        0.00457   0.01149  -0.00247   0.00222  -0.00027   0.00430
   D11       -3.13563  -0.00672  -0.00246   0.00119  -0.00127  -3.13690
   D12       -3.13529   0.02460   0.00378  -0.00097   0.00279  -3.13250
   D13        0.00769   0.00639   0.00379  -0.00200   0.00179   0.00948
   D14        0.00023  -0.01521  -0.00334   0.00125  -0.00208  -0.00186
   D15        3.14057   0.00123  -0.00335   0.00218  -0.00118   3.13938
   D16       -0.20415   0.20998   0.12671  -0.05613   0.07012  -0.13403
   D17        1.90155   0.30082   0.14496  -0.06056   0.08432   1.98587
   D18        2.33276   0.45193   0.11186  -0.03992   0.08263   2.41539
   D19        0.02814  -0.04340   0.10623  -0.05469   0.04085   0.06899
   D20        0.46893   0.78119   0.21988  -0.07672   0.13820   0.60713
   D21       -1.84023   0.30072   0.17458  -0.07297   0.09710  -1.74312
   D22       -1.64955   0.34742   0.17038  -0.07594   0.09845  -1.55110
   D23        2.32448  -0.13305   0.12508  -0.07220   0.05735   2.38183
         Item               Value     Threshold  Converged?
 Maximum Force            0.942311     0.000450     NO 
 RMS     Force            0.292006     0.000300     NO 
 Maximum Displacement     1.200569     0.001800     NO 
 RMS     Displacement     0.377298     0.001200     NO 
 Predicted change in Energy=-9.133069D-02
 GradGradGradGradGradGradGradGradGradGradGradGradGradGradGradGradGradGrad

                          Input orientation:                          
 ---------------------------------------------------------------------
 Center     Atomic      Atomic             Coordinates (Angstroms)
 Number     Number       Type             X           Y           Z
 ---------------------------------------------------------------------
      1          7           0       -0.227621   -0.424314   -0.220159
      2          7           0       -1.519844   -0.722707   -0.297971
      3          6           0       -1.751163   -1.989282    0.101327
      4          6           0       -0.502018   -2.466874    0.429865
      5          7           0        0.400449   -1.473664    0.218681
      6          1           0       -2.736469   -2.425433    0.122226
      7          1           0       -0.205003   -3.437038    0.794747
      8          1           0       -2.157569    0.024449   -0.596201
      9          6           0        2.624155    0.272370   -0.083953
     10          8           0        3.014798   -0.523094   -0.831598
     11          8           0        2.286817    1.107702    0.657625
     12          8           0       -0.442611    2.573947    0.786844
     13          1           0        0.359901    2.037285    0.705742
     14          1           0       -0.628394    2.625074    1.729740
     15          8           0       -2.568950    1.782348   -0.766289
     16          1           0       -1.830362    2.174369   -0.255249
     17          1           0       -2.667076    2.300852   -1.569293
 ---------------------------------------------------------------------
                    Distance matrix (angstroms):
                    1          2          3          4          5
     1  N    0.000000
     2  N    1.328508   0.000000
     3  C    2.207637   1.348020   0.000000
     4  C    2.160990   2.146587   1.377097   0.000000
     5  N    1.299303   2.125650   2.215642   1.358496   0.000000
     6  H    3.227387   2.134483   1.077725   2.255910   3.279545
     7  H    3.179160   3.207871   2.228776   1.078228   2.133838
     8  H    2.016803   1.026585   2.169521   3.162334   3.074383
     9  C    2.938800   4.267167   4.928773   4.188129   2.843429
    10  O    3.301044   4.570293   5.072913   4.211598   2.973464
    11  O    3.072454   4.330615   5.119185   4.539501   3.227151
    12  O    3.170148   3.633893   4.796383   5.053794   4.173333
    13  H    2.694800   3.486895   4.586409   4.594177   3.544804
    14  H    3.641633   4.014217   5.020420   5.256766   4.487925
    15  O    3.263348   2.755948   3.955594   4.874309   4.515430
    16  H    3.053385   2.913983   4.179642   4.875963   4.302240
    17  H    3.898414   3.474811   4.694158   5.604937   5.182039
                    6          7          8          9         10
     6  H    0.000000
     7  H    2.807837   0.000000
     8  H    2.617859   4.210599   0.000000
     9  C    6.004743   4.747205   4.815470   0.000000
    10  O    6.132352   4.637153   5.206591   1.159456   0.000000
    11  O    6.164665   5.184846   4.743215   1.166840   2.325347
    12  O    5.540514   6.015685   3.369545   3.931997   4.915759
    13  H    5.462953   5.504113   3.476237   2.977481   3.995927
    14  H    5.704008   6.148389   3.809414   4.404972   5.453830
    15  O    4.303829   5.938609   1.813387   5.451051   6.041322
    16  H    4.703371   5.935670   2.201243   4.846613   5.575307
    17  H    5.020342   6.676367   2.527551   5.858165   6.387688
                   11         12         13         14         15
    11  O    0.000000
    12  O    3.101024   0.000000
    13  H    2.139964   0.968818   0.000000
    14  H    3.456921   0.962384   1.539738   0.000000
    15  O    5.105013   2.749576   3.287862   3.272018   0.000000
    16  H    4.349974   1.780862   2.395735   2.363904   0.979977
    17  H    5.560920   3.251800   3.795766   3.891653   0.960880
                   16         17
    16  H    0.000000
    17  H    1.562946   0.000000
 Stoichiometry    C3H7N3O4
 Framework group  C1[X(C3H7N3O4)]
 Deg. of freedom    45
 Full point group                 C1      NOp   1
 Largest Abelian subgroup         C1      NOp   1
 Largest concise Abelian subgroup C1      NOp   1
                         Standard orientation:                         
 ---------------------------------------------------------------------
 Center     Atomic      Atomic             Coordinates (Angstroms)
 Number     Number       Type             X           Y           Z
 ---------------------------------------------------------------------
      1          7           0        0.219563   -0.441051    0.200315
      2          7           0        1.487114   -0.838590    0.214791
      3          6           0        1.604707   -2.104423   -0.233535
      4          6           0        0.310686   -2.474764   -0.524658
      5          7           0       -0.503906   -1.424211   -0.244856
      6          1           0        2.552044   -2.612676   -0.309196
      7          1           0       -0.073986   -3.406545   -0.907263
      8          1           0        2.191500   -0.152443    0.509613
      9          6           0       -2.573447    0.473074    0.205038
     10          8           0       -2.994456   -0.316055    0.942849
     11          8           0       -2.202246    1.305744   -0.523238
     12          8           0        0.624546    2.565501   -0.719724
     13          1           0       -0.213010    2.088424   -0.622231
     14          1           0        0.776671    2.635074   -1.667458
     15          8           0        2.742970    1.562470    0.717766
     16          1           0        2.017231    2.026544    0.250547
     17          1           0        2.911958    2.043988    1.531937
 ---------------------------------------------------------------------
 Rotational constants (GHZ):           1.1753125           0.8914047           0.5614277
 Standard basis: 6-31+G(d,p) (6D, 7F)
 There are   225 symmetry adapted cartesian basis functions of A   symmetry.
 There are   225 symmetry adapted basis functions of A   symmetry.
   225 basis functions,   369 primitive gaussians,   225 cartesian basis functions
    39 alpha electrons       39 beta electrons
       nuclear repulsion energy       520.7510158378 Hartrees.
 NAtoms=   17 NActive=   17 NUniq=   17 SFac= 1.00D+00 NAtFMM=   60 NAOKFM=F Big=F
 Integral buffers will be    131072 words long.
 Raffenetti 2 integral format.
 Two-electron integral symmetry is turned on.
 One-electron integrals computed using PRISM.
 NBasis=   225 RedAO= T EigKep=  4.20D-05  NBF=   225
 NBsUse=   225 1.00D-06 EigRej= -1.00D+00 NBFU=   225
 Lowest energy guess from the checkpoint file:  "/scratch/gongke2021/RC-2-N-test/Gau-8033.chk"
 B after Tr=     0.000000    0.000000    0.000000
         Rot=    0.999319   -0.010217   -0.003283    0.035305 Ang=  -4.23 deg.
 B after Tr=     0.000000    0.000000    0.000000
         Rot=    0.963009    0.038593    0.020171   -0.265927 Ang=  31.27 deg.
 Requested convergence on RMS density matrix=1.00D-08 within 128 cycles.
 Requested convergence on MAX density matrix=1.00D-06.
 Requested convergence on             energy=1.00D-06.
 No special actions if energy rises.
 SCF Done:  E(RM062X) =  -583.488466521     A.U. after   13 cycles
            NFock= 13  Conv=0.77D-08     -V/T= 2.0083
 Calling FoFJK, ICntrl=      2127 FMM=F ISym2X=0 I1Cent= 0 IOpClX= 0 NMat=1 NMatS=1 NMatT=0.
 ***** Axes restored to original set *****
 -------------------------------------------------------------------
 Center     Atomic                   Forces (Hartrees/Bohr)
 Number     Number              X              Y              Z
 -------------------------------------------------------------------
      1        7           0.001879322    0.000903318    0.000267118
      2        7          -0.000243723   -0.000041428    0.000118744
      3        6          -0.000018921   -0.000299212   -0.000131323
      4        6          -0.000146068    0.000051446   -0.000011713
      5        7          -0.000974560    0.000100756    0.001728527
      6        1           0.000008743   -0.000101131   -0.000226840
      7        1          -0.000031203    0.000017200    0.000053306
      8        1          -0.000117939    0.000687800   -0.000227511
      9        6           0.002472598   -0.003862434   -0.004135985
     10        8           0.000526880    0.002624472    0.000964412
     11        8          -0.002991331    0.000999104    0.001967319
     12        8           0.000907135    0.001122039    0.001912448
     13        1          -0.001411702   -0.002428418   -0.002286701
     14        1          -0.000012408    0.000640626    0.000153723
     15        8          -0.000321695   -0.000161379    0.000616211
     16        1           0.000428662   -0.000377350   -0.000542625
     17        1           0.000046208    0.000124593   -0.000219110
 -------------------------------------------------------------------
 Cartesian Forces:  Max     0.004135985 RMS     0.001326331

 GradGradGradGradGradGradGradGradGradGradGradGradGradGradGradGradGradGrad
 Berny optimization.
 Using GEDIIS/GDIIS optimizer.
 FormGI is forming the generalized inverse of G from B-inverse, IUseBI=4.
 Internal  Forces:  Max     0.008080296 RMS     0.002644401
 Search for a local minimum.
 Step number   3 out of a maximum of   75
 All quantities printed in internal units (Hartrees-Bohrs-Radians)
 Mixed Optimization -- RFO/linear search
 Update second derivatives using D2CorX and points    2    3    1
 DE=  2.70D-04 DEPred=-9.13D-02 R=-2.96D-03
 Trust test=-2.96D-03 RLast= 2.63D-01 DXMaxT set to 7.50D-02
 ITU= -1 -1  0
 Use linear search instead of GDIIS.
 Energy rises -- skip Quadratic/GDIIS search.
 Quartic linear search produced a step of -0.63748.
 Iteration  1 RMS(Cart)=  0.10013457 RMS(Int)=  0.00306075
 Iteration  2 RMS(Cart)=  0.00487043 RMS(Int)=  0.00013333
 Iteration  3 RMS(Cart)=  0.00000673 RMS(Int)=  0.00013328
 Iteration  4 RMS(Cart)=  0.00000001 RMS(Int)=  0.00013328
 Variable       Old X    -DE/DX   Delta X   Delta X   Delta X     New X
                                 (Linear)    (Quad)   (Total)
    R1        2.51052   0.00154   0.00013   0.00000   0.00013   2.51065
    R2        2.45533   0.00024  -0.00012   0.00000  -0.00012   2.45520
    R3        2.54739   0.00020  -0.00056   0.00000  -0.00056   2.54683
    R4        1.93996   0.00041  -0.00042   0.00000  -0.00042   1.93955
    R5        2.60234  -0.00045   0.00003   0.00000   0.00003   2.60237
    R6        2.03661   0.00003  -0.00004   0.00000  -0.00004   2.03657
    R7        2.56719  -0.00010   0.00054   0.00000   0.00054   2.56773
    R8        2.03756  -0.00001   0.00001   0.00000   0.00001   2.03757
    R9        3.42681  -0.00103   0.00139   0.00000   0.00139   3.42820
   R10        2.19105  -0.00225  -0.00025   0.00000  -0.00025   2.19081
   R11        2.20501   0.00377  -0.00005   0.00000  -0.00005   2.20496
   R12        4.04395   0.00015   0.00181   0.00000   0.00180   4.04575
   R13        1.83080   0.00057  -0.00069   0.00000  -0.00069   1.83011
   R14        1.81864   0.00019  -0.00003   0.00000  -0.00003   1.81861
   R15        3.36534  -0.00151  -0.00148   0.00000  -0.00148   3.36386
   R16        1.85189  -0.00165  -0.00102   0.00000  -0.00103   1.85086
   R17        1.81580   0.00025  -0.00010   0.00000  -0.00010   1.81570
    A1        1.88449  -0.00100  -0.00002   0.00000  -0.00002   1.88447
    A2        1.93971   0.00011   0.00077   0.00000   0.00078   1.94048
    A3        2.04630   0.00111  -0.00144   0.00000  -0.00144   2.04486
    A4        2.29600  -0.00129   0.00080   0.00000   0.00080   2.29680
    A5        1.81406   0.00013  -0.00082   0.00000  -0.00082   1.81324
    A6        2.14465  -0.00005   0.00015   0.00000   0.00015   2.14481
    A7        2.32447  -0.00008   0.00065   0.00000   0.00065   2.32512
    A8        1.88804   0.00005   0.00080   0.00000   0.00080   1.88883
    A9        2.26876  -0.00005  -0.00027   0.00000  -0.00027   2.26849
   A10        2.12639  -0.00000  -0.00053   0.00000  -0.00053   2.12586
   A11        1.89847   0.00071  -0.00073   0.00000  -0.00073   1.89775
   A12        2.63358  -0.00344  -0.00198   0.00000  -0.00198   2.63159
   A13        2.19640   0.00482  -0.00445   0.00000  -0.00445   2.19195
   A14        1.84559   0.00420   0.00231   0.00000   0.00243   1.84802
   A15        2.06260  -0.00516  -0.00099   0.00000  -0.00106   2.06154
   A16        2.02061  -0.00055   0.00541   0.00000   0.00504   2.02566
   A17        1.73949  -0.00808  -0.00402   0.00000  -0.00402   1.73548
   A18        2.24548   0.00565  -0.00046   0.00000  -0.00045   2.24504
   A19        1.87225  -0.00026   0.00536   0.00000   0.00536   1.87761
   A20        3.19495   0.00327  -0.00197   0.00000  -0.00197   3.19298
   A21        3.29387   0.00296  -0.09707   0.00000  -0.09730   3.19657
   A22        2.97604  -0.00763   0.01008   0.00000   0.01020   2.98623
   A23        3.16211   0.00197   0.00123   0.00000   0.00123   3.16334
   A24        3.13142   0.00502   0.00649   0.00000   0.00628   3.13769
   A25        3.04963   0.00270  -0.00737   0.00000  -0.00729   3.04235
    D1        0.00441  -0.00032  -0.00415   0.00000  -0.00414   0.00027
    D2        3.09989  -0.00179  -0.00137   0.00000  -0.00136   3.09853
    D3       -0.00148   0.00044   0.00304   0.00000   0.00304   0.00156
    D4       -0.00534   0.00007   0.00343   0.00000   0.00343  -0.00191
    D5        3.13209  -0.00023   0.00146   0.00000   0.00146   3.13354
    D6       -3.09215   0.00172   0.00020   0.00000   0.00020  -3.09195
    D7        0.04528   0.00142  -0.00177   0.00000  -0.00177   0.04351
    D8       -0.43855   0.00351   0.00555   0.00000   0.00554  -0.43300
    D9        2.64557   0.00175   0.00899   0.00000   0.00899   2.65455
   D10        0.00430   0.00019  -0.00150   0.00000  -0.00150   0.00280
   D11       -3.13690  -0.00023  -0.00085   0.00000  -0.00085  -3.13775
   D12       -3.13250   0.00054   0.00078   0.00000   0.00078  -3.13173
   D13        0.00948   0.00012   0.00142   0.00000   0.00142   0.01091
   D14       -0.00186  -0.00040  -0.00093   0.00000  -0.00093  -0.00279
   D15        3.13938  -0.00002  -0.00151   0.00000  -0.00151   3.13787
   D16       -0.13403   0.00706   0.04098   0.00000   0.04097  -0.09306
   D17        1.98587   0.00216   0.04426   0.00000   0.04427   2.03013
   D18        2.41539   0.00484   0.02296   0.00000   0.02354   2.43892
   D19        0.06899   0.00140   0.04578   0.00000   0.04521   0.11420
   D20        0.60713   0.00200   0.06057   0.00000   0.06032   0.66745
   D21       -1.74312   0.00285   0.05614   0.00000   0.05591  -1.68722
   D22       -1.55110   0.00217   0.05244   0.00000   0.05266  -1.49844
   D23        2.38183   0.00303   0.04801   0.00000   0.04825   2.43008
         Item               Value     Threshold  Converged?
 Maximum Force            0.008080     0.000450     NO 
 RMS     Force            0.002644     0.000300     NO 
 Maximum Displacement     0.357461     0.001800     NO 
 RMS     Displacement     0.098511     0.001200     NO 
 Predicted change in Energy=-1.180926D-04
 GradGradGradGradGradGradGradGradGradGradGradGradGradGradGradGradGradGrad

                          Input orientation:                          
 ---------------------------------------------------------------------
 Center     Atomic      Atomic             Coordinates (Angstroms)
 Number     Number       Type             X           Y           Z
 ---------------------------------------------------------------------
      1          7           0       -0.209479   -0.419601   -0.101577
      2          7           0       -1.488929   -0.726152   -0.286385
      3          6           0       -1.741378   -2.000101    0.073740
      4          6           0       -0.519130   -2.472257    0.497555
      5          7           0        0.389570   -1.469537    0.374652
      6          1           0       -2.721450   -2.443508    0.008178
      7          1           0       -0.244463   -3.445233    0.872343
      8          1           0       -2.105517    0.021051   -0.625396
      9          6           0        2.558133    0.294413   -0.189283
     10          8           0        2.910774   -0.432448   -1.020758
     11          8           0        2.254461    1.063555    0.633916
     12          8           0       -0.455924    2.571223    0.840412
     13          1           0        0.370585    2.072550    0.762270
     14          1           0       -0.673310    2.575530    1.777894
     15          8           0       -2.508468    1.780385   -0.808197
     16          1           0       -1.787725    2.167013   -0.269366
     17          1           0       -2.578711    2.299108   -1.613914
 ---------------------------------------------------------------------
                    Distance matrix (angstroms):
                    1          2          3          4          5
     1  N    0.000000
     2  N    1.328578   0.000000
     3  C    2.208037   1.347726   0.000000
     4  C    2.160611   2.145683   1.377113   0.000000
     5  N    1.299237   2.125641   2.216525   1.358782   0.000000
     6  H    3.227730   2.134288   1.077706   2.256221   3.280453
     7  H    3.178709   3.206984   2.228661   1.078235   2.133792
     8  H    2.015818   1.026363   2.169434   3.161365   3.073663
     9  C    2.859577   4.174888   4.880550   4.194729   2.851702
    10  O    3.252851   4.470230   5.029710   4.269700   3.062547
    11  O    2.968451   4.250056   5.066213   4.495928   3.156199
    12  O    3.145331   3.634481   4.810112   5.055515   4.154459
    13  H    2.700652   3.519972   4.639067   4.638635   3.563283
    14  H    3.566281   3.978390   4.998130   5.209912   4.411504
    15  O    3.259540   2.755808   3.957059   4.873132   4.512178
    16  H    3.034730   2.908603   4.181472   4.870352   4.287174
    17  H    3.910474   3.478815   4.693879   5.609465   5.193050
                    6          7          8          9         10
     6  H    0.000000
     7  H    2.808149   0.000000
     8  H    2.618175   4.209735   0.000000
     9  C    5.950563   4.792342   4.691967   0.000000
    10  O    6.068363   4.755653   5.052242   1.159324   0.000000
    11  O    6.119700   5.160488   4.656403   1.166813   2.325235
    12  O    5.565316   6.020255   3.372407   3.915185   4.880640
    13  H    5.524863   5.553046   3.502192   2.975330   3.988328
    14  H    5.702413   6.103565   3.788454   4.417635   5.452159
    15  O    4.307331   5.937762   1.814123   5.316165   5.857474
    16  H    4.712301   5.931480   2.198386   4.732813   5.421963
    17  H    5.014376   6.680392   2.527968   5.695221   6.160169
                   11         12         13         14         15
    11  O    0.000000
    12  O    3.108358   0.000000
    13  H    2.140919   0.968452   0.000000
    14  H    3.488065   0.962365   1.540843   0.000000
    15  O    5.027826   2.748867   3.292518   3.269240   0.000000
    16  H    4.286351   1.780080   2.394054   2.366449   0.979434
    17  H    5.471644   3.256377   3.794197   3.900171   0.960827
                   16         17
    16  H    0.000000
    17  H    1.565541   0.000000
 Stoichiometry    C3H7N3O4
 Framework group  C1[X(C3H7N3O4)]
 Deg. of freedom    45
 Full point group                 C1      NOp   1
 Largest Abelian subgroup         C1      NOp   1
 Largest concise Abelian subgroup C1      NOp   1
                         Standard orientation:                         
 ---------------------------------------------------------------------
 Center     Atomic      Atomic             Coordinates (Angstroms)
 Number     Number       Type             X           Y           Z
 ---------------------------------------------------------------------
      1          7           0        0.201324   -0.425987    0.093865
      2          7           0        1.471177   -0.785103    0.247580
      3          6           0        1.666403   -2.061541   -0.138371
      4          6           0        0.418496   -2.478560   -0.544898
      5          7           0       -0.447642   -1.443564   -0.387172
      6          1           0        2.629459   -2.543726   -0.100009
      7          1           0        0.098611   -3.433579   -0.929869
      8          1           0        2.123108   -0.068318    0.586143
      9          6           0       -2.533939    0.393343    0.249495
     10          8           0       -2.898339   -0.333405    1.075984
     11          8           0       -2.216642    1.164094   -0.567034
     12          8           0        0.546117    2.568700   -0.803951
     13          1           0       -0.297589    2.101230   -0.717173
     14          1           0        0.745008    2.580612   -1.745465
     15          8           0        2.598171    1.670657    0.789430
     16          1           0        1.882655    2.094146    0.271758
     17          1           0        2.704522    2.172392    1.601921
 ---------------------------------------------------------------------
 Rotational constants (GHZ):           1.1535328           0.9130251           0.5784831
 Standard basis: 6-31+G(d,p) (6D, 7F)
 There are   225 symmetry adapted cartesian basis functions of A   symmetry.
 There are   225 symmetry adapted basis functions of A   symmetry.
   225 basis functions,   369 primitive gaussians,   225 cartesian basis functions
    39 alpha electrons       39 beta electrons
       nuclear repulsion energy       522.5375734323 Hartrees.
 NAtoms=   17 NActive=   17 NUniq=   17 SFac= 1.00D+00 NAtFMM=   60 NAOKFM=F Big=F
 Integral buffers will be    131072 words long.
 Raffenetti 2 integral format.
 Two-electron integral symmetry is turned on.
 One-electron integrals computed using PRISM.
 NBasis=   225 RedAO= T EigKep=  3.73D-05  NBF=   225
 NBsUse=   225 1.00D-06 EigRej= -1.00D+00 NBFU=   225
 Lowest energy guess from the checkpoint file:  "/scratch/gongke2021/RC-2-N-test/Gau-8033.chk"
 B after Tr=    -0.000000   -0.000000   -0.000000
         Rot=    0.999832   -0.004116   -0.001424    0.017779 Ang=  -2.10 deg.
 B after Tr=    -0.000000   -0.000000   -0.000000
         Rot=    0.999826    0.006148    0.001859   -0.017542 Ang=   2.14 deg.
 Requested convergence on RMS density matrix=1.00D-08 within 128 cycles.
 Requested convergence on MAX density matrix=1.00D-06.
 Requested convergence on             energy=1.00D-06.
 No special actions if energy rises.
 SCF Done:  E(RM062X) =  -583.488888661     A.U. after   11 cycles
            NFock= 11  Conv=0.57D-08     -V/T= 2.0083
 Calling FoFJK, ICntrl=      2127 FMM=F ISym2X=0 I1Cent= 0 IOpClX= 0 NMat=1 NMatS=1 NMatT=0.
 ***** Axes restored to original set *****
 -------------------------------------------------------------------
 Center     Atomic                   Forces (Hartrees/Bohr)
 Number     Number              X              Y              Z
 -------------------------------------------------------------------
      1        7           0.000794534    0.000379600    0.000473901
      2        7          -0.000088526    0.000128741   -0.000553331
      3        6           0.000169417   -0.000062265    0.000390251
      4        6           0.000363036   -0.000142875    0.000044253
      5        7          -0.000266003   -0.000191521    0.000402043
      6        1           0.000028293   -0.000106827   -0.000122272
      7        1          -0.000048744    0.000019253    0.000050556
      8        1          -0.000366653    0.000675614   -0.000256780
      9        6           0.000649969   -0.000989900   -0.001514392
     10        8           0.000060872    0.000568481    0.000316492
     11        8          -0.001024335    0.000810435    0.001087851
     12        8           0.000967154    0.002090384    0.001479205
     13        1          -0.001377381   -0.003144104   -0.001825840
     14        1          -0.000019407    0.000290468    0.000085924
     15        8          -0.000748404   -0.000981452    0.000146050
[...]
   yx        -0.901609D+01     -0.133605D+01     -0.148655D+01
   yy         0.893882D+02      0.132460D+02      0.147381D+02
   zx        -0.129284D+01     -0.191579D+00     -0.213160D+00
   zy         0.416622D+01      0.617370D+00      0.686916D+00
   zz         0.817077D+02      0.121078D+02      0.134718D+02

 ----------------------------------------------------------------------
 1\1\GINC-NODE6\Freq\RM062X\6-31+G(d,p)\C3H7N3O4\GONGKE2021\07-Jul-2023
 \0\\#N Geom=AllCheck Guess=TCheck SCRF=Check GenChk RM062X/6-31+G(d,p)
  Freq\\test\\0,1\N,-0.3689494977,-0.2177856284,-0.0743773598\N,-1.6252
 812399,-0.643043868,-0.1387711194\C,-1.6802786204,-1.988188311,-0.0841
 945363\C,-0.3607661268,-2.3722360929,0.0177369224\N,0.4074222521,-1.25
 31329089,0.0218780464\H,-2.6065278578,-2.538151904,-0.1180632018\H,0.0
 712463964,-3.3575348344,0.0881829003\H,-2.3594287551,0.0771353981,-0.1
 981189302\C,2.8186073614,-0.0327157198,0.589852293\O,3.4499464965,-1.0
 074350169,0.6050714286\O,2.244653068,0.9816748367,0.5923858531\O,-0.33
 67805271,2.6304970787,0.0057819341\H,-0.0084932752,1.711262793,-0.0243
 207199\H,0.2294856207,3.1036119847,0.6223639112\O,-2.9220901215,1.7945
 216669,-0.1411550142\H,-2.0869681831,2.2938202535,-0.0122829435\H,-3.4
 167589904,2.2536912728,-0.8258844643\\Version=ES64L-G16RevA.03\State=1
 -A\HF=-583.4942945\RMSD=2.235e-09\RMSF=1.410e-05\ZeroPoint=0.1235455\T
 hermal=0.1369361\Dipole=-1.0700281,-0.2121682,-0.1094965\DipoleDeriv=0
 .2916256,-0.1829336,0.0359156,-0.2433934,-0.6253782,-0.0053144,0.02493
 08,-0.005534,-0.1174221,-0.5661845,0.4649363,-0.0580835,0.4316215,-0.2
 650885,0.0280212,-0.0534947,0.0402896,-0.1149645,0.1164396,0.0059478,0
 .0097493,-0.2640691,0.053802,-0.0303504,0.0280448,-0.0048452,-0.073810
 4,-0.0474338,-0.1627257,0.0038311,-0.0460031,0.0509838,-0.0089153,0.00
 42739,-0.0155219,-0.1036814,-0.4089412,0.0156323,-0.0225219,0.2045016,
 -0.0558075,-0.003234,-0.0421904,-0.020794,-0.2235973,0.058303,-0.03102
 04,-0.008343,-0.0124217,0.1026262,0.003329,-0.0078092,0.0019858,0.1953
 92,0.0913302,0.0371832,-0.006689,0.0129038,0.0259823,0.0068322,-0.0072
 116,0.009383,0.1733042,0.4354713,-0.3447337,0.0176696,-0.3611279,0.766
 5573,-0.0308131,0.0152173,-0.025284,0.2855657,1.4800026,-0.7112558,0.0
 784257,-0.8349666,1.9497355,0.0005969,0.0860957,0.0193943,0.5534248,-0
 .7571142,0.4150406,-0.0359348,0.5038725,-0.9232121,0.0217038,-0.035414
 ,0.0094583,-0.2842216,-0.6865562,0.3712049,-0.0222773,0.4227071,-1.078
 8935,-0.0110864,-0.0323375,-0.0188111,-0.2856054,-0.7809934,-0.0025299
 ,0.0626917,-0.0963153,-1.0100846,-0.0104965,0.077639,0.0028058,-0.5603
 195,0.3342187,0.0029569,-0.01882,0.0605245,0.8710107,0.0232099,-0.0172
 886,0.0231945,0.2652621,0.2624892,-0.0262828,-0.0686032,0.004372,0.374
 2597,-0.0003889,-0.0601003,-0.0129306,0.2868393,-0.9560528,0.1188907,-
 0.0175342,0.0979365,-0.8542508,-0.0996694,0.0024891,-0.1081514,-0.5742
 907,0.7806796,0.0639011,0.0643102,0.1068512,0.3556998,0.0520103,0.0486
 432,0.0546833,0.2964373,0.3527162,-0.0342118,-0.0137865,0.0130065,0.26
 20578,0.0645651,-0.0314872,0.0506774,0.2816876\Polar=83.2766894,-5.834
 7676,89.3356722,3.9722078,-0.4568426,48.3366343\Quadrupole=0.2704762,2
 .8292956,-3.0997718,4.3831112,4.1143476,0.6885115\PG=C01 [X(C3H7N3O4)]
 \NImag=0\\0.52700314,-0.01685590,0.66734011,0.02787244,-0.02178631,0.1
 2919729,-0.26495927,-0.05099346,-0.01023436,0.78741214,-0.10401319,-0.
 15387803,-0.00451699,-0.18586960,0.86568933,-0.00632775,-0.00088180,-0
 .07722088,0.04473294,-0.03792240,0.12285911,-0.05158857,-0.01465067,-0
 .00425717,-0.12611768,-0.01087839,-0.00249145,0.87658705,-0.07918713,-
 0.07997710,-0.00072253,0.00505577,-0.36239569,0.01215491,0.13674583,0.
 68850966,-0.00178965,0.00352065,0.02057556,-0.00333731,0.01224234,-0.0
 6323845,0.04143191,-0.01525055,0.12973188,0.01302902,-0.03880787,0.001
 08228,-0.01960527,0.11013771,-0.00750369,-0.35488430,0.05691976,-0.020
 37015,0.67265261,0.04504789,-0.12635428,0.00918665,0.01015759,-0.04787
 753,0.00261125,0.09720018,-0.13933344,0.00958501,-0.15768847,0.8499983
 4,-0.00237628,0.00396512,0.02245234,-0.00271586,0.00979912,0.01016936,
 -0.02257181,0.00680368,-0.07076962,0.04218609,-0.04050733,0.13957280,-
 0.19593242,0.09952303,-0.01139084,-0.13841461,0.02245842,-0.01159940,-
 0.06087233,0.00298798,-0.00531529,-0.19598212,-0.09759796,-0.00419656,
 0.59429963,0.16452439,-0.29499593,0.01895056,0.07758695,-0.04335849,0.
 00922919,-0.09333532,0.02765993,-0.00703296,-0.09307412,-0.22998299,0.
 00025023,-0.03169377,0.56091728,-0.01432529,0.01478153,-0.09837257,-0.
 01436059,0.00473527,0.02521373,-0.00133486,-0.00027336,0.01827553,-0.0
 0448711,0.00019356,-0.07442665,0.03487584,-0.01996270,0.12331184,0.000
 11700,0.00435314,-0.00059421,0.00837882,0.00438744,0.00058569,-0.29684
 176,-0.14143415,-0.01063672,-0.00421438,-0.01533674,0.00046626,-0.0049
 2485,-0.00143315,-0.00071066,0.29795692,0.00131827,-0.00656517,0.00069
 206,-0.03189820,-0.01003814,-0.00175954,-0.13113400,-0.13528514,-0.003
 51444,0.00664925,0.01292811,-0.00019454,0.00576837,0.00051362,0.000690
 75,0.14950990,0.13850975,-0.00054735,0.00076107,0.00715632,0.00215330,
 0.00062854,-0.00393035,-0.01089180,-0.00425674,-0.02875285,-0.00062650
 ,-0.00159287,-0.00032285,-0.00104576,0.00021462,0.00662559,0.01071318,
 0.00425021,0.02273892,-0.00127564,-0.00707885,-0.00033759,-0.00695655,
 0.00201378,-0.00087871,0.00065826,0.02286522,-0.00090068,-0.11299350,0
 .12268935,-0.01073502,0.01397811,-0.01825851,0.00218989,-0.00015803,-0
 .00046413,0.00014736,0.10550812,-0.00257231,-0.00363282,0.00032416,-0.
 00218157,0.00073954,0.00006731,-0.00251806,0.00330619,-0.00033539,0.11
 723307,-0.31423023,0.01988242,0.01184118,-0.01764335,0.00124248,0.0004
 8173,-0.00041245,-0.00003878,-0.12262279,0.33157435,-0.00049770,-0.000
 02027,0.00822400,-0.00082296,0.00034143,0.00583032,0.00017996,0.001290
 76,-0.00083628,-0.01056686,0.02020833,-0.03143259,0.00098962,-0.000628
 07,-0.00710569,0.00009086,-0.00009884,-0.00203551,0.01058392,-0.021222
 04,0.02578693,-0.02050376,0.02649703,-0.00157285,-0.23951407,0.1528408
 8,-0.01636286,0.01521536,-0.00314117,0.00107271,0.00222824,-0.00561904
 ,0.00025976,-0.00432419,-0.00563440,-0.00048059,-0.00034031,0.00026611
 ,0.00002534,0.00123210,0.00020591,0.00002811,0.25199244,-0.00463398,0.
 01807739,-0.00104650,0.16783540,-0.22834428,0.01572227,0.01506855,-0.0
 0706600,0.00081779,-0.00425100,-0.00541180,0.00007849,-0.01254346,0.00
 616446,-0.00106366,-0.00035200,0.00009397,-0.00003656,0.00034093,0.000
 22900,0.00007255,-0.15681092,0.20911540,-0.00108272,0.00095073,-0.0098
 7895,-0.01550267,0.01364210,-0.02286930,0.00007985,0.00018821,-0.00581
 149,0.00019347,0.00030425,0.00439874,-0.00060262,-0.00044863,0.0079271
 0,0.00009688,-0.00005858,-0.00157309,-0.00008470,0.00007541,0.00162677
 ,0.01785277,-0.01302927,0.03231742,-0.00372633,0.00016214,0.00014783,0
 .00157332,0.00140948,-0.00006289,0.00201119,0.00175443,-0.00024809,0.0
 0313273,-0.00242333,0.00042047,-0.00443457,0.00278663,0.00069548,0.000
 21612,-0.00009675,-0.00005411,0.00039676,0.00032123,0.00009344,-0.0007
 2043,0.00082836,-0.00013693,0.63965851,-0.00108393,0.00187826,-0.00035
 394,0.00762266,-0.00297922,0.00020128,-0.00071829,-0.00198011,0.000102
 79,-0.00232115,-0.00184376,-0.00014877,-0.00084969,-0.00219640,0.00042
 588,0.00010027,-0.00029720,0.00011209,-0.00065120,-0.00058101,-0.00007
 910,-0.00011125,0.00189172,-0.00003717,-0.82472475,1.49465886,-0.00074
 627,0.00010857,-0.00064221,0.00101903,0.00002613,0.00031301,0.00042052
 ,0.00024205,0.00024148,0.00061196,-0.00070612,-0.00007238,-0.00065399,
 0.00070607,-0.00246703,0.00006207,-0.00005238,0.00012733,-0.00000111,0
 .00002529,0.00006877,-0.00014039,0.00032862,0.00015741,0.00296576,-0.0
 1046931,0.15090793,-0.00057039,-0.00019603,-0.00034423,-0.00114934,-0.
 00035165,-0.00001808,-0.00071147,-0.00061116,0.00008651,-0.00120784,0.
 00085790,-0.00008658,-0.00192636,-0.00024508,-0.00117533,-0.00007297,0
 .00003951,0.00001562,-0.00011161,-0.00012891,-0.00001994,0.00023635,-0
 .00033702,0.00006470,-0.34117608,0.42559529,-0.00480595,0.34937530,0.0
 0042785,-0.00076499,0.00023259,-0.00271204,0.00150143,-0.00006556,0.00
 058381,0.00095862,-0.00007349,0.00148018,0.00031190,0.00011497,-0.0019
 1140,0.00125861,-0.00043458,-0.00001880,0.00009723,-0.00004606,0.00038
 534,0.00027589,0.00005901,-0.00001853,-0.00071083,0.00000433,0.4248932
 2,-0.73377649,0.00978970,-0.48381005,0.79782912,-0.00008336,-0.0001372
 0,0.00029261,-0.00048293,0.00005443,-0.00017936,-0.00013644,-0.0000397
 5,-0.00005390,-0.00016004,0.00024674,-0.00000839,-0.00076099,-0.000039
 49,0.00093836,-0.00002112,0.00002092,-0.00003269,0.00001347,-0.0000115
 0,-0.00007966,0.00003721,-0.00013134,-0.00006944,-0.00478260,0.0097807
 8,-0.07455274,0.00728846,-0.00990816,0.03738554,-0.00228562,-0.0009140
 4,-0.00089235,0.00125008,-0.00145210,-0.00015538,-0.00110265,-0.001276
 51,0.00009991,-0.00159275,0.00069362,-0.00041287,-0.00185455,-0.003593
 38,-0.00081384,-0.00009786,-0.00006959,0.00012952,-0.00020859,-0.00020
 616,-0.00003429,0.00036581,-0.00008226,0.00005597,-0.29514709,0.392057
 26,0.00115983,-0.00369317,0.06307604,-0.00083985,0.30451581,0.00042343
 ,-0.00092051,0.00017131,-0.00329107,0.00117062,-0.00019398,-0.00005172
 ,0.00045920,-0.00001120,0.00028833,0.00147793,-0.00025149,-0.00146560,
 -0.00380252,-0.00080358,-0.00011699,0.00016714,-0.00000618,0.00032557,
 0.00024475,0.00002070,0.00020306,-0.00110399,0.00002076,0.39382097,-0.
 75312410,-0.00015526,0.05951916,-0.06763564,0.00021682,-0.44799673,0.8
 2307369,-0.00046509,-0.00003869,0.00028934,-0.00012613,-0.00025311,0.0
 0004353,-0.00024628,-0.00028002,-0.00009079,-0.00041366,0.00028091,0.0
 0008272,-0.00046422,-0.00121894,0.00073710,-0.00003499,-0.00000669,-0.
 00010214,0.,-0.00001852,-0.00001382,0.00009084,-0.00009906,-0.00008243
 ,0.00122562,-0.00024365,-0.07420194,-0.00109909,0.00063197,0.03627946,
 0.00171214,0.00107170,0.03777606,0.00207471,-0.00205753,0.00026925,0.0
 0161252,0.00027753,0.00009079,0.00066313,0.00117967,-0.00003593,0.0006
 9586,-0.00044682,0.00006188,0.00066328,-0.00121569,0.00015492,-0.00002
 677,0.00013654,0.00000220,0.00000048,-0.00004049,0.00001610,-0.0018673
 9,0.00410748,0.00002635,0.00206789,-0.00606419,-0.00026577,-0.00162296
 ,0.00337891,0.00011946,-0.00271735,0.00434990,-0.00057263,0.31762232,0
 .00055978,-0.01004506,-0.00163288,0.00139809,-0.00060697,0.00008681,-0
 .00039443,-0.00239258,0.00014014,-0.00120585,-0.00212537,0.00017478,-0
 .00196364,-0.00136434,-0.00030930,0.00008201,-0.00023890,0.00004882,-0
 .00025625,-0.00028818,0.00005055,0.00129529,-0.00078954,0.00017740,-0.
 00166841,0.00057287,-0.00021637,0.00066590,-0.00049410,0.00006977,0.00
 144246,-0.00035183,0.00017496,-0.00560133,0.60581398,0.00040419,-0.001
 42514,0.00339759,0.00001464,-0.00014097,0.00023372,-0.00007358,-0.0001
 1479,-0.00017650,0.00008823,-0.00021965,-0.00030595,-0.00026432,-0.000
 47909,0.00077695,0.00000497,-0.00003644,-0.00014859,-0.00002020,-0.000
 05455,-0.00013931,-0.00000480,0.00022594,-0.00069506,0.00023901,-0.000
 64344,-0.00032738,-0.00018672,0.00044019,-0.00002073,-0.00076381,0.000
 57426,0.00077840,0.22434841,0.18508050,0.25471499,-0.00518515,0.001501
 51,0.00034030,-0.00193506,-0.00323207,-0.00001515,-0.00080661,0.000051
 27,-0.00008932,-0.00014900,0.00152354,-0.00018266,0.00092724,0.0020945
 4,0.00003378,0.00000065,-0.00004807,-0.00002513,0.00015350,0.00017619,
 -0.00002419,-0.00066922,-0.00139572,-0.00010069,-0.00280287,0.00750489
 ,0.00023803,0.00172864,-0.00378834,-0.00015641,0.00185682,-0.00375511,
 0.00037167,-0.09348257,0.16772253,-0.00842526,0.09458269,-0.00043358,-
 0.00741230,0.00018695,-0.00184229,0.00154546,-0.00008973,0.00105649,0.
 00455940,-0.00017833,0.00261783,0.00310145,-0.00004379,0.00252240,-0.0
 0033734,0.00017993,-0.00015017,0.00048037,-0.00003591,0.00034452,0.000
 39084,0.00000533,-0.00243284,0.00343305,-0.00012130,0.00204261,0.00092
 519,0.00052808,-0.00028591,-0.00064336,-0.00013568,-0.00062300,-0.0014
 0546,-0.00017489,0.12665728,-0.42109816,-0.03067362,-0.14383345,0.4320
 0601,0.00006937,0.00000755,-0.00540081,-0.00009974,0.00002914,-0.00043
 504,0.00004227,0.00021314,0.00043054,-0.00001051,0.00027874,0.00073675
 ,0.00031723,0.00026472,-0.00115191,-0.00002522,0.00004403,0.00025257,0
 .00002565,0.00004738,0.00020627,-0.00019485,0.00022778,0.00054070,-0.0
 0053406,0.00163025,0.00040026,0.00041175,-0.00098135,0.00005208,0.0007
 4053,-0.00086344,-0.00103151,-0.02333745,0.00199346,-0.02740003,0.0119
 8738,0.02713767,0.03380048,0.00016371,0.00093702,-0.00021294,-0.000357
 83,-0.00009635,0.00002651,-0.00002453,0.00021452,0.00000514,0.00015463
 ,0.00028676,-0.00000725,0.00006812,-0.00006146,0.00000948,-0.00001419,
 0.00002234,-0.00000792,0.00003403,0.00003449,-0.00000203,-0.00013254,0
 .00016599,-0.00013074,-0.00076277,0.00206551,0.00005001,0.00064833,-0.
 00118148,-0.00000053,0.00034078,-0.00130676,-0.00000601,-0.20930174,-0
 .15693370,-0.21463894,0.00783471,0.00981395,0.00957210,0.20067907,0.00
 061351,-0.00160957,0.00059774,-0.00000174,0.00007904,0.00007808,0.0000
 0211,0.00002202,-0.00004677,0.00014879,-0.00018511,-0.00004957,-0.0001
 3918,-0.00050487,0.00020172,0.00000299,-0.00001545,-0.00002646,-0.0000
 3460,-0.00003233,-0.00002024,-0.00000362,-0.00012873,-0.00006036,0.001
 19246,-0.00249267,-0.00004435,-0.00083902,0.00154869,-0.00003087,-0.00
 110473,0.00137067,0.00013522,-0.11682492,-0.16063747,-0.15041952,-0.02
 922765,-0.01518896,-0.02986935,0.14747964,0.17771738,-0.00024725,0.000
 49110,0.00004622,-0.00001627,0.00001633,-0.00004668,0.00003288,0.00005
 549,0.00000330,0.00000535,0.00008496,-0.00000033,0.00006858,0.00014915
 ,-0.00008413,0.00000251,0.00001030,0.00002336,0.00000495,0.00001898,0.
 00000851,-0.00001745,-0.00018894,0.00007165,0.00010667,-0.00040630,0.0
 0005365,-0.00016847,0.00030710,0.00004531,-0.00004977,0.00028695,-0.00
 047483,-0.20235851,-0.18359837,-0.22730317,-0.00405590,0.00297420,-0.0
 0177659,0.20741149,0.17914681,0.22921682,0.00192939,-0.00021499,0.0002
 6545,-0.00036313,0.00952512,0.00054052,-0.00183301,-0.00018238,-0.0000
 6976,-0.00018416,0.00136148,-0.00009279,0.00045881,0.00072798,-0.00015
 880,-0.00005914,0.00023928,-0.00000025,-0.00012883,0.00007388,-0.00001
 555,-0.00828128,-0.00305396,-0.00146101,0.00141073,-0.00195434,0.00008
 470,-0.00078359,0.00109724,-0.00003014,-0.00090744,0.00109025,-0.00013
 365,-0.01953807,-0.00817455,-0.00521636,0.00132911,-0.00281516,-0.0002
 3777,-0.00275462,0.00200621,0.00253243,0.52540461,-0.00441260,-0.00033
 074,-0.00012162,0.00815463,-0.01785469,0.00149810,0.00299839,0.0035812
 1,0.00011747,0.00203987,-0.00076674,0.00012917,0.00315016,-0.00283766,
 0.00041957,-0.00006708,0.00015284,-0.00003164,0.00037975,0.00002737,-0
 .00001413,-0.00411964,0.00541645,-0.00447749,-0.00041848,-0.00157892,-
 0.00024213,0.00008349,0.00067179,0.00008588,-0.00002435,0.00098117,0.0
 0007498,-0.00805710,0.00414206,-0.00161519,-0.00200635,-0.00437347,-0.
 00048385,-0.00032827,0.00088655,0.00066118,0.07536517,0.32072874,0.000
 03674,-0.00015051,0.00036067,-0.00072318,0.00295200,0.00343219,-0.0003
 2051,0.00032844,0.00054880,0.00011241,0.00014584,-0.00019510,0.0002052
 7,-0.00010394,0.00013325,0.00000700,0.00005191,-0.00011630,-0.00001003
 ,0.00000536,-0.00019186,-0.00061850,-0.00275187,-0.00792484,0.00014525
 ,-0.00042628,-0.00017716,-0.00009303,0.00021063,0.00005266,-0.00012253
 ,0.00024490,0.00012907,-0.00487283,-0.00022840,0.00461043,0.00016473,-
 0.00095248,-0.00144824,0.00064366,-0.00018462,0.00028214,0.25389576,-0
 .17580714,0.31715467,0.00208110,-0.00098810,-0.00016994,-0.00184906,0.
 00319820,-0.00044710,-0.00039128,-0.00216179,0.00007479,-0.00118883,-0
 .00063935,-0.00000650,-0.00182460,0.00101860,-0.00022575,0.00005361,-0
 .00021704,0.00001271,-0.00013999,-0.00008927,0.00001389,0.00623123,-0.
 00663793,0.00088114,-0.00142541,0.00325202,0.00004868,0.00089563,-0.00
 172330,-0.00001893,0.00112747,-0.00189201,0.00012177,0.00438029,0.0042
 1491,0.00375867,-0.00357003,0.00710583,0.00158233,0.00362163,-0.003024
 54,-0.00349633,-0.32931564,-0.16695790,-0.06616430,0.33540828,0.000666
 13,-0.00088835,0.00003961,0.00024827,-0.00054044,0.00001248,-0.0004946
 2,-0.00072137,0.00004797,-0.00031811,0.00048703,-0.00005718,-0.0001637
 1,0.00068974,-0.00008795,-0.00000738,-0.00001549,0.00000626,-0.0000224
 9,0.00003187,-0.00001126,-0.00366697,-0.00411818,-0.00051316,0.0000622
 4,0.00092734,0.00010489,0.00006616,-0.00043929,-0.00003495,0.00010582,
 -0.00059865,-0.00001842,0.00196403,-0.00878295,-0.00079414,0.00640383,
 0.00400033,0.00022152,-0.00086289,-0.00099630,-0.00004439,-0.20567586,
 -0.15613321,-0.02112369,0.17790762,0.15595693,0.00028366,-0.00019383,-
 0.00044657,-0.00031957,0.00058302,-0.00006198,-0.00016294,-0.00032621,
 -0.00007658,-0.00019785,0.00005378,0.00010209,-0.00023279,0.00026253,-
 0.00028485,0.00000704,-0.00002914,0.00004346,-0.00002966,0.00000379,0.
 00006281,0.00070191,-0.00217968,0.00128965,-0.00014260,0.00046658,0.00
 013484,0.00008839,-0.00022889,-0.00003626,0.00013521,-0.00027369,-0.00
 008801,0.00562374,-0.00194704,-0.00781758,0.00008560,0.00126666,0.0020
 2921,-0.00270933,0.00048699,-0.00006766,-0.03747796,0.00372906,-0.0375
 0047,0.06341853,0.01515475,0.04753208,-0.00037091,-0.00021645,0.000028
 93,0.00099497,-0.00035523,-0.00011398,0.00003921,0.00021983,0.00002194
 ,0.00010908,-0.00006660,-0.00001026,0.00009539,-0.00019422,0.00011344,
 0.00002713,-0.00002181,-0.00000040,0.00001136,-0.00000812,-0.00001239,
 -0.00114834,0.00175152,-0.00014906,-0.00027171,0.00028090,-0.00004711,
 0.00014155,-0.00015864,0.00001474,0.00015030,-0.00014468,0.00003973,-0
 .00122362,-0.00118281,0.00073587,0.00018715,0.00025551,-0.00030902,-0.
 00019678,-0.00024570,0.00024507,-0.16638373,0.09422032,-0.18228590,-0.
 01409439,0.02378793,-0.02907138,0.18193335,-0.00038863,0.00007909,-0.0
 0020085,0.00073062,-0.00285193,-0.00074867,0.00052013,0.00009520,-0.00
 013104,0.00015179,-0.00019352,0.00005468,0.00007685,-0.00017977,0.0000
 6445,-0.00000104,-0.00007510,0.00004960,0.00004436,0.00000059,0.000045
 30,0.00025010,0.00325191,0.00338276,0.00005794,-0.00000435,0.00002650,
 -0.00002258,0.00001143,-0.00000640,-0.00003236,-0.00000246,-0.00001775
 ,-0.00174326,-0.00131346,0.00029566,0.00030846,0.00001695,0.00010261,-
 0.00024930,0.00016710,0.00003545,0.13058462,-0.15271275,0.19778985,-0.
 01236596,0.01114100,-0.01682867,-0.11792174,0.14257007,-0.00017770,0.0
 0004745,-0.00002995,0.00082167,-0.00221639,-0.00011295,0.00029944,-0.0
 0001274,-0.00000062,0.00005660,-0.00015407,0.00001907,0.00007025,-0.00
 011322,-0.00004661,-0.00001356,-0.00000958,0.00004681,0.00003246,-0.00
 001180,0.00002034,-0.00067636,0.00305344,0.00057516,-0.00007825,0.0000
 8829,0.00003616,0.00004200,-0.00005238,-0.00001284,0.00005157,-0.00004
 858,-0.00003023,0.00073003,-0.00006483,-0.00017779,-0.00014676,0.00012
 691,0.00019527,-0.00000270,0.00010555,0.00000242,-0.21242483,0.1760777
 9,-0.27914989,0.00061635,0.00709765,-0.00481418,0.21079980,-0.18391349
 ,0.28347983\\0.00001716,0.00000709,-0.00000046,-0.00004345,-0.00003761
 ,-0.00001294,0.00000852,0.00000286,0.00001182,0.00000173,-0.00000960,-
 0.00001980,-0.00001166,0.00001724,0.00000139,0.00000131,-0.00000244,-0
 .00000655,-0.00000283,-0.00000101,0.00000414,0.00004027,0.00003111,0.0
 0002282,-0.00000586,0.00001167,-0.00001494,0.00000591,-0.00000995,0.00
 001019,0.00000174,-0.00000323,0.00000712,0.00001289,-0.00001583,0.0000
 0124,0.00000278,0.00001146,0.00001001,-0.00000971,-0.00000306,-0.00000
 392,-0.00002000,0.00000660,-0.00000581,-0.00000253,-0.00000077,-0.0000
 0102,0.00000375,-0.00000452,-0.00000330\\\@


 Sacred cows make the best hamburger.
                               -- Mark Twain
 Job cpu time:       0 days  0 hours 50 minutes 22.9 seconds.
 Elapsed time:       0 days  0 hours  2 minutes  6.7 seconds.
 File lengths (MBytes):  RWF=     98 Int=      0 D2E=      0 Chk=      5 Scr=      1
 Normal termination of Gaussian 16 at Fri Jul  7 14:53:44 2023.
