 Entering Gaussian System, Link 0=/home/gau/soft/g16/g16
 Initial command:
 /home/gau/soft/g16/l1.exe "/home/gau/soft/scratch/Gau-50525.inp" -scrdir="/home/gau/soft/scratch/"
 Entering Link 1 = /home/gau/soft/g16/l1.exe PID=     50526.
  
 Copyright (c) 1988-2019, Gaussian, Inc.  All Rights Reserved.
  
 This is part of the Gaussian(R) 16 program.  It is based on
 the Gaussian(R) 09 system (copyright 2009, Gaussian, Inc.),
 the Gaussian(R) 03 system (copyright 2003, Gaussian, Inc.),
 the Gaussian(R) 98 system (copyright 1998, Gaussian, Inc.),
 the Gaussian(R) 94 system (copyright 1995, Gaussian, Inc.),
 the Gaussian 92(TM) system (copyright 1992, Gaussian, Inc.),
 the Gaussian 90(TM) system (copyright 1990, Gaussian, Inc.),
 the Gaussian 88(TM) system (copyright 1988, Gaussian, Inc.),
 the Gaussian 86(TM) system (copyright 1986, Carnegie Mellon
 University), and the Gaussian 82(TM) system (copyright 1983,
 Carnegie Mellon University). Gaussian is a federally registered
 trademark of Gaussian, Inc.
  
 This software contains proprietary and confidential information,
 including trade secrets, belonging to Gaussian, Inc.
  
 This software is provided under written license and may be
 used, copied, transmitted, or stored only in accord with that
 written license.
  
 The following legend is applicable only to US Government
 contracts under FAR:
  
                    RESTRICTED RIGHTS LEGEND
  
 Use, reproduction and disclosure by the US Government is
 subject to restrictions as set forth in subparagraphs (a)
 and (c) of the Commercial Computer Software - Restricted
 Rights clause in FAR 52.227-19.
  
 Gaussian, Inc.
 340 Quinnipiac St., Bldg. 40, Wallingford CT 06492
  
  
 ---------------------------------------------------------------
 Warning -- This program may not be used in any manner that
 competes with the business of Gaussian, Inc. or will provide
 assistance to any competitor of Gaussian, Inc.  The licensee
 of this program is prohibited from giving any competitor of
 Gaussian, Inc. access to this program.  By using this program,
 the user acknowledges that Gaussian, Inc. is engaged in the
 business of creating and licensing software in the field of
 computational chemistry and represents and warrants to the
 licensee that it is not a competitor of Gaussian, Inc. and that
 it will not use this program in any manner prohibited above.
 ---------------------------------------------------------------
  

 Cite this work as:
 Gaussian 16, Revision C.01,
 M. J. Frisch, G. W. Trucks, H. B. Schlegel, G. E. Scuseria, 
 M. A. Robb, J. R. Cheeseman, G. Scalmani, V. Barone, 
 G. A. Petersson, H. Nakatsuji, X. Li, M. Caricato, A. V. Marenich, 
 J. Bloino, B. G. Janesko, R. Gomperts, B. Mennucci, H. P. Hratchian, 
 J. V. Ortiz, A. F. Izmaylov, J. L. Sonnenberg, D. Williams-Young, 
 F. Ding, F. Lipparini, F. Egidi, J. Goings, B. Peng, A. Petrone, 
 T. Henderson, D. Ranasinghe, V. G. Zakrzewski, J. Gao, N. Rega, 
 G. Zheng, W. Liang, M. Hada, M. Ehara, K. Toyota, R. Fukuda, 
 J. Hasegawa, M. Ishida, T. Nakajima, Y. Honda, O. Kitao, H. Nakai, 
 T. Vreven, K. Throssell, J. A. Montgomery, Jr., J. E. Peralta, 
 F. Ogliaro, M. J. Bearpark, J. J. Heyd, E. N. Brothers, K. N. Kudin, 
 V. N. Staroverov, T. A. Keith, R. Kobayashi, J. Normand, 
 K. Raghavachari, A. P. Rendell, J. C. Burant, S. S. Iyengar, 
 J. Tomasi, M. Cossi, J. M. Millam, M. Klene, C. Adamo, R. Cammi, 
 J. W. Ochterski, R. L. Martin, K. Morokuma, O. Farkas, 
 J. B. Foresman, and D. J. Fox, Gaussian, Inc., Wallingford CT, 2019.
 
 ******************************************
 Gaussian 16:  ES64L-G16RevC.01  3-Jul-2019
                 7-Dec-2023 
 ******************************************
 %mem=10GB
 %nprocshared=48
 Will use up to   48 processors via shared memory.
 ----------------------------------------------------------------------
 # opt=(calcfc,ts,noeigentest) freq 6-31+g(d,p) integral=grid=ultrafine
  m062x
 ----------------------------------------------------------------------
 1/5=1,10=4,11=1,18=20,26=4,38=1/1,3;
 2/9=110,12=2,17=6,18=5,40=1/2;
 3/5=1,6=6,7=111,11=2,25=1,30=1,71=2,74=-55,75=-5,140=1/1,2,3;
 4//1;
 5/5=2,38=5/2;
 8/6=4,10=90,11=11/1;
 11/6=1,8=1,9=11,15=111,16=1/1,2,10;
 10/6=1,13=1/2;
 6/7=2,8=2,9=2,10=2,28=1/1;
 7/10=1,25=1/1,2,3,16;
 1/5=1,10=4,11=1,18=20,26=4/3(2);
 2/9=110/2;
 99//99;
 2/9=110/2;
 3/5=1,6=6,7=111,11=2,25=1,30=1,71=1,74=-55,75=-5/1,2,3;
 4/5=5,16=3,69=1/1;
 5/5=2,38=5/2;
 7//1,2,3,16;
 1/5=1,11=1,18=20,26=4/3(-5);
 2/9=110/2;
 6/7=2,8=2,9=2,10=2,19=2,28=1/1;
 99/9=1/99;
 --
 TS
 --
 Symbolic Z-matrix:
 Charge = -1 Multiplicity = 2
 N                    -0.30021  -0.39855  -0.01505 
 N                    -0.47042   0.95594   0.27703 
 C                    -1.82361   1.15821   0.152 
 C                    -2.40511  -0.06522  -0.09927 
 N                    -1.49288  -1.0532   -0.18822 
 H                    -2.25358   2.13882   0.28186 
 H                    -3.45546  -0.29441  -0.21519 
 H                     1.83909   0.73126   0.80239 
 C                     0.93755  -1.05884   0.0451 
 O                     1.98503  -0.27333   0.17571 
 O                     0.98792  -2.27582  -0.021 
 O                     1.58158   1.72157   1.41447 
 H                     0.51438   1.54339   0.85384 
 H                     1.72194   1.93832   2.34131 
 
 Add virtual bond connecting atoms O12        and H8         Dist= 2.25D+00.
 Add virtual bond connecting atoms O10        and H8         Dist= 2.25D+00.
 Add virtual bond connecting atoms H13        and N2         Dist= 2.43D+00.
 Add virtual bond connecting atoms H13        and O12        Dist= 2.30D+00.

 GradGradGradGradGradGradGradGradGradGradGradGradGradGradGradGradGradGrad
 Berny optimization.
 Initialization pass.
                           ----------------------------
                           !    Initial Parameters    !
                           ! (Angstroms and Degrees)  !
 --------------------------                            --------------------------
 ! Name  Definition              Value          Derivative Info.                !
 --------------------------------------------------------------------------------
 ! R1    R(1,2)                  1.396          calculate D2E/DX2 analytically  !
 ! R2    R(1,5)                  1.3715         calculate D2E/DX2 analytically  !
 ! R3    R(1,9)                  1.4041         calculate D2E/DX2 analytically  !
 ! R4    R(2,3)                  1.3739         calculate D2E/DX2 analytically  !
 ! R5    R(2,13)                 1.2836         calculate D2E/DX2 analytically  !
 ! R6    R(3,4)                  1.3777         calculate D2E/DX2 analytically  !
 ! R7    R(3,6)                  1.0786         calculate D2E/DX2 analytically  !
 ! R8    R(4,5)                  1.3477         calculate D2E/DX2 analytically  !
 ! R9    R(4,7)                  1.0813         calculate D2E/DX2 analytically  !
 ! R10   R(8,10)                 1.193          calculate D2E/DX2 analytically  !
 ! R11   R(8,12)                 1.1923         calculate D2E/DX2 analytically  !
 ! R12   R(9,10)                 1.3158         calculate D2E/DX2 analytically  !
 ! R13   R(9,11)                 1.2198         calculate D2E/DX2 analytically  !
 ! R14   R(12,13)                1.2186         calculate D2E/DX2 analytically  !
 ! R15   R(12,14)                0.9621         calculate D2E/DX2 analytically  !
 ! A1    A(2,1,5)              112.5509         calculate D2E/DX2 analytically  !
 ! A2    A(2,1,9)              123.6945         calculate D2E/DX2 analytically  !
 ! A3    A(5,1,9)              123.1962         calculate D2E/DX2 analytically  !
 ! A4    A(1,2,3)              104.1163         calculate D2E/DX2 analytically  !
 ! A5    A(1,2,13)             116.392          calculate D2E/DX2 analytically  !
 ! A6    A(3,2,13)             136.8151         calculate D2E/DX2 analytically  !
 ! A7    A(2,3,4)              107.552          calculate D2E/DX2 analytically  !
 ! A8    A(2,3,6)              121.033          calculate D2E/DX2 analytically  !
 ! A9    A(4,3,6)              131.3801         calculate D2E/DX2 analytically  !
 ! A10   A(3,4,5)              112.1691         calculate D2E/DX2 analytically  !
 ! A11   A(3,4,7)              128.1544         calculate D2E/DX2 analytically  !
 ! A12   A(5,4,7)              119.674          calculate D2E/DX2 analytically  !
 ! A13   A(1,5,4)              103.3195         calculate D2E/DX2 analytically  !
 ! A14   A(1,9,10)             115.1678         calculate D2E/DX2 analytically  !
 ! A15   A(1,9,11)             120.2139         calculate D2E/DX2 analytically  !
 ! A16   A(10,9,11)            124.6183         calculate D2E/DX2 analytically  !
 ! A17   A(8,10,9)             117.2238         calculate D2E/DX2 analytically  !
 ! A18   A(8,12,13)             80.3008         calculate D2E/DX2 analytically  !
 ! A19   A(8,12,14)            130.5504         calculate D2E/DX2 analytically  !
 ! A20   A(13,12,14)           127.1483         calculate D2E/DX2 analytically  !
 ! A21   A(2,13,12)            161.0063         calculate D2E/DX2 analytically  !
 ! A22   L(10,8,12,2,-1)       174.6566         calculate D2E/DX2 analytically  !
 ! A23   L(10,8,12,2,-2)       178.9136         calculate D2E/DX2 analytically  !
 ! D1    D(5,1,2,3)             -5.6922         calculate D2E/DX2 analytically  !
 ! D2    D(5,1,2,13)           158.9148         calculate D2E/DX2 analytically  !
 ! D3    D(9,1,2,3)           -177.3503         calculate D2E/DX2 analytically  !
 ! D4    D(9,1,2,13)           -12.7433         calculate D2E/DX2 analytically  !
 ! D5    D(2,1,5,4)              4.4556         calculate D2E/DX2 analytically  !
 ! D6    D(9,1,5,4)            176.1618         calculate D2E/DX2 analytically  !
 ! D7    D(2,1,9,10)           -11.1347         calculate D2E/DX2 analytically  !
 ! D8    D(2,1,9,11)           168.7556         calculate D2E/DX2 analytically  !
 ! D9    D(5,1,9,10)           178.079          calculate D2E/DX2 analytically  !
 ! D10   D(5,1,9,11)            -2.0306         calculate D2E/DX2 analytically  !
 ! D11   D(1,2,3,4)              4.4723         calculate D2E/DX2 analytically  !
 ! D12   D(1,2,3,6)           -177.4432         calculate D2E/DX2 analytically  !
 ! D13   D(13,2,3,4)          -155.197          calculate D2E/DX2 analytically  !
 ! D14   D(13,2,3,6)            22.8876         calculate D2E/DX2 analytically  !
 ! D15   D(1,2,13,12)           -7.6237         calculate D2E/DX2 analytically  !
 ! D16   D(3,2,13,12)          150.2808         calculate D2E/DX2 analytically  !
 ! D17   D(2,3,4,5)             -2.0235         calculate D2E/DX2 analytically  !
 ! D18   D(2,3,4,7)            177.3946         calculate D2E/DX2 analytically  !
 ! D19   D(6,3,4,5)           -179.8359         calculate D2E/DX2 analytically  !
 ! D20   D(6,3,4,7)             -0.4179         calculate D2E/DX2 analytically  !
 ! D21   D(3,4,5,1)             -1.4347         calculate D2E/DX2 analytically  !
 ! D22   D(7,4,5,1)            179.092          calculate D2E/DX2 analytically  !
 ! D23   D(9,10,12,13)         -33.4235         calculate D2E/DX2 analytically  !
 ! D24   D(9,10,12,14)          95.8553         calculate D2E/DX2 analytically  !
 ! D25   D(1,9,10,8)            32.8832         calculate D2E/DX2 analytically  !
 ! D26   D(11,9,10,8)         -147.0017         calculate D2E/DX2 analytically  !
 ! D27   D(8,12,13,2)           27.0194         calculate D2E/DX2 analytically  !
 ! D28   D(14,12,13,2)        -107.2446         calculate D2E/DX2 analytically  !
 --------------------------------------------------------------------------------
 Trust Radius=3.00D-01 FncErr=1.00D-07 GrdErr=1.00D-06 EigMax=2.50D+02 EigMin=1.00D-04
 Number of steps in this run=     76 maximum allowed number of steps=    100.
 Search for a saddle point of order  1.
 GradGradGradGradGradGradGradGradGradGradGradGradGradGradGradGradGradGrad

                          Input orientation:                          
 ---------------------------------------------------------------------
 Center     Atomic      Atomic             Coordinates (Angstroms)
 Number     Number       Type             X           Y           Z
 ---------------------------------------------------------------------
      1          7           0       -0.300205   -0.398546   -0.015051
      2          7           0       -0.470419    0.955936    0.277031
      3          6           0       -1.823605    1.158212    0.152004
      4          6           0       -2.405112   -0.065219   -0.099266
      5          7           0       -1.492878   -1.053195   -0.188217
      6          1           0       -2.253584    2.138823    0.281860
      7          1           0       -3.455463   -0.294412   -0.215194
      8          1           0        1.839090    0.731257    0.802389
      9          6           0        0.937547   -1.058839    0.045096
     10          8           0        1.985030   -0.273331    0.175711
     11          8           0        0.987915   -2.275816   -0.021000
     12          8           0        1.581581    1.721568    1.414471
     13          1           0        0.514381    1.543387    0.853843
     14          1           0        1.721939    1.938323    2.341311
 ---------------------------------------------------------------------
                    Distance matrix (angstroms):
                    1          2          3          4          5
     1  N    0.000000
     2  N    1.396032   0.000000
     3  C    2.184525   1.373921   0.000000
     4  C    2.132799   2.219773   1.377705   0.000000
     5  N    1.371503   2.301844   2.261736   1.347657   0.000000
     6  H    3.215912   2.139842   1.078584   2.241878   3.314909
     7  H    3.163314   3.273552   2.215381   1.081298   2.104333
     8  H    2.553673   2.379142   3.744413   4.411418   3.907375
     9  C    1.404149   2.468903   3.542697   3.490199   2.441604
    10  O    2.296599   2.747834   4.068855   4.403665   3.582803
    11  O    2.276715   3.558059   4.441523   4.050370   2.770758
    12  O    3.174828   2.467927   3.675116   4.623605   4.440744
    13  H    2.278076   1.283605   2.471258   3.466910   3.443430
    14  H    3.886189   3.167455   4.239401   5.196455   5.067814
                    6          7          8          9         10
     6  H    0.000000
     7  H    2.759023   0.000000
     8  H    4.359149   5.488148   0.000000
     9  C    4.523761   4.466614   2.142595   0.000000
    10  O    4.878074   5.454559   1.192988   1.315790   0.000000
    11  O    5.485260   4.869012   3.231866   1.219811   2.245636
    12  O    4.020621   5.664961   1.192338   3.165537   2.382628
    13  H    2.888484   4.503332   1.554689   2.757666   2.433749
    14  H    4.481777   6.190825   1.959340   3.856274   3.106517
                   11         12         13         14
    11  O    0.000000
    12  O    4.288600   0.000000
    13  H    3.946631   1.218592   0.000000
    14  H    4.886539   0.962141   1.956203   0.000000
 Stoichiometry    C3H5N3O3(1-,2)
 Framework group  C1[X(C3H5N3O3)]
 Deg. of freedom    36
 Full point group                 C1      NOp   1
 Largest Abelian subgroup         C1      NOp   1
 Largest concise Abelian subgroup C1      NOp   1
                         Standard orientation:                         
 ---------------------------------------------------------------------
 Center     Atomic      Atomic             Coordinates (Angstroms)
 Number     Number       Type             X           Y           Z
 ---------------------------------------------------------------------
      1          7           0       -0.321173   -0.403498   -0.102179
      2          7           0       -0.483798    0.979077   -0.206807
      3          6           0       -1.843710    1.162608   -0.138866
      4          6           0       -2.417395   -0.066779    0.101058
      5          7           0       -1.501722   -1.054353    0.150235
      6          1           0       -2.277670    2.145327   -0.235215
      7          1           0       -3.462744   -0.297975    0.252718
      8          1           0        1.888975    0.875279   -0.067201
      9          6           0        0.929748   -1.040597   -0.071577
     10          8           0        1.955303   -0.274892   -0.376922
     11          8           0        1.010294   -2.221106    0.224815
     12          8           0        1.710842    2.009792    0.253454
     13          1           0        0.567258    1.692716   -0.023392
     14          1           0        2.007661    2.494337    1.029876
 ---------------------------------------------------------------------
 Rotational constants (GHZ):           2.2344870           1.6090927           0.9594161
 Standard basis: 6-31+G(d,p) (6D, 7F)
 There are   196 symmetry adapted cartesian basis functions of A   symmetry.
 There are   196 symmetry adapted basis functions of A   symmetry.
   196 basis functions,   323 primitive gaussians,   196 cartesian basis functions
    35 alpha electrons       34 beta electrons
       nuclear repulsion energy       461.5995762966 Hartrees.
 NAtoms=   14 NActive=   14 NUniq=   14 SFac= 1.00D+00 NAtFMM=   60 NAOKFM=F Big=F
 Integral buffers will be    131072 words long.
 Raffenetti 2 integral format.
 Two-electron integral symmetry is turned on.
 One-electron integrals computed using PRISM.
 NBasis=   196 RedAO= T EigKep=  2.91D-05  NBF=   196
 NBsUse=   196 1.00D-06 EigRej= -1.00D+00 NBFU=   196
 ExpMin= 4.38D-02 ExpMax= 5.48D+03 ExpMxC= 8.25D+02 IAcc=3 IRadAn=         5 AccDes= 0.00D+00
 Harris functional with IExCor= 1009 and IRadAn=       5 diagonalized for initial guess.
 HarFok:  IExCor= 1009 AccDes= 0.00D+00 IRadAn=         5 IDoV= 1 UseB2=F ITyADJ=14
 ICtDFT=  3500011 ScaDFX=  1.000000  1.000000  1.000000  1.000000
 FoFCou: FMM=F IPFlag=           0 FMFlag=      100000 FMFlg1=           0
         NFxFlg=           0 DoJE=T BraDBF=F KetDBF=T FulRan=T
         wScrn=  0.000000 ICntrl=       500 IOpCl=  0 I1Cent=   200000004 NGrid=           0
         NMat0=    1 NMatS0=      1 NMatT0=    0 NMatD0=    1 NMtDS0=    0 NMtDT0=    0
 Petite list used in FoFCou.
 Initial guess <Sx>= 0.0000 <Sy>= 0.0000 <Sz>= 0.5000 <S**2>= 0.7500 S= 0.5000
 Requested convergence on RMS density matrix=1.00D-08 within 128 cycles.
 Requested convergence on MAX density matrix=1.00D-06.
 Requested convergence on             energy=1.00D-06.
 No special actions if energy rises.
 SCF Done:  E(UM062X) =  -507.056752172     A.U. after   18 cycles
            NFock= 18  Conv=0.52D-08     -V/T= 2.0082
 <Sx>= 0.0000 <Sy>= 0.0000 <Sz>= 0.5000 <S**2>= 0.7650 S= 0.5075
 <L.S>=  0.00000000000    
 Annihilation of the first spin contaminant:
 S**2 before annihilation     0.7650,   after     0.7501
 DoSCS=F DFT=T ScalE2(SS,OS)=  1.000000  1.000000
 Range of M.O.s used for correlation:     1   196
 NBasis=   196 NAE=    35 NBE=    34 NFC=     0 NFV=     0
 NROrb=    196 NOA=    35 NOB=    34 NVA=   161 NVB=   162

 **** Warning!!: The largest alpha MO coefficient is  0.52717555D+02


 **** Warning!!: The largest beta MO coefficient is  0.58976551D+02

 Symmetrizing basis deriv contribution to polar:
 IMax=3 JMax=2 DiffMx= 0.00D+00
 G2DrvN: will do    15 centers at a time, making    1 passes.
 Calling FoFCou, ICntrl=  3107 FMM=F I1Cent=   0 AccDes= 0.00D+00.
 End of G2Drv F.D. properties file   721 does not exist.
 End of G2Drv F.D. properties file   722 does not exist.
 End of G2Drv F.D. properties file   788 does not exist.
          IDoAtm=11111111111111
          Differentiating once with respect to nuclear coordinates.
 Keep R1 and R2 ints in memory in canonical form, NReq=421874389.
          There are    45 degrees of freedom in the 1st order CPHF.  IDoFFX=6 NUNeed=     0.
     39 vectors produced by pass  0 Test12= 2.48D-14 2.22D-09 XBig12= 2.91D-01 1.23D-01.
 AX will form    39 AO Fock derivatives at one time.
     39 vectors produced by pass  1 Test12= 2.48D-14 2.22D-09 XBig12= 4.97D-02 5.96D-02.
     39 vectors produced by pass  2 Test12= 2.48D-14 2.22D-09 XBig12= 2.52D-03 1.01D-02.
     39 vectors produced by pass  3 Test12= 2.48D-14 2.22D-09 XBig12= 4.98D-05 1.07D-03.
     39 vectors produced by pass  4 Test12= 2.48D-14 2.22D-09 XBig12= 6.32D-07 1.23D-04.
     39 vectors produced by pass  5 Test12= 2.48D-14 2.22D-09 XBig12= 5.74D-09 7.15D-06.
     39 vectors produced by pass  6 Test12= 2.48D-14 2.22D-09 XBig12= 5.71D-11 6.96D-07.
     31 vectors produced by pass  7 Test12= 2.48D-14 2.22D-09 XBig12= 5.16D-13 6.03D-08.
      8 vectors produced by pass  8 Test12= 2.48D-14 2.22D-09 XBig12= 4.23D-15 6.00D-09.
 InvSVY:  IOpt=1 It=  1 EMax= 2.00D-15
 Solved reduced A of dimension   312 with    39 vectors.
 End of Minotr F.D. properties file   721 does not exist.
 End of Minotr F.D. properties file   722 does not exist.
 End of Minotr F.D. properties file   788 does not exist.

 **********************************************************************

            Population analysis using the SCF Density.

 **********************************************************************

 Orbital symmetries:
 Alpha Orbitals:
       Occupied  (A) (A) (A) (A) (A) (A) (A) (A) (A) (A) (A) (A)
                 (A) (A) (A) (A) (A) (A) (A) (A) (A) (A) (A) (A)
                 (A) (A) (A) (A) (A) (A) (A) (A) (A) (A) (A)
       Virtual   (A) (A) (A) (A) (A) (A) (A) (A) (A) (A) (A) (A)
                 (A) (A) (A) (A) (A) (A) (A) (A) (A) (A) (A) (A)
                 (A) (A) (A) (A) (A) (A) (A) (A) (A) (A) (A) (A)
                 (A) (A) (A) (A) (A) (A) (A) (A) (A) (A) (A) (A)
                 (A) (A) (A) (A) (A) (A) (A) (A) (A) (A) (A) (A)
                 (A) (A) (A) (A) (A) (A) (A) (A) (A) (A) (A) (A)
                 (A) (A) (A) (A) (A) (A) (A) (A) (A) (A) (A) (A)
                 (A) (A) (A) (A) (A) (A) (A) (A) (A) (A) (A) (A)
                 (A) (A) (A) (A) (A) (A) (A) (A) (A) (A) (A) (A)
                 (A) (A) (A) (A) (A) (A) (A) (A) (A) (A) (A) (A)
                 (A) (A) (A) (A) (A) (A) (A) (A) (A) (A) (A) (A)
                 (A) (A) (A) (A) (A) (A) (A) (A) (A) (A) (A) (A)
                 (A) (A) (A) (A) (A) (A) (A) (A) (A) (A) (A) (A)
                 (A) (A) (A) (A) (A)
 Beta  Orbitals:
       Occupied  (A) (A) (A) (A) (A) (A) (A) (A) (A) (A) (A) (A)
                 (A) (A) (A) (A) (A) (A) (A) (A) (A) (A) (A) (A)
                 (A) (A) (A) (A) (A) (A) (A) (A) (A) (A)
       Virtual   (A) (A) (A) (A) (A) (A) (A) (A) (A) (A) (A) (A)
                 (A) (A) (A) (A) (A) (A) (A) (A) (A) (A) (A) (A)
                 (A) (A) (A) (A) (A) (A) (A) (A) (A) (A) (A) (A)
                 (A) (A) (A) (A) (A) (A) (A) (A) (A) (A) (A) (A)
                 (A) (A) (A) (A) (A) (A) (A) (A) (A) (A) (A) (A)
                 (A) (A) (A) (A) (A) (A) (A) (A) (A) (A) (A) (A)
                 (A) (A) (A) (A) (A) (A) (A) (A) (A) (A) (A) (A)
                 (A) (A) (A) (A) (A) (A) (A) (A) (A) (A) (A) (A)
                 (A) (A) (A) (A) (A) (A) (A) (A) (A) (A) (A) (A)
                 (A) (A) (A) (A) (A) (A) (A) (A) (A) (A) (A) (A)
                 (A) (A) (A) (A) (A) (A) (A) (A) (A) (A) (A) (A)
                 (A) (A) (A) (A) (A) (A) (A) (A) (A) (A) (A) (A)
                 (A) (A) (A) (A) (A) (A) (A) (A) (A) (A) (A) (A)
                 (A) (A) (A) (A) (A) (A)
 The electronic state is 2-A.
 Alpha  occ. eigenvalues --  -19.49863 -19.46492 -19.43831 -14.69185 -14.64302
 Alpha  occ. eigenvalues --  -14.61669 -10.52341 -10.42819 -10.42264  -1.05633
 Alpha  occ. eigenvalues --   -1.00069  -0.98193  -0.92736  -0.82370  -0.77433
 Alpha  occ. eigenvalues --   -0.60284  -0.54802  -0.52880  -0.49869  -0.42167
 Alpha  occ. eigenvalues --   -0.40699  -0.40182  -0.37062  -0.35287  -0.32872
 Alpha  occ. eigenvalues --   -0.32041  -0.28881  -0.25060  -0.22079  -0.21685
 Alpha  occ. eigenvalues --   -0.20977  -0.19560  -0.18333  -0.17151  -0.00596
 Alpha virt. eigenvalues --    0.13039   0.13947   0.16409   0.17997   0.19021
 Alpha virt. eigenvalues --    0.19095   0.19334   0.20737   0.21748   0.22113
 Alpha virt. eigenvalues --    0.23417   0.25114   0.26124   0.27434   0.27601
 Alpha virt. eigenvalues --    0.30737   0.32444   0.33615   0.34306   0.35087
 Alpha virt. eigenvalues --    0.35379   0.36664   0.37071   0.37495   0.37960
 Alpha virt. eigenvalues --    0.39433   0.39882   0.41068   0.41633   0.43014
 Alpha virt. eigenvalues --    0.44193   0.44541   0.45456   0.46213   0.46280
 Alpha virt. eigenvalues --    0.47228   0.48158   0.49719   0.50464   0.50850
 Alpha virt. eigenvalues --    0.51113   0.52005   0.54787   0.55883   0.58660
 Alpha virt. eigenvalues --    0.59462   0.62229   0.62576   0.68575   0.70487
 Alpha virt. eigenvalues --    0.81080   0.85756   0.88623   0.92119   0.98456
 Alpha virt. eigenvalues --    0.98558   1.02458   1.04655   1.05963   1.07746
 Alpha virt. eigenvalues --    1.10696   1.12114   1.14093   1.15663   1.16486
 Alpha virt. eigenvalues --    1.17982   1.19831   1.23255   1.24282   1.26207
 Alpha virt. eigenvalues --    1.31143   1.32634   1.33600   1.36252   1.41495
 Alpha virt. eigenvalues --    1.42255   1.45068   1.45723   1.48238   1.48919
 Alpha virt. eigenvalues --    1.50193   1.52680   1.54213   1.54752   1.55572
 Alpha virt. eigenvalues --    1.57365   1.58985   1.60080   1.62408   1.63227
 Alpha virt. eigenvalues --    1.66074   1.69323   1.70973   1.75459   1.77782
 Alpha virt. eigenvalues --    1.79659   1.82991   1.85228   1.86699   1.98298
 Alpha virt. eigenvalues --    1.99850   2.01415   2.03591   2.05907   2.06692
 Alpha virt. eigenvalues --    2.10736   2.15453   2.16113   2.18241   2.18883
 Alpha virt. eigenvalues --    2.19906   2.24392   2.30092   2.32522   2.34294
 Alpha virt. eigenvalues --    2.38651   2.40301   2.43032   2.44309   2.47895
 Alpha virt. eigenvalues --    2.49344   2.55931   2.59101   2.61611   2.65481
 Alpha virt. eigenvalues --    2.68134   2.68764   2.72099   2.73406   2.79453
 Alpha virt. eigenvalues --    2.82173   2.85468   2.86471   2.92636   2.94386
 Alpha virt. eigenvalues --    2.96416   3.00197   3.03489   3.05524   3.08792
 Alpha virt. eigenvalues --    3.14144   3.19251   3.26612   3.33014   3.35217
 Alpha virt. eigenvalues --    3.41561   3.44468   3.48821   3.66784   3.76958
 Alpha virt. eigenvalues --    3.90723   3.99350   4.24213   4.41631   4.47453
 Alpha virt. eigenvalues --    4.57445   4.58881   4.71601   4.75276   4.86586
 Alpha virt. eigenvalues --    4.95779
  Beta  occ. eigenvalues --  -19.49856 -19.46459 -19.43684 -14.68898 -14.63783
  Beta  occ. eigenvalues --  -14.61158 -10.52325 -10.42710 -10.42338  -1.04865
  Beta  occ. eigenvalues --   -0.99373  -0.98078  -0.92477  -0.80708  -0.76547
  Beta  occ. eigenvalues --   -0.59319  -0.54422  -0.52574  -0.49073  -0.41850
  Beta  occ. eigenvalues --   -0.39807  -0.38450  -0.36586  -0.34982  -0.32550
  Beta  occ. eigenvalues --   -0.30853  -0.28493  -0.24335  -0.21831  -0.19984
  Beta  occ. eigenvalues --   -0.18719  -0.17033  -0.16420  -0.15757
  Beta virt. eigenvalues --    0.12347   0.13796   0.14999   0.15951   0.17229
  Beta virt. eigenvalues --    0.18493   0.18774   0.19196   0.20044   0.20725
  Beta virt. eigenvalues --    0.21922   0.23252   0.24103   0.26279   0.26764
  Beta virt. eigenvalues --    0.29214   0.30722   0.32357   0.33515   0.34322
  Beta virt. eigenvalues --    0.35213   0.35360   0.36478   0.37060   0.37279
  Beta virt. eigenvalues --    0.37872   0.39623   0.39851   0.41003   0.41703
  Beta virt. eigenvalues --    0.42864   0.44095   0.44415   0.45410   0.46143
  Beta virt. eigenvalues --    0.46373   0.47430   0.47954   0.49365   0.50208
  Beta virt. eigenvalues --    0.50659   0.51181   0.52044   0.54513   0.55680
  Beta virt. eigenvalues --    0.58694   0.59580   0.62286   0.62735   0.68844
  Beta virt. eigenvalues --    0.70618   0.81390   0.85978   0.88424   0.92581
  Beta virt. eigenvalues --    0.98660   0.98692   1.02658   1.04718   1.06059
  Beta virt. eigenvalues --    1.08066   1.10744   1.13055   1.15195   1.16475
  Beta virt. eigenvalues --    1.17022   1.19279   1.20877   1.23485   1.24560
  Beta virt. eigenvalues --    1.26385   1.31319   1.32760   1.33692   1.36406
  Beta virt. eigenvalues --    1.41754   1.42455   1.45199   1.45942   1.48632
  Beta virt. eigenvalues --    1.49216   1.50511   1.52919   1.54514   1.55003
  Beta virt. eigenvalues --    1.55805   1.57832   1.59285   1.60695   1.62937
  Beta virt. eigenvalues --    1.63551   1.66458   1.69847   1.71233   1.75831
  Beta virt. eigenvalues --    1.77987   1.79867   1.83393   1.85283   1.87000
  Beta virt. eigenvalues --    1.98441   2.00073   2.01735   2.03751   2.06129
  Beta virt. eigenvalues --    2.06938   2.11032   2.15750   2.16298   2.18456
  Beta virt. eigenvalues --    2.19341   2.20190   2.24857   2.30422   2.32856
  Beta virt. eigenvalues --    2.34496   2.39564   2.40669   2.43455   2.44516
  Beta virt. eigenvalues --    2.48304   2.49740   2.56337   2.59348   2.61943
  Beta virt. eigenvalues --    2.65892   2.68446   2.69050   2.72406   2.73697
  Beta virt. eigenvalues --    2.79931   2.82491   2.85823   2.86858   2.92964
  Beta virt. eigenvalues --    2.94778   2.96462   3.00488   3.03736   3.05959
  Beta virt. eigenvalues --    3.08959   3.14858   3.19539   3.26975   3.33167
  Beta virt. eigenvalues --    3.35400   3.41797   3.44833   3.48932   3.66773
  Beta virt. eigenvalues --    3.76881   3.90901   3.99374   4.24387   4.41631
  Beta virt. eigenvalues --    4.47406   4.57448   4.59152   4.71665   4.75557
  Beta virt. eigenvalues --    4.86978   4.95765
          Condensed to atoms (all electrons):
               1          2          3          4          5          6
     1  N    8.101408  -0.427918   0.157909  -0.015062  -0.400608   0.002620
     2  N   -0.427918   8.192760  -0.187690   0.131582  -0.376766  -0.048545
     3  C    0.157909  -0.187690   6.013224  -0.124112   0.063875   0.383789
     4  C   -0.015062   0.131582  -0.124112   5.827019  -0.022642  -0.011988
     5  N   -0.400608  -0.376766   0.063875  -0.022642   8.003025   0.000299
     6  H    0.002620  -0.048545   0.383789  -0.011988   0.000299   0.544541
     7  H   -0.014297  -0.001778  -0.024561   0.387616  -0.040399   0.000320
     8  H   -0.020116   0.033263   0.004769  -0.001111  -0.001515   0.000010
     9  C    0.044112   0.029910  -0.026733  -0.002216   0.002948   0.000216
    10  O   -0.119916  -0.020776   0.008404  -0.013697   0.005725  -0.000036
    11  O   -0.140097   0.002638   0.007529  -0.016183  -0.008978   0.000035
    12  O    0.022434  -0.175597  -0.013023   0.010360  -0.004696  -0.000189
    13  H    0.016731   0.169916   0.000398  -0.003955   0.008666  -0.000288
    14  H    0.000339   0.005585   0.004227  -0.001447   0.000334  -0.000006
               7          8          9         10         11         12
     1  N   -0.014297  -0.020116   0.044112  -0.119916  -0.140097   0.022434
     2  N   -0.001778   0.033263   0.029910  -0.020776   0.002638  -0.175597
     3  C   -0.024561   0.004769  -0.026733   0.008404   0.007529  -0.013023
     4  C    0.387616  -0.001111  -0.002216  -0.013697  -0.016183   0.010360
     5  N   -0.040399  -0.001515   0.002948   0.005725  -0.008978  -0.004696
     6  H    0.000320   0.000010   0.000216  -0.000036   0.000035  -0.000189
     7  H    0.571347  -0.000000   0.001116  -0.000031  -0.000021   0.000040
     8  H   -0.000000   0.250735  -0.005428   0.168757   0.003819   0.048085
     9  C    0.001116  -0.005428   4.489187   0.287950   0.499082   0.004825
    10  O   -0.000031   0.168757   0.287950   8.554141  -0.111345  -0.112244
    11  O   -0.000021   0.003819   0.499082  -0.111345   8.315097  -0.005074
    12  O    0.000040   0.048085   0.004825  -0.112244  -0.005074   8.834292
    13  H   -0.000045   0.000050   0.001117   0.003981   0.001255   0.057484
    14  H   -0.000000  -0.003962   0.000060   0.004378   0.000247   0.262612
              13         14
     1  N    0.016731   0.000339
     2  N    0.169916   0.005585
     3  C    0.000398   0.004227
     4  C   -0.003955  -0.001447
     5  N    0.008666   0.000334
     6  H   -0.000288  -0.000006
     7  H   -0.000045  -0.000000
     8  H    0.000050  -0.003962
     9  C    0.001117   0.000060
    10  O    0.003981   0.004378
    11  O    0.001255   0.000247
    12  O    0.057484   0.262612
    13  H    0.259598  -0.006092
    14  H   -0.006092   0.363158
          Atomic-Atomic Spin Densities.
               1          2          3          4          5          6
     1  N    0.533923  -0.419985   0.169239   0.019458  -0.265748  -0.000572
     2  N   -0.419985   0.952105  -0.331778  -0.027755   0.149428   0.001780
     3  C    0.169239  -0.331778   0.380672   0.108882  -0.113619  -0.006422
     4  C    0.019458  -0.027755   0.108882  -0.114876  -0.092626   0.006698
     5  N   -0.265748   0.149428  -0.113619  -0.092626   0.717180  -0.000181
     6  H   -0.000572   0.001780  -0.006422   0.006698  -0.000181  -0.010270
     7  H    0.001910   0.001209   0.001004   0.001219  -0.004332   0.000023
     8  H   -0.002052   0.002398  -0.000666   0.000072   0.000721  -0.000000
     9  C    0.060323  -0.004692  -0.007641   0.002520  -0.008206  -0.000127
    10  O   -0.022413   0.016105  -0.003308  -0.000809   0.004600   0.000016
    11  O   -0.022459   0.002714  -0.002581  -0.001272   0.012472  -0.000002
    12  O    0.037417  -0.050630   0.018443  -0.005124  -0.003671  -0.000048
    13  H   -0.014110   0.013744  -0.007414   0.003702   0.000093   0.000083
    14  H    0.000375  -0.001650   0.000357   0.000067  -0.000089   0.000001
               7          8          9         10         11         12
     1  N    0.001910  -0.002052   0.060323  -0.022413  -0.022459   0.037417
     2  N    0.001209   0.002398  -0.004692   0.016105   0.002714  -0.050630
     3  C    0.001004  -0.000666  -0.007641  -0.003308  -0.002581   0.018443
     4  C    0.001219   0.000072   0.002520  -0.000809  -0.001272  -0.005124
     5  N   -0.004332   0.000721  -0.008206   0.004600   0.012472  -0.003671
     6  H    0.000023  -0.000000  -0.000127   0.000016  -0.000002  -0.000048
     7  H    0.002078   0.000000  -0.000119   0.000006  -0.000003  -0.000006
     8  H    0.000000   0.000196   0.000019   0.000557   0.000001  -0.001222
     9  C   -0.000119   0.000019   0.038668  -0.007346  -0.029723   0.000958
    10  O    0.000006   0.000557  -0.007346   0.022341   0.005627  -0.002703
    11  O   -0.000003   0.000001  -0.029723   0.005627   0.106986   0.000216
    12  O   -0.000006  -0.001222   0.000958  -0.002703   0.000216   0.006594
    13  H    0.000001   0.000281  -0.000224   0.000380  -0.000085   0.003544
    14  H   -0.000000  -0.000131  -0.000049  -0.000331  -0.000007   0.001786
              13         14
     1  N   -0.014110   0.000375
     2  N    0.013744  -0.001650
     3  C   -0.007414   0.000357
     4  C    0.003702   0.000067
     5  N    0.000093  -0.000089
     6  H    0.000083   0.000001
     7  H    0.000001  -0.000000
     8  H    0.000281  -0.000131
     9  C   -0.000224  -0.000049
    10  O    0.000380  -0.000331
    11  O   -0.000085  -0.000007
    12  O    0.003544   0.001786
    13  H   -0.006334  -0.000854
    14  H   -0.000854  -0.000588
 Mulliken charges and spin densities:
               1          2
     1  N   -0.207537   0.075307
     2  N   -0.326586   0.302992
     3  C   -0.268004   0.205167
     4  C   -0.144164  -0.099844
     5  N   -0.229268   0.396024
     6  H    0.129222  -0.009022
     7  H    0.120694   0.002989
     8  H    0.522644   0.000174
     9  C    0.673853   0.044361
    10  O   -0.655292   0.012722
    11  O   -0.548004   0.071884
    12  O   -0.929309   0.005554
    13  H    0.491184  -0.007192
    14  H    0.370568  -0.001115
 Sum of Mulliken charges =  -1.00000   1.00000
 Mulliken charges and spin densities with hydrogens summed into heavy atoms:
               1          2
     1  N   -0.207537   0.075307
     2  N   -0.326586   0.302992
     3  C   -0.138782   0.196145
     4  C   -0.023470  -0.096855
     5  N   -0.229268   0.396024
     9  C    0.673853   0.044361
    10  O   -0.655292   0.012722
    11  O   -0.548004   0.071884
    12  O    0.455087  -0.002579
 APT charges:
               1
     1  N   -0.599548
     2  N   -0.273515
     3  C   -0.673254
     4  C   -0.404817
     5  N   -0.242711
     6  H    0.597883
     7  H    0.672874
     8  H    0.456150
     9  C    0.192088
    10  O   -0.553234
    11  O   -0.238152
    12  O   -1.220336
    13  H    0.429831
    14  H    0.856743
 Sum of APT charges =  -1.00000
 APT charges with hydrogens summed into heavy atoms:
               1
     1  N   -0.599548
     2  N   -0.273515
     3  C   -0.075372
     4  C    0.268056
     5  N   -0.242711
     9  C    0.192088
    10  O   -0.553234
    11  O   -0.238152
    12  O    0.522387
 Electronic spatial extent (au):  <R**2>=           1171.2441
 Charge=             -1.0000 electrons
 Dipole moment (field-independent basis, Debye):
    X=             -2.2065    Y=              5.8007    Z=              1.2596  Tot=              6.3327
 Quadrupole moment (field-independent basis, Debye-Ang):
   XX=            -68.0111   YY=            -70.9754   ZZ=            -56.7506
   XY=              2.8075   XZ=              3.6403   YZ=              5.1702
 Traceless Quadrupole moment (field-independent basis, Debye-Ang):
   XX=             -2.7654   YY=             -5.7297   ZZ=              8.4951
   XY=              2.8075   XZ=              3.6403   YZ=              5.1702
 Octapole moment (field-independent basis, Debye-Ang**2):
  XXX=             -3.2460  YYY=             40.6598  ZZZ=              3.9617  XYY=             -1.7759
  XXY=             13.5024  XXZ=             10.7309  XZZ=             14.2959  YZZ=              2.9371
  YYZ=              4.7669  XYZ=              8.4239
 Hexadecapole moment (field-independent basis, Debye-Ang**3):
 XXXX=           -895.3376 YYYY=           -671.3350 ZZZZ=            -82.2046 XXXY=             29.2590
 XXXZ=             14.3361 YYYX=             25.9431 YYYZ=             37.5951 ZZZX=              6.5650
 ZZZY=             11.0161 XXYY=           -265.0511 XXZZ=           -169.0410 YYZZ=           -108.1912
 XXYZ=             16.1681 YYXZ=             20.7148 ZZXY=             16.4915
 N-N= 4.615995762966D+02 E-N=-2.123028992344D+03  KE= 5.029311873454D+02
  Exact polarizability:       0.000       0.000       0.000       0.000       0.000       0.000
 Approx polarizability:     108.714      -2.523     119.559      -1.037      -5.625      66.872
                          Isotropic Fermi Contact Couplings
        Atom                 a.u.       MegaHertz       Gauss      10(-4) cm-1
     1  N(14)              0.02704       8.73592       3.11719       2.91399
     2  N(14)              0.07895      25.50865       9.10212       8.50877
     3  C(13)              0.01920      21.58418       7.70177       7.19971
     4  C(13)             -0.02330     -26.19774      -9.34801      -8.73863
     5  N(14)              0.09260      29.92089      10.67652       9.98053
     6  H(1)              -0.00275     -12.28755      -4.38450      -4.09869
     7  H(1)               0.00046       2.06591       0.73717       0.68911
     8  H(1)               0.00012       0.53467       0.19078       0.17835
     9  C(13)              0.00053       0.59141       0.21103       0.19727
    10  O(17)              0.00308      -1.86559      -0.66569      -0.62229
    11  O(17)              0.01712     -10.37785      -3.70308      -3.46168
    12  O(17)             -0.00063       0.38087       0.13590       0.12704
    13  H(1)              -0.00107      -4.77908      -1.70529      -1.59413
    14  H(1)              -0.00024      -1.06132      -0.37871      -0.35402
 --------------------------------------------------------
       Center         ----  Spin Dipole Couplings  ----
                      3XX-RR        3YY-RR        3ZZ-RR
 --------------------------------------------------------
     1   Atom       -0.216192     -0.213763      0.429955
     2   Atom       -0.387798     -0.373471      0.761270
     3   Atom       -0.071759     -0.075166      0.146925
     4   Atom        0.033989      0.037655     -0.071644
     5   Atom       -0.390807     -0.376584      0.767391
     6   Atom       -0.008729      0.012184     -0.003456
     7   Atom        0.003927      0.002072     -0.005999
     8   Atom        0.006938     -0.000073     -0.006864
     9   Atom       -0.022668     -0.021951      0.044619
    10   Atom       -0.036158     -0.030231      0.066389
    11   Atom       -0.135347     -0.112813      0.248160
    12   Atom       -0.000513      0.001185     -0.000672
    13   Atom        0.015550     -0.001894     -0.013656
    14   Atom        0.001249      0.000409     -0.001658
 --------------------------------------------------------
                        XY            XZ            YZ
 --------------------------------------------------------
     1   Atom        0.005650      0.063741      0.082362
     2   Atom        0.002963      0.032237      0.067814
     3   Atom       -0.003342      0.017752      0.032341
     4   Atom       -0.007829     -0.009395     -0.010631
     5   Atom        0.011900      0.096095      0.145549
     6   Atom       -0.012291      0.002238     -0.000253
     7   Atom       -0.000820     -0.000770     -0.000956
     8   Atom        0.002148      0.000546      0.000068
     9   Atom       -0.009552     -0.000050      0.022053
    10   Atom       -0.000796      0.005474      0.023030
    11   Atom        0.006047      0.020307      0.109202
    12   Atom        0.017316     -0.010029     -0.007751
    13   Atom        0.026506     -0.002490     -0.000038
    14   Atom        0.003482      0.001919      0.001759
 --------------------------------------------------------


 ---------------------------------------------------------------------------------
              Anisotropic Spin Dipole Couplings in Principal Axis System
 ---------------------------------------------------------------------------------

       Atom             a.u.   MegaHertz   Gauss  10(-4) cm-1        Axes

              Baa    -0.2258    -8.707    -3.107    -2.904  0.5661  0.8093 -0.1567
     1 N(14)  Bbb    -0.2207    -8.513    -3.038    -2.840  0.8187 -0.5742 -0.0075
              Bcc     0.4465    17.220     6.145     5.744  0.0961  0.1240  0.9876
 
              Baa    -0.3888   -14.995    -5.351    -5.002  0.9954 -0.0933 -0.0224
     2 N(14)  Bbb    -0.3774   -14.556    -5.194    -4.855  0.0918  0.9939 -0.0618
              Bcc     0.7662    29.551    10.545     9.857  0.0280  0.0594  0.9978
 
              Baa    -0.0831   -11.154    -3.980    -3.721  0.4980  0.8526 -0.1583
     3 C(13)  Bbb    -0.0697    -9.356    -3.338    -3.121  0.8638 -0.5038  0.0044
              Bcc     0.1528    20.510     7.318     6.841  0.0760  0.1389  0.9874
 
              Baa    -0.0736    -9.879    -3.525    -3.295  0.0938  0.1012  0.9904
     4 C(13)  Bbb     0.0297     3.985     1.422     1.329  0.7909  0.5966 -0.1359
              Bcc     0.0439     5.894     2.103     1.966 -0.6047  0.7961 -0.0241
 
              Baa    -0.3987   -15.378    -5.487    -5.130  0.9961  0.0237 -0.0850
     5 N(14)  Bbb    -0.3948   -15.227    -5.433    -5.079 -0.0339  0.9920 -0.1214
              Bcc     0.7935    30.605    10.921    10.209  0.0815  0.1238  0.9890
 
              Baa    -0.0147    -7.864    -2.806    -2.623  0.8972  0.4080 -0.1688
     6 H(1)   Bbb    -0.0032    -1.702    -0.607    -0.568  0.1304  0.1204  0.9841
              Bcc     0.0179     9.566     3.413     3.191 -0.4219  0.9050 -0.0548
 
              Baa    -0.0062    -3.300    -1.177    -1.101  0.0853  0.1229  0.9887
     7 H(1)   Bbb     0.0019     1.031     0.368     0.344  0.3280  0.9336 -0.1444
              Bcc     0.0043     2.269     0.810     0.757  0.9408 -0.3366 -0.0393
 
              Baa    -0.0069    -3.674    -1.311    -1.226 -0.0399  0.0026  0.9992
     8 H(1)   Bbb    -0.0007    -0.362    -0.129    -0.121 -0.2705  0.9626 -0.0133
              Bcc     0.0076     4.036     1.440     1.346  0.9619  0.2709  0.0377
 
              Baa    -0.0353    -4.732    -1.688    -1.578  0.5897  0.7786 -0.2146
     9 C(13)  Bbb    -0.0161    -2.161    -0.771    -0.721  0.8067 -0.5552  0.2023
              Bcc     0.0514     6.893     2.460     2.299 -0.0384  0.2924  0.9555
 
              Baa    -0.0380     2.747     0.980     0.916  0.7855  0.5944 -0.1724
    10 O(17)  Bbb    -0.0339     2.452     0.875     0.818 -0.6170  0.7737 -0.1440
              Bcc     0.0718    -5.199    -1.855    -1.734  0.0478  0.2195  0.9744
 
              Baa    -0.1433    10.369     3.700     3.459 -0.0533  0.9626 -0.2658
    11 O(17)  Bbb    -0.1364     9.870     3.522     3.292  0.9973  0.0378 -0.0634
              Bcc     0.2797   -20.239    -7.222    -6.751  0.0510  0.2684  0.9620
 
              Baa    -0.0173     1.252     0.447     0.418  0.7527 -0.6397  0.1558
    12 O(17)  Bbb    -0.0067     0.488     0.174     0.163  0.1917  0.4393  0.8776
              Bcc     0.0240    -1.740    -0.621    -0.580  0.6298  0.6307 -0.4533
 
              Baa    -0.0213   -11.388    -4.064    -3.799 -0.5816  0.7923 -0.1844
    13 H(1)   Bbb    -0.0135    -7.189    -2.565    -2.398 -0.0745  0.1738  0.9820
              Bcc     0.0348    18.577     6.629     6.197  0.8100  0.5849 -0.0421
 
              Baa    -0.0027    -1.441    -0.514    -0.481 -0.4492  0.7644 -0.4626
    14 H(1)   Bbb    -0.0026    -1.391    -0.496    -0.464 -0.5556  0.1664  0.8146
              Bcc     0.0053     2.832     1.011     0.945  0.6997  0.6229  0.3500
 

 ---------------------------------------------------------------------------------

 Calling FoFJK, ICntrl=    100127 FMM=F ISym2X=0 I1Cent= 0 IOpClX= 1 NMat=1 NMatS=1 NMatT=0.
 ***** Axes restored to original set *****
 -------------------------------------------------------------------
 Center     Atomic                   Forces (Hartrees/Bohr)
 Number     Number              X              Y              Z
 -------------------------------------------------------------------
      1        7          -0.001180995    0.001604005    0.005342932
      2        7           0.014425037    0.008947480   -0.005773156
      3        6           0.004862198    0.000275571    0.005318670
      4        6          -0.001172014   -0.001424143   -0.001325791
      5        7          -0.002265772   -0.001571704   -0.000461456
      6        1          -0.000423516    0.000159200    0.000647265
      7        1          -0.000210553    0.000188795   -0.001125204
      8        1           0.016336903   -0.028594341   -0.003981246
      9        6           0.005606219    0.004302129    0.005834912
     10        8          -0.006878451    0.012521807    0.006381158
     11        8          -0.001697471   -0.006228836   -0.005343655
     12        8           0.000233470    0.023982073   -0.006973697
     13        1          -0.023171215   -0.004891833    0.006011038
     14        1          -0.004463841   -0.009270203   -0.004551771
 -------------------------------------------------------------------
 Cartesian Forces:  Max     0.028594341 RMS     0.008820617
 FormGI is forming the generalized inverse of G from B-inverse, IUseBI=4.

 GradGradGradGradGradGradGradGradGradGradGradGradGradGradGradGradGradGrad
 Berny optimization.
 Internal  Forces:  Max     0.017428900 RMS     0.004480991
 Search for a saddle point.
 Step number   1 out of a maximum of   76
 All quantities printed in internal units (Hartrees-Bohrs-Radians)
 Swapping is turned off.
 Second derivative matrix not updated -- analytic derivatives used.
 ITU=  0
     Eigenvalues ---   -0.04322  -0.00247   0.00011   0.00174   0.00378
     Eigenvalues ---    0.00678   0.00933   0.01806   0.02308   0.02595
     Eigenvalues ---    0.02865   0.04475   0.04846   0.06166   0.06983
     Eigenvalues ---    0.08380   0.09845   0.10368   0.10852   0.17730
     Eigenvalues ---    0.20138   0.23018   0.23454   0.25209   0.26929
     Eigenvalues ---    0.28417   0.30243   0.37858   0.38521   0.39688
     Eigenvalues ---    0.42779   0.46622   0.47525   0.53286   0.55693
     Eigenvalues ---    0.84840
 Eigenvectors required to have negative eigenvalues:
                          R14       R5        R10       R11       A20
   1                    0.51751  -0.51376   0.42189  -0.41977   0.16113
                          A19       D28       D24       R12       A16
   1                   -0.15319   0.12088   0.11401  -0.06955   0.06684
 RFO step:  Lambda0=3.592617142D-05 Lambda=-1.73999589D-02.
 Linear search not attempted -- option 19 set.
 Maximum step size (   0.300) exceeded in Quadratic search.
    -- Step size scaled by   0.462
 Iteration  1 RMS(Cart)=  0.04489448 RMS(Int)=  0.01950795
 Iteration  2 RMS(Cart)=  0.01841577 RMS(Int)=  0.00817852
 Iteration  3 RMS(Cart)=  0.00074403 RMS(Int)=  0.00812710
 Iteration  4 RMS(Cart)=  0.00002051 RMS(Int)=  0.00812707
 Iteration  5 RMS(Cart)=  0.00000068 RMS(Int)=  0.00812707
 Variable       Old X    -DE/DX   Delta X   Delta X   Delta X     New X
                                 (Linear)    (Quad)   (Total)
    R1        2.63812   0.00040   0.00000  -0.00089  -0.00259   2.63553
    R2        2.59177   0.00273   0.00000   0.00306   0.00290   2.59466
    R3        2.65346   0.00309   0.00000   0.00061  -0.00152   2.65193
    R4        2.59633  -0.00327   0.00000  -0.00411  -0.00431   2.59203
    R5        2.42566  -0.01743   0.00000  -0.06379  -0.06282   2.36284
    R6        2.60348   0.00202   0.00000   0.00098   0.00135   2.60484
    R7        2.03823   0.00039   0.00000   0.00036   0.00036   2.03859
    R8        2.54670  -0.00026   0.00000   0.00071   0.00113   2.54783
    R9        2.04336   0.00029   0.00000   0.00009   0.00009   2.04344
   R10        2.25442  -0.01405   0.00000  -0.05155  -0.05029   2.20413
   R11        2.25319   0.01502   0.00000   0.06789   0.06895   2.32214
   R12        2.48648  -0.00078   0.00000  -0.00054  -0.00131   2.48517
   R13        2.30511   0.00643   0.00000   0.00216   0.00216   2.30727
   R14        2.30281   0.00104   0.00000   0.03848   0.03994   2.34275
   R15        1.81818  -0.00712   0.00000   0.00118   0.00118   1.81936
    A1        1.96438  -0.00002   0.00000   0.00027   0.00077   1.96516
    A2        2.15888   0.00152   0.00000   0.00123  -0.00230   2.15657
    A3        2.15018  -0.00133   0.00000  -0.00065   0.00263   2.15281
    A4        1.81717   0.00028   0.00000   0.00201   0.00226   1.81943
    A5        2.03142   0.00130   0.00000   0.00959   0.01100   2.04242
    A6        2.38787  -0.00206   0.00000  -0.01178  -0.01358   2.37429
    A7        1.87714   0.00121   0.00000   0.00153   0.00092   1.87806
    A8        2.11242  -0.00035   0.00000   0.00022   0.00047   2.11289
    A9        2.29302  -0.00080   0.00000  -0.00124  -0.00101   2.29201
   A10        1.95772  -0.00049   0.00000  -0.00031  -0.00029   1.95743
   A11        2.23672   0.00018   0.00000  -0.00016  -0.00017   2.23655
   A12        2.08870   0.00030   0.00000   0.00048   0.00047   2.08918
   A13        1.80327  -0.00071   0.00000  -0.00069  -0.00135   1.80192
   A14        2.01006  -0.00032   0.00000   0.00080  -0.00468   2.00538
   A15        2.09813  -0.00255   0.00000  -0.00268  -0.00002   2.09811
   A16        2.17500   0.00288   0.00000   0.00190   0.00461   2.17960
   A17        2.04594   0.00018   0.00000   0.02025   0.02296   2.06890
   A18        1.40151   0.00892   0.00000  -0.01192  -0.02364   1.37788
   A19        2.27853  -0.00955   0.00000  -0.21021  -0.23539   2.04315
   A20        2.21916  -0.00609   0.00000  -0.17019  -0.20441   2.01475
   A21        2.81009  -0.00137   0.00000   0.03071   0.03352   2.84361
   A22        3.04833  -0.00949   0.00000   0.00065   0.00378   3.05211
   A23        3.12263   0.00459   0.00000   0.01845   0.01039   3.13303
    D1       -0.09935   0.00264   0.00000   0.02706   0.02572  -0.07363
    D2        2.77359   0.00088   0.00000   0.02405   0.02192   2.79551
    D3       -3.09535   0.00152   0.00000   0.02083   0.01708  -3.07827
    D4       -0.22241  -0.00024   0.00000   0.01782   0.01328  -0.20913
    D5        0.07776  -0.00156   0.00000  -0.01810  -0.01718   0.06059
    D6        3.07460  -0.00017   0.00000  -0.01173  -0.00904   3.06557
    D7       -0.19434   0.00163   0.00000   0.02514   0.02186  -0.17248
    D8        2.94534   0.00405   0.00000   0.03511   0.03758   2.98292
    D9        3.10807   0.00025   0.00000   0.01816   0.01252   3.12058
   D10       -0.03544   0.00267   0.00000   0.02813   0.02824  -0.00720
   D11        0.07806  -0.00260   0.00000  -0.02435  -0.02322   0.05483
   D12       -3.09697  -0.00111   0.00000  -0.01031  -0.00999  -3.10696
   D13       -2.70870  -0.00128   0.00000  -0.02673  -0.02548  -2.73418
   D14        0.39946   0.00020   0.00000  -0.01268  -0.01224   0.38722
   D15       -0.13306   0.00205   0.00000   0.04528   0.03947  -0.09359
   D16        2.62289   0.00037   0.00000   0.04615   0.03994   2.66283
   D17       -0.03532   0.00189   0.00000   0.01513   0.01446  -0.02086
   D18        3.09612   0.00172   0.00000   0.01638   0.01581   3.11193
   D19       -3.13873   0.00018   0.00000  -0.00096  -0.00068  -3.13941
   D20       -0.00729   0.00000   0.00000   0.00029   0.00067  -0.00662
   D21       -0.02504  -0.00025   0.00000   0.00160   0.00150  -0.02354
   D22        3.12574  -0.00009   0.00000   0.00047   0.00027   3.12602
   D23       -0.58335   0.00330   0.00000   0.08017   0.06575  -0.51760
   D24        1.67299  -0.00348   0.00000  -0.26816  -0.23792   1.43507
   D25        0.57392  -0.00021   0.00000  -0.06011  -0.05159   0.52233
   D26       -2.56566  -0.00275   0.00000  -0.07057  -0.06815  -2.63381
   D27        0.47158  -0.00491   0.00000  -0.08961  -0.07277   0.39881
   D28       -1.87177   0.00308   0.00000   0.28994   0.26586  -1.60591
         Item               Value     Threshold  Converged?
 Maximum Force            0.017429     0.000450     NO 
 RMS     Force            0.004481     0.000300     NO 
 Maximum Displacement     0.295078     0.001800     NO 
 RMS     Displacement     0.057181     0.001200     NO 
 Predicted change in Energy=-8.361824D-03
 GradGradGradGradGradGradGradGradGradGradGradGradGradGradGradGradGradGrad

                          Input orientation:                          
 ---------------------------------------------------------------------
 Center     Atomic      Atomic             Coordinates (Angstroms)
 Number     Number       Type             X           Y           Z
 ---------------------------------------------------------------------
      1          7           0       -0.289169   -0.396099   -0.001028
      2          7           0       -0.454001    0.961590    0.272099
      3          6           0       -1.806494    1.165005    0.168244
      4          6           0       -2.393666   -0.056406   -0.083599
      5          7           0       -1.484882   -1.048119   -0.175289
      6          1           0       -2.233320    2.147038    0.299347
      7          1           0       -3.445134   -0.280871   -0.199080
      8          1           0        1.849162    0.741741    0.779769
      9          6           0        0.946915   -1.056914    0.068175
     10          8           0        1.989130   -0.268084    0.213120
     11          8           0        0.998967   -2.273562   -0.020053
     12          8           0        1.593884    1.797526    1.354368
     13          1           0        0.506251    1.553128    0.811919
     14          1           0        1.588573    1.782174    2.316997
 ---------------------------------------------------------------------
                    Distance matrix (angstroms):
                    1          2          3          4          5
     1  N    0.000000
     2  N    1.394664   0.000000
     3  C    2.183569   1.371641   0.000000
     4  C    2.133335   2.219265   1.378420   0.000000
     5  N    1.373036   2.302565   2.262603   1.348254   0.000000
     6  H    3.215197   2.138225   1.078776   2.242214   3.315791
     7  H    3.164272   3.273010   2.215994   1.081344   2.105190
     8  H    2.544952   2.368675   3.730540   4.402730   3.902766
     9  C    1.403342   2.465463   3.539519   3.490492   2.443970
    10  O    2.291920   2.735775   4.057403   4.397926   3.581631
    11  O    2.276955   3.558466   4.441826   4.053367   2.774044
    12  O    3.192958   2.462505   3.656438   4.626594   4.462774
    13  H    2.256782   1.250363   2.431819   3.435415   3.421357
    14  H    3.693783   3.004509   4.065035   5.000147   4.864995
                    6          7          8          9         10
     6  H    0.000000
     7  H    2.758924   0.000000
     8  H    4.344228   5.480278   0.000000
     9  C    4.520248   4.468082   2.134379   0.000000
    10  O    4.865114   5.449890   1.166374   1.315095   0.000000
    11  O    5.485563   4.873696   3.233357   1.220953   2.248718
    12  O    3.985313   5.667860   1.228826   3.196981   2.392783
    13  H    2.849686   4.472037   1.569328   2.749483   2.423696
    14  H    4.337154   5.993747   1.874427   3.678226   2.964844
                   11         12         13         14
    11  O    0.000000
    12  O    4.337824   0.000000
    13  H    3.946961   1.239728   0.000000
    14  H    4.717884   0.962766   1.867924   0.000000
 Stoichiometry    C3H5N3O3(1-,2)
 Framework group  C1[X(C3H5N3O3)]
 Deg. of freedom    36
 Full point group                 C1      NOp   1
 Largest Abelian subgroup         C1      NOp   1
 Largest concise Abelian subgroup C1      NOp   1
                         Standard orientation:                         
 ---------------------------------------------------------------------
 Center     Atomic      Atomic             Coordinates (Angstroms)
 Number     Number       Type             X           Y           Z
 ---------------------------------------------------------------------
      1          7           0       -0.314125   -0.408821   -0.098358
      2          7           0       -0.481053    0.971793   -0.203845
      3          6           0       -1.838001    1.154885   -0.122799
      4          6           0       -2.412847   -0.078793    0.095456
      5          7           0       -1.496315   -1.066796    0.135573
      6          1           0       -2.272963    2.138433   -0.207645
      7          1           0       -3.459200   -0.312608    0.236095
      8          1           0        1.881770    0.877196   -0.066961
      9          6           0        0.939673   -1.037999   -0.059682
     10          8           0        1.960520   -0.255531   -0.333709
     11          8           0        1.022015   -2.228395    0.198977
     12          8           0        1.689134    2.057797    0.214263
     13          1           0        0.534518    1.681356   -0.034899
     14          1           0        1.850021    2.322865    1.125730
 ---------------------------------------------------------------------
 Rotational constants (GHZ):           2.2179283           1.6236187           0.9580262
 Standard basis: 6-31+G(d,p) (6D, 7F)
 There are   196 symmetry adapted cartesian basis functions of A   symmetry.
 There are   196 symmetry adapted basis functions of A   symmetry.
   196 basis functions,   323 primitive gaussians,   196 cartesian basis functions
    35 alpha electrons       34 beta electrons
       nuclear repulsion energy       461.8717820139 Hartrees.
 NAtoms=   14 NActive=   14 NUniq=   14 SFac= 1.00D+00 NAtFMM=   60 NAOKFM=F Big=F
 Integral buffers will be    131072 words long.
 Raffenetti 2 integral format.
 Two-electron integral symmetry is turned on.
 One-electron integrals computed using PRISM.
 NBasis=   196 RedAO= T EigKep=  2.84D-05  NBF=   196
 NBsUse=   196 1.00D-06 EigRej= -1.00D+00 NBFU=   196
 Initial guess from the checkpoint file:  "/home/gau/soft/scratch/Gau-50526.chk"
 B after Tr=     0.000000    0.000000    0.000000
         Rot=    0.999991   -0.001356    0.001261   -0.003783 Ang=  -0.48 deg.
 Initial guess <Sx>= 0.0000 <Sy>= 0.0000 <Sz>= 0.5000 <S**2>= 0.7650 S= 0.5075
 ExpMin= 4.38D-02 ExpMax= 5.48D+03 ExpMxC= 8.25D+02 IAcc=3 IRadAn=         5 AccDes= 0.00D+00
 Harris functional with IExCor= 1009 and IRadAn=       5 diagonalized for initial guess.
 HarFok:  IExCor= 1009 AccDes= 0.00D+00 IRadAn=         5 IDoV= 1 UseB2=F ITyADJ=14
 ICtDFT=  3500011 ScaDFX=  1.000000  1.000000  1.000000  1.000000
 FoFCou: FMM=F IPFlag=           0 FMFlag=      100000 FMFlg1=           0
         NFxFlg=           0 DoJE=T BraDBF=F KetDBF=T FulRan=T
         wScrn=  0.000000 ICntrl=       500 IOpCl=  0 I1Cent=   200000004 NGrid=           0
         NMat0=    1 NMatS0=      1 NMatT0=    0 NMatD0=    1 NMtDS0=    0 NMtDT0=    0
 Petite list used in FoFCou.
 Requested convergence on RMS density matrix=1.00D-08 within 128 cycles.
 Requested convergence on MAX density matrix=1.00D-06.
 Requested convergence on             energy=1.00D-06.
 No special actions if energy rises.
 SCF Done:  E(UM062X) =  -507.064435065     A.U. after   17 cycles
            NFock= 17  Conv=0.34D-08     -V/T= 2.0082
 <Sx>= 0.0000 <Sy>= 0.0000 <Sz>= 0.5000 <S**2>= 0.7650 S= 0.5075
 <L.S>=  0.00000000000    
 Annihilation of the first spin contaminant:
 S**2 before annihilation     0.7650,   after     0.7501
 Calling FoFJK, ICntrl=      2127 FMM=F ISym2X=0 I1Cent= 0 IOpClX= 1 NMat=1 NMatS=1 NMatT=0.
 ***** Axes restored to original set *****
 -------------------------------------------------------------------
 Center     Atomic                   Forces (Hartrees/Bohr)
 Number     Number              X              Y              Z
 -------------------------------------------------------------------
      1        7          -0.001595747    0.000250259    0.004816244
      2        7           0.008926704    0.006108683   -0.006114944
      3        6           0.002505465   -0.000073632    0.003704158
      4        6          -0.000682845   -0.000761635   -0.000669035
      5        7          -0.001279124   -0.000675085   -0.000386526
      6        1          -0.000244748    0.000056559    0.000431153
      7        1          -0.000097876    0.000141186   -0.000838033
      8        1           0.009815872   -0.018471678   -0.003807173
      9        6           0.002875738    0.002417566    0.002934570
     10        8          -0.003034380    0.007237912    0.004752721
     11        8          -0.000746228   -0.003169301   -0.003718309
     12        8           0.000165418    0.014607123   -0.001815924
     13        1          -0.014852590   -0.003504012    0.003834825
     14        1          -0.001755659   -0.004163945   -0.003123726
 -------------------------------------------------------------------
 Cartesian Forces:  Max     0.018471678 RMS     0.005526472

 GradGradGradGradGradGradGradGradGradGradGradGradGradGradGradGradGradGrad
 Berny optimization.
 FormGI is forming the generalized inverse of G from B-inverse, IUseBI=4.
 Internal  Forces:  Max     0.010924626 RMS     0.002747015
 Search for a saddle point.
 Step number   2 out of a maximum of   76
 All quantities printed in internal units (Hartrees-Bohrs-Radians)
 Swapping is turned off.
 Update second derivatives using D2CorX and points    1    2
 ITU=  0  0
     Eigenvalues ---   -0.04311   0.00005   0.00121   0.00340   0.00505
     Eigenvalues ---    0.00758   0.00935   0.01810   0.02309   0.02625
     Eigenvalues ---    0.02841   0.04545   0.04857   0.06147   0.06968
     Eigenvalues ---    0.08348   0.09843   0.10340   0.10845   0.17716
     Eigenvalues ---    0.20135   0.23024   0.23475   0.25239   0.26928
     Eigenvalues ---    0.28416   0.30241   0.37858   0.38521   0.39721
     Eigenvalues ---    0.42777   0.46617   0.47538   0.53288   0.55717
     Eigenvalues ---    0.84842
 Eigenvectors required to have negative eigenvalues:
                          R14       R5        R10       R11       A20
   1                    0.51790  -0.51429   0.42220  -0.41860   0.15144
                          D24       A19       D28       R12       A16
   1                    0.13924  -0.12999   0.12682  -0.06993   0.06737
 RFO step:  Lambda0=3.560204135D-05 Lambda=-8.33682290D-03.
 Linear search not attempted -- option 19 set.
 Maximum step size (   0.300) exceeded in Quadratic search.
    -- Step size scaled by   0.811
 Iteration  1 RMS(Cart)=  0.03777940 RMS(Int)=  0.00228205
 Iteration  2 RMS(Cart)=  0.00141140 RMS(Int)=  0.00057103
 Iteration  3 RMS(Cart)=  0.00001053 RMS(Int)=  0.00057092
 Iteration  4 RMS(Cart)=  0.00000001 RMS(Int)=  0.00057092
 Variable       Old X    -DE/DX   Delta X   Delta X   Delta X     New X
                                 (Linear)    (Quad)   (Total)
    R1        2.63553   0.00042   0.00000  -0.00570  -0.00555   2.62998
    R2        2.59466   0.00149   0.00000   0.00048   0.00046   2.59512
    R3        2.65193   0.00244   0.00000  -0.00500  -0.00518   2.64675
    R4        2.59203  -0.00168   0.00000  -0.00468  -0.00455   2.58748
    R5        2.36284  -0.01001   0.00000  -0.15349  -0.15337   2.20948
    R6        2.60484   0.00106   0.00000   0.00023   0.00014   2.60498
    R7        2.03859   0.00020   0.00000  -0.00030  -0.00030   2.03829
    R8        2.54783  -0.00014   0.00000   0.00102   0.00083   2.54867
    R9        2.04344   0.00016   0.00000  -0.00027  -0.00027   2.04318
   R10        2.20413  -0.00860   0.00000  -0.13673  -0.13665   2.06747
   R11        2.32214   0.01092   0.00000   0.15320   0.15329   2.47543
   R12        2.48517   0.00019   0.00000   0.00579   0.00560   2.49077
   R13        2.30727   0.00339   0.00000  -0.00029  -0.00029   2.30698
   R14        2.34275   0.00212   0.00000   0.11826   0.11839   2.46114
   R15        1.81936  -0.00305   0.00000  -0.00148  -0.00148   1.81788
    A1        1.96516  -0.00014   0.00000   0.00039   0.00000   1.96516
    A2        2.15657   0.00086   0.00000   0.00292   0.00182   2.15839
    A3        2.15281  -0.00058   0.00000   0.00509   0.00452   2.15733
    A4        1.81943   0.00016   0.00000   0.00575   0.00463   1.82406
    A5        2.04242   0.00075   0.00000   0.00706   0.00520   2.04762
    A6        2.37429  -0.00133   0.00000  -0.03722  -0.03763   2.33666
    A7        1.87806   0.00066   0.00000  -0.00135  -0.00143   1.87663
    A8        2.11289  -0.00017   0.00000   0.00071   0.00061   2.11350
    A9        2.29201  -0.00046   0.00000   0.00115   0.00104   2.29305
   A10        1.95743  -0.00027   0.00000   0.00051   0.00024   1.95767
   A11        2.23655   0.00011   0.00000  -0.00048  -0.00036   2.23619
   A12        2.08918   0.00016   0.00000   0.00003   0.00015   2.08932
   A13        1.80192  -0.00027   0.00000  -0.00039  -0.00073   1.80119
   A14        2.00538   0.00040   0.00000   0.00110   0.00047   2.00584
   A15        2.09811  -0.00160   0.00000   0.00132   0.00156   2.09967
   A16        2.17960   0.00118   0.00000  -0.00263  -0.00237   2.17723
   A17        2.06890  -0.00005   0.00000   0.01346   0.01274   2.08165
   A18        1.37788   0.00542   0.00000  -0.01310  -0.01358   1.36430
   A19        2.04315  -0.00537   0.00000  -0.06799  -0.06885   1.97429
   A20        2.01475  -0.00380   0.00000  -0.04815  -0.04952   1.96523
   A21        2.84361  -0.00103   0.00000   0.02041   0.02057   2.86418
   A22        3.05211  -0.00602   0.00000  -0.00985  -0.01011   3.04200
   A23        3.13303   0.00194   0.00000   0.01199   0.01160   3.14462
    D1       -0.07363   0.00189   0.00000   0.06485   0.06515  -0.00848
    D2        2.79551   0.00045   0.00000  -0.01068  -0.01173   2.78378
    D3       -3.07827   0.00080   0.00000  -0.00165  -0.00111  -3.07938
    D4       -0.20913  -0.00065   0.00000  -0.07718  -0.07798  -0.28712
    D5        0.06059  -0.00113   0.00000  -0.04874  -0.04894   0.01164
    D6        3.06557   0.00009   0.00000   0.01739   0.01702   3.08259
    D7       -0.17248   0.00125   0.00000   0.09568   0.09594  -0.07653
    D8        2.98292   0.00288   0.00000   0.11223   0.11240   3.09532
    D9        3.12058  -0.00001   0.00000   0.02251   0.02286  -3.13974
   D10       -0.00720   0.00162   0.00000   0.03907   0.03931   0.03211
   D11        0.05483  -0.00183   0.00000  -0.05306  -0.05319   0.00164
   D12       -3.10696  -0.00085   0.00000  -0.02982  -0.02969  -3.13665
   D13       -2.73418  -0.00058   0.00000   0.03088   0.02976  -2.70442
   D14        0.38722   0.00040   0.00000   0.05412   0.05326   0.44048
   D15       -0.09359   0.00134   0.00000   0.07690   0.07657  -0.01701
   D16        2.66283  -0.00018   0.00000  -0.01645  -0.01592   2.64691
   D17       -0.02086   0.00130   0.00000   0.02677   0.02661   0.00575
   D18        3.11193   0.00121   0.00000   0.03427   0.03439  -3.13686
   D19       -3.13941   0.00017   0.00000   0.00027  -0.00020  -3.13961
   D20       -0.00662   0.00009   0.00000   0.00776   0.00758   0.00096
   D21       -0.02354  -0.00013   0.00000   0.01289   0.01310  -0.01045
   D22        3.12602  -0.00005   0.00000   0.00611   0.00605   3.13207
   D23       -0.51760   0.00192   0.00000   0.04638   0.04533  -0.47226
   D24        1.43507  -0.00097   0.00000  -0.01219  -0.01088   1.42419
   D25        0.52233  -0.00040   0.00000  -0.06676  -0.06653   0.45580
   D26       -2.63381  -0.00213   0.00000  -0.08417  -0.08378  -2.71759
   D27        0.39881  -0.00235   0.00000  -0.05932  -0.05825   0.34056
   D28       -1.60591   0.00127   0.00000   0.02189   0.02095  -1.58496
         Item               Value     Threshold  Converged?
 Maximum Force            0.010925     0.000450     NO 
 RMS     Force            0.002747     0.000300     NO 
 Maximum Displacement     0.125355     0.001800     NO 
 RMS     Displacement     0.038373     0.001200     NO 
 Predicted change in Energy=-4.667152D-03
 GradGradGradGradGradGradGradGradGradGradGradGradGradGradGradGradGradGrad

                          Input orientation:                          
 ---------------------------------------------------------------------
 Center     Atomic      Atomic             Coordinates (Angstroms)
 Number     Number       Type             X           Y           Z
 ---------------------------------------------------------------------
      1          7           0       -0.279687   -0.398501    0.025368
      2          7           0       -0.435207    0.967205    0.243454
      3          6           0       -1.787464    1.172835    0.180855
      4          6           0       -2.381796   -0.046550   -0.064331
      5          7           0       -1.478180   -1.043385   -0.158030
      6          1           0       -2.207808    2.157567    0.311326
      7          1           0       -3.434391   -0.264849   -0.180028
      8          1           0        1.860456    0.685929    0.774034
      9          6           0        0.955175   -1.057376    0.077125
     10          8           0        1.996888   -0.271319    0.262147
     11          8           0        1.014868   -2.266980   -0.076667
     12          8           0        1.573936    1.830062    1.343958
     13          1           0        0.447187    1.531569    0.762988
     14          1           0        1.522238    1.771940    2.302789
 ---------------------------------------------------------------------
                    Distance matrix (angstroms):
                    1          2          3          4          5
     1  N    0.000000
     2  N    1.391726   0.000000
     3  C    2.183269   1.369233   0.000000
     4  C    2.133255   2.216221   1.378495   0.000000
     5  N    1.373279   2.300316   2.263213   1.348696   0.000000
     6  H    3.214484   2.136278   1.078615   2.242660   3.316436
     7  H    3.164207   3.269923   2.215749   1.081202   2.105556
     8  H    2.513305   2.372910   3.727768   4.385895   3.873727
     9  C    1.400600   2.461657   3.536477   3.489578   2.444731
    10  O    2.292386   2.729355   4.051359   4.396587   3.584513
    11  O    2.275412   3.558813   4.444290   4.058052   2.778326
    12  O    3.184508   2.447916   3.617149   4.599214   4.452874
    13  H    2.190342   1.169205   2.336928   3.343360   3.344503
    14  H    3.625520   2.952973   3.976890   4.914432   4.794184
                    6          7          8          9         10
     6  H    0.000000
     7  H    2.759354   0.000000
     8  H    4.350930   5.463480   0.000000
     9  C    4.516101   4.467944   2.084305   0.000000
    10  O    4.856066   5.449253   1.094060   1.318061   0.000000
    11  O    5.487513   4.880074   3.187222   1.220802   2.249849
    12  O    3.933851   5.638664   1.309941   3.213258   2.401043
    13  H    2.764936   4.379845   1.646984   2.726003   2.429572
    14  H    4.245925   5.906019   1.905493   3.644196   2.926503
                   11         12         13         14
    11  O    0.000000
    12  O    4.372240   0.000000
    13  H    3.931444   1.302378   0.000000
    14  H    4.715093   0.961981   1.893278   0.000000
 Stoichiometry    C3H5N3O3(1-,2)
 Framework group  C1[X(C3H5N3O3)]
 Deg. of freedom    36
 Full point group                 C1      NOp   1
 Largest Abelian subgroup         C1      NOp   1
 Largest concise Abelian subgroup C1      NOp   1
                         Standard orientation:                         
 ---------------------------------------------------------------------
 Center     Atomic      Atomic             Coordinates (Angstroms)
 Number     Number       Type             X           Y           Z
 ---------------------------------------------------------------------
      1          7           0       -0.298420   -0.415640   -0.074064
      2          7           0       -0.491916    0.952668   -0.238967
      3          6           0       -1.845542    1.124019   -0.124355
      4          6           0       -2.403209   -0.116171    0.101880
      5          7           0       -1.473033   -1.091705    0.147559
      6          1           0       -2.293019    2.101212   -0.215284
      7          1           0       -3.446774   -0.364021    0.238048
      8          1           0        1.871629    0.852107   -0.053919
      9          6           0        0.963005   -1.023707   -0.046878
     10          8           0        1.975606   -0.213072   -0.280960
     11          8           0        1.063937   -2.224345    0.149691
     12          8           0        1.618908    2.112247    0.199314
     13          1           0        0.430740    1.649756   -0.066300
     14          1           0        1.727881    2.340207    1.127520
 ---------------------------------------------------------------------
 Rotational constants (GHZ):           2.2044317           1.6409004           0.9590133
 Standard basis: 6-31+G(d,p) (6D, 7F)
 There are   196 symmetry adapted cartesian basis functions of A   symmetry.
 There are   196 symmetry adapted basis functions of A   symmetry.
   196 basis functions,   323 primitive gaussians,   196 cartesian basis functions
    35 alpha electrons       34 beta electrons
       nuclear repulsion energy       462.4633833127 Hartrees.
 NAtoms=   14 NActive=   14 NUniq=   14 SFac= 1.00D+00 NAtFMM=   60 NAOKFM=F Big=F
 Integral buffers will be    131072 words long.
 Raffenetti 2 integral format.
 Two-electron integral symmetry is turned on.
 One-electron integrals computed using PRISM.
 NBasis=   196 RedAO= T EigKep=  2.64D-05  NBF=   196
 NBsUse=   196 1.00D-06 EigRej= -1.00D+00 NBFU=   196
 Initial guess from the checkpoint file:  "/home/gau/soft/scratch/Gau-50526.chk"
 B after Tr=    -0.000000   -0.000000    0.000000
         Rot=    0.999945    0.000123    0.001106   -0.010462 Ang=   1.21 deg.
 Initial guess <Sx>= 0.0000 <Sy>= 0.0000 <Sz>= 0.5000 <S**2>= 0.7649 S= 0.5074
 ExpMin= 4.38D-02 ExpMax= 5.48D+03 ExpMxC= 8.25D+02 IAcc=3 IRadAn=         5 AccDes= 0.00D+00
 Harris functional with IExCor= 1009 and IRadAn=       5 diagonalized for initial guess.
 HarFok:  IExCor= 1009 AccDes= 0.00D+00 IRadAn=         5 IDoV= 1 UseB2=F ITyADJ=14
 ICtDFT=  3500011 ScaDFX=  1.000000  1.000000  1.000000  1.000000
 FoFCou: FMM=F IPFlag=           0 FMFlag=      100000 FMFlg1=           0
         NFxFlg=           0 DoJE=T BraDBF=F KetDBF=T FulRan=T
         wScrn=  0.000000 ICntrl=       500 IOpCl=  0 I1Cent=   200000004 NGrid=           0
         NMat0=    1 NMatS0=      1 NMatT0=    0 NMatD0=    1 NMtDS0=    0 NMtDT0=    0
 Petite list used in FoFCou.
 Requested convergence on RMS density matrix=1.00D-08 within 128 cycles.
 Requested convergence on MAX density matrix=1.00D-06.
 Requested convergence on             energy=1.00D-06.
 No special actions if energy rises.
 SCF Done:  E(UM062X) =  -507.068586753     A.U. after   16 cycles
            NFock= 16  Conv=0.95D-08     -V/T= 2.0080
 <Sx>= 0.0000 <Sy>= 0.0000 <Sz>= 0.5000 <S**2>= 0.7649 S= 0.5074
 <L.S>=  0.00000000000    
 Annihilation of the first spin contaminant:
 S**2 before annihilation     0.7649,   after     0.7501
 Calling FoFJK, ICntrl=      2127 FMM=F ISym2X=0 I1Cent= 0 IOpClX= 1 NMat=1 NMatS=1 NMatT=0.
 ***** Axes restored to original set *****
 -------------------------------------------------------------------
 Center     Atomic                   Forces (Hartrees/Bohr)
 Number     Number              X              Y              Z
 -------------------------------------------------------------------
      1        7          -0.000948748   -0.000396009    0.003728958
      2        7          -0.001648057   -0.000563389   -0.009281120
      3        6           0.000052548    0.000072401    0.001680274
      4        6          -0.000246259   -0.000296319    0.000005461
      5        7          -0.000251525   -0.000009846   -0.000276735
      6        1          -0.000057509    0.000037211    0.000054337
      7        1          -0.000020297    0.000040837   -0.000330436
      8        1           0.002895099   -0.002273422    0.000848999
      9        6           0.001048212    0.000756080   -0.000223760
     10        8           0.000708995   -0.006317620   -0.001778122
     11        8           0.000053145   -0.000425257   -0.001430995
     12        8           0.001941043    0.009123671    0.001536137
     13        1          -0.003379668    0.001224994    0.006224412
     14        1          -0.000146977   -0.000973331   -0.000757410
 -------------------------------------------------------------------
 Cartesian Forces:  Max     0.009281120 RMS     0.002724450

 GradGradGradGradGradGradGradGradGradGradGradGradGradGradGradGradGradGrad
 Berny optimization.
 FormGI is forming the generalized inverse of G from B-inverse, IUseBI=4.
 Internal  Forces:  Max     0.007872646 RMS     0.001575213
 Search for a saddle point.
 Step number   3 out of a maximum of   76
 All quantities printed in internal units (Hartrees-Bohrs-Radians)
 Swapping is turned off.
 Update second derivatives using D2CorX and points    2    3
 ITU=  0  0  0
     Eigenvalues ---   -0.04299  -0.00187   0.00109   0.00277   0.00517
     Eigenvalues ---    0.00591   0.00927   0.01759   0.02307   0.02811
     Eigenvalues ---    0.03490   0.04557   0.04871   0.06109   0.06972
     Eigenvalues ---    0.08322   0.09830   0.10319   0.10839   0.17666
     Eigenvalues ---    0.20195   0.23246   0.23553   0.25832   0.26986
     Eigenvalues ---    0.28449   0.30258   0.37858   0.38521   0.39724
     Eigenvalues ---    0.42765   0.46568   0.47520   0.53286   0.55716
     Eigenvalues ---    0.84839
 Eigenvectors required to have negative eigenvalues:
                          R14       R5        R10       R11       A20
   1                    0.51376  -0.50565   0.43216  -0.42309   0.14957
                          D24       D28       A19       R12       A16
[...]
 ! D2    D(5,1,2,13)           150.276          -DE/DX =    0.0                 !
 ! D3    D(9,1,2,3)            174.53           -DE/DX =    0.0                 !
 ! D4    D(9,1,2,13)           -41.0524         -DE/DX =    0.0                 !
 ! D5    D(2,1,5,4)             -4.6417         -DE/DX =    0.0                 !
 ! D6    D(9,1,5,4)           -173.355          -DE/DX =    0.0                 !
 ! D7    D(2,1,9,10)            12.9998         -DE/DX =    0.0                 !
 ! D8    D(2,1,9,11)          -167.3516         -DE/DX =    0.0                 !
 ! D9    D(5,1,9,10)          -179.4816         -DE/DX =    0.0                 !
 ! D10   D(5,1,9,11)             0.167          -DE/DX =    0.0                 !
 ! D11   D(1,2,3,4)             -4.5528         -DE/DX =    0.0                 !
 ! D12   D(1,2,3,6)            177.8941         -DE/DX =    0.0                 !
 ! D13   D(13,2,3,4)          -141.4031         -DE/DX =    0.0                 !
 ! D14   D(13,2,3,6)            41.0438         -DE/DX =    0.0                 !
 ! D15   D(1,2,13,12)           32.2304         -DE/DX =    0.0                 !
 ! D16   D(3,2,13,12)          165.7735         -DE/DX =    0.0                 !
 ! D17   D(2,3,4,5)              2.005          -DE/DX =    0.0                 !
 ! D18   D(2,3,4,7)           -177.1879         -DE/DX =    0.0                 !
 ! D19   D(6,3,4,5)            179.2098         -DE/DX =    0.0                 !
 ! D20   D(6,3,4,7)              0.0169         -DE/DX =    0.0                 !
 ! D21   D(3,4,5,1)              1.5564         -DE/DX =    0.0                 !
 ! D22   D(7,4,5,1)           -179.1741         -DE/DX =    0.0                 !
 ! D23   D(9,10,12,13)         -27.212          -DE/DX =    0.0                 !
 ! D24   D(9,10,12,14)          82.8925         -DE/DX =    0.0                 !
 ! D25   D(1,9,10,8)            20.7236         -DE/DX =    0.0                 !
 ! D26   D(11,9,10,8)         -158.9071         -DE/DX =    0.0                 !
 ! D27   D(8,12,13,2)           -0.8895         -DE/DX =    0.0                 !
 ! D28   D(14,12,13,2)        -109.0192         -DE/DX =    0.0                 !
 --------------------------------------------------------------------------------
 GradGradGradGradGradGradGradGradGradGradGradGradGradGradGradGradGradGrad


 ----------------------------------------------------------------------

 Electric dipole moment (input orientation):
 (Debye = 10**-18 statcoulomb cm , SI units = C m)
                  (au)            (Debye)         (10**-30 SI)
   Tot        0.206969D+01      0.526062D+01      0.175476D+02
   x         -0.152906D+01     -0.388648D+01     -0.129639D+02
   y          0.125994D+01      0.320244D+01      0.106822D+02
   z          0.598461D+00      0.152114D+01      0.507396D+01

 Dipole polarizability, Alpha (input orientation).
 (esu units = cm**3 , SI units = C**2 m**2 J**-1)
 Alpha(0;0):
               (au)            (10**-24 esu)      (10**-40 SI)
   iso        0.854886D+02      0.126681D+02      0.140952D+02
   aniso      0.475378D+02      0.704437D+01      0.783792D+01
   xx         0.102242D+03      0.151507D+02      0.168574D+02
   yx        -0.682700D+01     -0.101166D+01     -0.112562D+01
   yy         0.966381D+02      0.143203D+02      0.159335D+02
   zx         0.484071D+01      0.717319D+00      0.798125D+00
   zy         0.956302D+01      0.141709D+01      0.157673D+01
   zz         0.575855D+02      0.853328D+01      0.949456D+01

 ----------------------------------------------------------------------

 Dipole orientation:
     7         -0.37526634         -0.87300522          0.00390553
     7          0.40573092          0.89378236          1.80627777
     6         -0.99166250          0.29484130          3.91351124
     6         -2.64118250         -1.60937997          3.25360443
     7         -2.33892616         -2.34712286          0.83570000
     1         -0.74438113          1.31645058          5.66000217
     1         -4.07662128         -2.49295070          4.40897892
     1          3.56475309          1.23557250         -1.41388895
     6          0.42689440         -0.82613692         -2.52852013
     8          2.35049301          0.67867413         -2.99541334
     8         -0.63398429         -2.12821984         -4.10655371
     8          4.84214617          1.86692446          0.70371157
     1          2.52581124          1.40856663          1.66919647
     1          6.06410262          0.58801309          1.12369864

 Electric dipole moment (dipole orientation):
 (Debye = 10**-18 statcoulomb cm , SI units = C m)
                  (au)            (Debye)         (10**-30 SI)
   Tot        0.206969D+01      0.526062D+01      0.175476D+02
   x          0.000000D+00      0.000000D+00      0.000000D+00
   y          0.000000D+00      0.000000D+00      0.000000D+00
   z          0.206969D+01      0.526062D+01      0.175476D+02

 Dipole polarizability, Alpha (dipole orientation).
 (esu units = cm**3 , SI units = C**2 m**2 J**-1)
 Alpha(0;0):
               (au)            (10**-24 esu)      (10**-40 SI)
   iso        0.854886D+02      0.126681D+02      0.140952D+02
   aniso      0.475378D+02      0.704437D+01      0.783792D+01
   xx         0.834933D+02      0.123724D+02      0.137662D+02
   yx         0.176066D+02      0.260904D+01      0.290294D+01
   yy         0.691015D+02      0.102398D+02      0.113933D+02
   zx        -0.793615D+01     -0.117602D+01     -0.130849D+01
   zy         0.866560D+01      0.128411D+01      0.142876D+01
   zz         0.103871D+03      0.153921D+02      0.171260D+02

 ----------------------------------------------------------------------
 Unable to Open any file for archive entry.
 1\1\GINC-NODE01\Freq\UM062X\6-31+G(d,p)\C3H5N3O3(1-,2)\GAU\07-Dec-2023
 \0\\#N Geom=AllCheck Guess=TCheck SCRF=Check GenChk UM062X/6-31+G(d,p)
  Freq\\TS\\-1,2\N,-0.2771996164,-0.3971942792,0.1351174488\N,-0.417358
 1065,0.9937848374,0.1470833828\C,-1.7781408516,1.188798433,0.116153576
 8\C,-2.3750147353,-0.0463066128,-0.0162739709\N,-1.4737049264,-1.04758
 23669,-0.0304246636\H,-2.1968752552,2.182270196,0.150964891\H,-3.42782
 40011,-0.2722703952,-0.1160350129\H,1.8685828048,0.6685066294,0.779263
 9052\C,0.9662675477,-1.0472296152,0.0461258833\O,2.0135574628,-0.27511
 48081,0.2419536417\O,1.0191097356,-2.2423887374,-0.1906322778\O,1.5470
 387067,1.824548,1.399298774\H,0.3781751631,1.5351199703,0.7891184995\H
 ,1.5196030317,1.7032051688,2.353273692\\Version=ES64L-G16RevC.01\State
 =2-A\HF=-507.0704475\S2=0.764894\S2-1=0.\S2A=0.750076\RMSD=3.066e-09\R
 MSF=6.583e-06\ZeroPoint=0.0921353\Thermal=0.0999713\ETot=-506.9704762\
 HTot=-506.969532\GTot=-507.0119786\Dipole=-1.529058,1.259936,0.5984611
 \DipoleDeriv=-1.078224,0.6667036,0.0017555,0.4736684,-0.1881885,-0.046
 0575,0.0664303,-0.0872929,-0.1473032,-0.8775262,-0.8863442,-0.254891,-
 0.4279392,-0.4611008,-0.1475496,-0.3245336,-0.0384076,-0.2898581,0.172
 2857,0.3384413,0.0034439,0.0668327,-0.2536023,-0.0758615,0.0163512,-0.
 1131591,-0.3410752,0.1538285,-0.1927971,-0.0119003,0.0275893,0.6360076
 ,0.1237366,0.0543258,0.0538322,-0.1359343,-0.2267255,0.1674458,0.04249
 2,-0.0941773,-0.7816402,-0.0747601,-0.0297561,-0.0301344,-0.2142025,0.
 0388835,0.0591762,-0.005888,0.0755479,-0.0410681,-0.0054538,-0.017989,
 0.0149652,0.2160364,-0.1288297,-0.0189466,-0.027028,-0.0365019,0.08606
 18,-0.0122256,-0.0285104,-0.0026104,0.1548726,0.2724524,-0.1129936,-0.
 0750065,0.1528406,1.1356076,0.5805584,0.0695968,0.5423324,0.5936332,2.
 5005191,-0.3384514,0.1376967,-0.5326202,2.3361691,0.4288653,0.0003012,
 0.3897315,0.4373756,-1.310269,-0.2286359,-0.1493414,-0.5741736,-1.2521
 847,-0.4235151,-0.1527679,-0.3768338,-0.6387246,-0.7413592,0.1624128,-
 0.0078525,0.6421663,-1.7704428,-0.2627495,0.0743838,-0.231022,-0.51165
 51,-1.2595417,-0.2977772,-0.2948668,-0.2605604,-1.2309886,-0.4193877,-
 0.3888346,-0.4971528,-0.8205219,1.2116241,0.6804065,0.6062619,0.476621
 9,0.5122917,0.262901,0.6409555,0.3409607,0.6180307,0.272882,0.0013597,
 0.0351244,0.0107056,0.2730781,0.071499,0.020047,0.0347909,0.0793263\Po
 lar=102.2421278,-6.8270017,96.6380895,4.8407113,9.5630204,57.5854515\Q
 uadrupole=-1.6028572,-7.3159524,8.9188096,-2.3024283,0.2534744,-2.8459
 018\PG=C01 [X(C3H5N3O3)]\NImag=1\\0.76466624,-0.09016994,0.61875646,0.
 03709208,0.04579354,0.05890212,-0.09822917,0.02881742,-0.01415018,0.64
 897430,-0.00403640,-0.23168971,-0.00627788,0.03613750,0.46844009,-0.02
 211141,-0.00389237,-0.02479167,0.12021419,0.07672104,0.12850035,-0.055
 28768,0.05443781,-0.00070214,-0.32024314,0.03513064,-0.01883418,0.6138
 7379,0.03860557,-0.04330868,-0.00248958,-0.00369466,-0.10123278,-0.014
 23555,-0.05442998,0.85534747,0.00044080,0.00410971,-0.00172989,-0.0121
 7353,-0.01248075,-0.03785854,0.03238589,0.05159041,0.08932344,-0.09926
 636,0.01070647,-0.00663477,-0.07945416,-0.01286783,-0.00722736,-0.1484
 5276,-0.14363949,-0.01992203,0.85281593,0.02080591,-0.00514062,0.00403
 989,-0.03489634,-0.00385316,-0.00605878,-0.12989704,-0.29084209,-0.022
 55782,0.10739893,0.60204995,-0.00758468,-0.00042159,0.00414750,-0.0051
 2033,-0.00098007,0.01510394,-0.01798979,-0.02570679,-0.05920897,0.0643
 4803,0.03980758,0.12361227,-0.20809795,-0.09059961,-0.02013229,-0.0208
 5815,-0.04047762,-0.00338674,0.01745924,0.06559411,0.00404663,-0.19914
 044,0.11983649,-0.00401852,0.46370774,-0.02723754,-0.13587950,-0.01285
 137,-0.03659475,-0.04815012,-0.00759639,0.01719557,-0.10799617,-0.0142
 0235,0.09184236,-0.20963252,-0.00347083,-0.06232060,0.47249629,-0.0222
 1142,-0.01998458,-0.03369213,-0.00401527,-0.00421960,-0.00529051,0.002
 33870,-0.00633107,0.02598072,-0.00422242,-0.00327389,-0.05198033,0.026
 72963,0.02969494,0.06770734,-0.00827545,0.00050574,-0.00031558,-0.0054
 1705,0.03007638,0.00153100,-0.09994907,0.10349052,0.00221157,0.0129527
 4,-0.01088089,0.00027129,-0.00145056,-0.00439999,-0.00083542,0.1010183
 0,-0.00241764,-0.00013053,-0.00050202,-0.00077535,0.00196756,0.0006782
 8,0.11090958,-0.32160928,-0.01225279,0.01546475,-0.00994597,0.00070852
 ,-0.00166354,-0.00184886,-0.00062642,-0.12105814,0.33218867,-0.0021404
 0,0.00035229,0.00330909,0.00132378,0.00107720,-0.00439623,0.00040548,-
 0.01116367,-0.01663179,0.00277480,-0.00228852,-0.00167510,-0.00059837,
 -0.00014954,0.00654100,-0.00293723,0.01216418,0.01509666,-0.00322523,0
 .00327601,-0.00005068,0.00024453,-0.00017335,-0.00106643,-0.00358225,0
 .00297688,-0.00008071,-0.33632588,-0.06521142,-0.02871744,-0.01678698,
 -0.00502619,-0.00143573,-0.00035112,-0.00061411,0.00011114,0.36003848,
 0.00657923,-0.00452220,-0.00065271,-0.00182372,-0.00579994,-0.00237802
 ,-0.02458811,0.00629404,-0.00085335,-0.06926903,-0.07526891,-0.0088655
 2,0.02233320,0.01114634,0.00325845,0.00073053,-0.00024727,0.00016979,0
 .06570017,0.06636613,-0.00025011,-0.00088872,0.00674395,-0.00117278,-0
 .00019585,0.00664878,-0.00188994,0.00086544,-0.00022109,-0.02986481,-0
 .00811350,-0.03238334,0.00166673,0.00066455,-0.00581373,0.00017578,0.0
 0006349,-0.00240339,0.03126578,0.00827641,0.02630333,-0.00499845,-0.00
 257111,0.00150798,0.00176233,0.00212232,-0.00062134,-0.00198887,0.0012
 1968,0.00054570,0.00104367,-0.00012410,0.00012836,-0.00039442,0.000456
 49,-0.00010148,0.00001408,-0.00004376,-0.00012103,0.00007717,0.0001143
 4,-0.00005721,0.09215984,0.01415731,0.00341133,-0.00207709,-0.01800976
 ,-0.00707763,-0.00873803,0.00673368,-0.00369638,-0.00184044,-0.0012356
 5,0.00115465,0.00002382,0.00152646,-0.00522293,0.00051063,0.00060886,-
 0.00010004,0.00045791,0.00035778,-0.00045933,0.00019056,-0.00822695,0.
 09326393,0.00610487,0.00121468,-0.00052534,-0.00960030,-0.00457185,-0.
 00651005,0.00269024,-0.00160449,-0.00146504,-0.00020728,0.00071346,0.0
 0015247,0.00112275,-0.00282894,-0.00036958,0.00036705,-0.00008249,0.00
 026624,0.00021749,-0.00024211,0.00023747,-0.00220009,0.01155463,0.0666
 9450,-0.21037451,0.05704653,-0.00798516,-0.01493774,-0.00624606,-0.000
 81948,0.01504860,-0.00811055,-0.00146852,-0.00300400,-0.00699619,-0.00
 093669,-0.03395593,0.00874576,0.00353755,0.00244854,-0.00052307,0.0009
 5033,0.00109538,-0.00000324,0.00007215,0.01593727,-0.05831135,-0.03259
 088,0.59397394,0.03694687,-0.13404672,-0.00282285,0.03426423,-0.011016
 00,-0.00422588,-0.00569022,-0.00747753,0.00062496,-0.00925177,-0.00376
 943,-0.00082120,-0.01123671,0.01381456,0.00021763,0.00064038,0.0001051
 6,-0.00035020,-0.00207929,0.00167964,-0.00028732,-0.02201754,-0.025616
 11,-0.00439593,0.05475042,1.00416224,0.00645219,-0.00956837,-0.0386248
 0,-0.00187771,0.00322771,-0.00862776,0.00127763,-0.00061529,-0.0012750
 8,-0.00251865,-0.00123842,0.00105360,-0.00529472,0.00267444,-0.0087702
 1,-0.00032397,0.00006368,0.00039850,-0.00059804,0.00029566,0.00103895,
 -0.01365332,-0.00170398,-0.00523934,0.03029570,0.16029512,0.23249938,-
 0.07331865,-0.02671078,-0.00295789,0.01259707,0.00386962,0.00099582,-0
 .00573194,0.00247793,0.00121496,-0.00106060,-0.00402691,-0.00028412,-0
 .00477096,0.00965359,-0.00001989,-0.00043270,0.00027254,-0.00030829,-0
 .00103716,0.00078675,-0.00016590,-0.06170294,0.03995123,0.02452029,-0.
 26945405,-0.10669636,-0.02243803,0.38760908,-0.00860115,0.00953429,0.0
 0702520,0.01797892,0.01260210,0.00292103,-0.00861865,0.00404445,0.0010
 5046,0.00385988,-0.00070388,0.00033457,-0.00394454,0.00054302,-0.00213
 186,-0.00049441,0.00017427,-0.00052165,-0.00008041,0.00010481,0.000069
 26,0.02981553,-0.09120094,-0.04061219,-0.10273563,-0.19172842,-0.03895
 281,0.12725826,0.41091748,-0.00458714,-0.00130211,0.01213416,0.0055913
 6,0.00347947,0.00278058,-0.00179772,0.00114624,0.00118068,0.00047990,-
 0.00086703,0.00061605,-0.00131414,0.00099856,0.00483713,-0.00020270,0.
 00007602,-0.00023119,-0.00007387,0.00012965,-0.00053197,0.02033964,-0.
 03949012,-0.05048164,-0.02065264,-0.03685818,-0.07298313,0.01575831,0.
 14995398,0.10981220,-0.00868808,0.05185300,0.00808137,-0.00356335,-0.0
 0010359,0.00212335,-0.00170305,0.00385472,0.00031477,0.00166221,0.0022
 3023,0.00057225,0.00204128,0.00331839,0.00037975,-0.00077614,0.0004087
 6,-0.00017115,-0.00023210,-0.00005173,-0.00004699,-0.00510086,0.010883
 94,0.00877282,-0.10153365,0.02854745,0.00610689,0.00848093,-0.06209003
 ,-0.01784987,0.10990834,0.04055984,-0.06247566,-0.02091451,-0.00049393
 ,-0.00726041,0.00170833,0.00378038,-0.00050427,-0.00119799,0.00142552,
 -0.00237918,-0.00060747,0.00052270,0.00888696,0.00376656,0.00106679,-0
 .00009418,0.00047641,0.00083130,-0.00016046,0.00010386,-0.00433276,0.0
 1310949,0.00826606,0.02049582,-0.65137048,-0.11237248,-0.03725941,-0.0
 7163882,-0.02460541,-0.03012302,0.77989167,0.00571793,-0.01508161,0.01
 179236,0.00161511,-0.00126550,0.00460627,-0.00012191,-0.00008760,0.000
 73870,0.00057393,-0.00059106,-0.00026052,0.00058992,0.00202346,0.00052
 677,0.00030638,-0.00003838,0.00004648,0.00017084,-0.00002922,-0.000028
 84,-0.00053346,-0.00038894,0.00495453,0.00344724,-0.11277515,-0.100435
 69,-0.01014754,-0.02100861,0.01435638,-0.00190825,0.14905942,0.0645544
 5,0.00555867,0.00524788,-0.00336249,-0.05720231,-0.02687707,-0.0433368
 3,0.01028109,-0.00597584,-0.00435706,-0.00371334,-0.00120390,0.0005123
 3,-0.00206821,-0.00558014,-0.00044346,-0.00007259,0.00041432,0.0001006
 2,-0.00034706,-0.00070713,0.00047720,-0.02107111,-0.02086405,-0.020880
 04,-0.02940273,0.00085429,0.00217425,0.02262332,0.03106433,0.01716399,
 0.00630489,-0.00119924,-0.00024826,0.08336856,-0.00373324,0.00231627,0
 .00088720,-0.01521312,0.00501578,-0.01073004,-0.00061739,-0.00081703,-
 0.00155186,-0.00116488,-0.00134733,0.00023178,-0.00175031,0.00219583,0
 .00028315,-0.00064948,0.00027326,-0.00037040,-0.00032732,-0.00007838,0
 .00016205,-0.00200159,-0.00087372,0.03461075,0.03100584,0.01045642,0.0
 0088202,-0.00530079,-0.06611304,-0.04705738,-0.00633806,-0.00842963,-0
 .00073815,0.00996725,0.10268030,-0.00314277,0.00158197,-0.00012294,-0.
 03999384,-0.01490199,-0.01447123,0.00158081,-0.00461316,-0.00173110,-0
 .00234579,-0.00103119,0.00002763,-0.00220224,-0.00196099,-0.00029772,-
 0.00028835,0.00041938,-0.00037445,-0.00036967,-0.00048472,0.00006157,-
 0.00280211,0.01764270,-0.01902310,0.01049087,0.00369021,-0.00006798,0.
 00063040,-0.04409800,-0.01283792,-0.00253468,-0.00588700,-0.00089957,0
 .00320068,-0.03444989,0.60296669,0.00047153,-0.00188749,0.00931102,-0.
 05675622,-0.01319295,-0.02531646,-0.01938600,-0.00154676,-0.00309846,0
 .00229937,0.00332969,-0.00119242,0.00470882,0.01023061,0.00041200,0.00
 035414,-0.00047435,0.00079000,0.00046191,0.00029882,-0.00020693,-0.016
 03873,0.03764358,0.01786972,0.03398609,0.00096692,0.00083406,-0.013831
 14,-0.02607075,-0.01310882,-0.00683886,0.00435248,0.00043714,0.0037666
 1,-0.00491805,0.01881960,0.05430303,-0.02173694,-0.01683218,-0.0097066
 2,-0.00339160,-0.07270268,-0.02331286,-0.00416725,0.01219055,0.0096776
 6,0.00688235,-0.00056494,-0.00019961,0.00212425,-0.00008331,-0.0011257
 0,0.00028654,-0.00070618,0.00008340,0.00034880,0.00097159,-0.00091802,
 0.00787994,0.01175103,0.00833797,0.01040939,-0.00423971,-0.00220030,-0
 .00538691,-0.00921604,-0.00496496,-0.00206394,0.00269836,0.00086275,0.
 01326995,-0.02217700,0.00989364,-0.01094052,0.09967179,0.00648919,-0.0
 0176267,0.00249012,-0.03960973,-0.03972147,-0.05658155,0.00083507,0.01
 364586,0.00298486,0.00487137,0.00146792,0.00083540,0.00283934,0.007109
 37,0.00062646,0.00005344,-0.00068429,0.00008200,0.00061082,0.00140323,
 0.00036276,-0.00186286,0.01906381,0.01781396,0.01560838,-0.00144815,0.
 00148341,-0.00673076,-0.01318545,-0.00992220,-0.00373521,0.00205695,0.
 00005113,0.03861979,0.00120667,-0.01480081,-0.00923561,0.01207179,0.06
 011547,-0.00093492,0.00004806,0.00029873,-0.00691696,-0.00336160,-0.00
 214412,-0.00033795,-0.00082213,-0.00006001,-0.00035637,-0.00036445,0.0
 0001173,-0.00039348,-0.00028356,-0.00011253,-0.00006312,0.00010001,-0.
 00017967,-0.00002968,-0.00010007,-0.00000299,0.00030102,-0.00521509,0.
 00381336,0.00017280,0.00000134,-0.00043629,0.00002976,0.00265864,0.000
 25370,0.00003846,0.00037353,0.00010092,-0.01802578,0.00104115,0.018957
 11,0.01249945,0.00648596,-0.00875323,0.01401676,0.00027812,0.00000747,
 0.00054880,-0.00230483,0.00075691,-0.00086076,-0.00017901,-0.00039231,
 -0.00011585,-0.00015160,0.00024345,-0.00003321,0.00005572,-0.00026960,
 -0.00003824,0.00007718,-0.00002661,0.00006280,0.00002114,-0.00002606,0
 .00000779,-0.00229050,0.01155666,-0.01035953,0.00047234,-0.00095363,-0
 .00078699,0.00111121,-0.00731928,-0.00063874,-0.00032611,-0.00027338,0
 .00005858,0.00158936,-0.02310173,0.07419905,0.00220876,-0.00076129,-0.
 00122356,-0.00056178,0.02055940,-0.00026915,-0.00015018,-0.00003253,-0
 .00103079,0.00010955,0.00088761,-0.00017813,-0.00040074,-0.00008689,-0
 .00010491,-0.00000863,-0.00004058,-0.00004799,-0.00010491,-0.00000521,
 -0.00001327,0.00001283,-0.00002783,0.00001650,-0.00002755,-0.00001444,
 -0.00056878,0.00479456,-0.00650509,0.00005115,-0.00084306,-0.00044986,
 -0.00006735,-0.00084395,0.00127087,-0.00010503,0.00014725,-0.00000244,
 0.01037929,0.05663412,-0.53842907,0.00368516,0.00150085,-0.00554100,-0
 .01174670,-0.06082014,0.54897648\\0.00000469,-0.00000360,0.00000129,-0
 .00001737,-0.00001027,-0.00001385,-0.00000261,-0.00000637,0.00000073,0
 .00000145,0.00000460,-0.00000124,0.00000400,0.00000121,0.00000150,-0.0
 0000064,-0.00000093,0.00000227,-0.00000006,-0.00000100,0.00000258,-0.0
 0000226,-0.00000786,-0.00001026,-0.00000622,0.00000233,0.00000629,-0.0
 0000016,0.00001336,0.00000508,0.00000105,-0.00000260,-0.00000465,0.000
 00597,-0.00000593,0.00000026,0.00001393,0.00001417,0.00001053,-0.00000
 177,0.00000289,-0.00000055\\\@
 The archive entry for this job was punched.


 MYSTERY IS THE WISDOM OF BLOCKHEADS... HORACE WALPOLE 
 Job cpu time:       0 days  0 hours 58 minutes 44.9 seconds.
 Elapsed time:       0 days  0 hours  1 minutes 13.9 seconds.
 File lengths (MBytes):  RWF=    127 Int=      0 D2E=      0 Chk=      6 Scr=      1
 Normal termination of Gaussian 16 at Thu Dec  7 10:07:16 2023.
