 Entering Gaussian System, Link 0=/opt/soft/g16b/g16/g16
 Initial command:
 /opt/soft/g16b/g16/l1.exe "/scratch/gongke2021/RC/Gau-13465.inp" -scrdir="/scratch/gongke2021/RC/"
 Entering Link 1 = /opt/soft/g16b/g16/l1.exe PID=     13466.
  
 Copyright (c) 1988,1990,1992,1993,1995,1998,2003,2009,2016,
            Gaussian, Inc.  All Rights Reserved.
  
 This is part of the Gaussian(R) 16 program.  It is based on
 the Gaussian(R) 09 system (copyright 2009, Gaussian, Inc.),
 the Gaussian(R) 03 system (copyright 2003, Gaussian, Inc.),
 the Gaussian(R) 98 system (copyright 1998, Gaussian, Inc.),
 the Gaussian(R) 94 system (copyright 1995, Gaussian, Inc.),
 the Gaussian 92(TM) system (copyright 1992, Gaussian, Inc.),
 the Gaussian 90(TM) system (copyright 1990, Gaussian, Inc.),
 the Gaussian 88(TM) system (copyright 1988, Gaussian, Inc.),
 the Gaussian 86(TM) system (copyright 1986, Carnegie Mellon
 University), and the Gaussian 82(TM) system (copyright 1983,
 Carnegie Mellon University). Gaussian is a federally registered
 trademark of Gaussian, Inc.
  
 This software contains proprietary and confidential information,
 including trade secrets, belonging to Gaussian, Inc.
  
 This software is provided under written license and may be
 used, copied, transmitted, or stored only in accord with that
 written license.
  
 The following legend is applicable only to US Government
 contracts under FAR:
  
                    RESTRICTED RIGHTS LEGEND
  
 Use, reproduction and disclosure by the US Government is
 subject to restrictions as set forth in subparagraphs (a)
 and (c) of the Commercial Computer Software - Restricted
 Rights clause in FAR 52.227-19.
  
 Gaussian, Inc.
 340 Quinnipiac St., Bldg. 40, Wallingford CT 06492
  
  
 ---------------------------------------------------------------
 Warning -- This program may not be used in any manner that
 competes with the business of Gaussian, Inc. or will provide
 assistance to any competitor of Gaussian, Inc.  The licensee
 of this program is prohibited from giving any competitor of
 Gaussian, Inc. access to this program.  By using this program,
 the user acknowledges that Gaussian, Inc. is engaged in the
 business of creating and licensing software in the field of
 computational chemistry and represents and warrants to the
 licensee that it is not a competitor of Gaussian, Inc. and that
 it will not use this program in any manner prohibited above.
 ---------------------------------------------------------------
  

 Cite this work as:
 Gaussian 16, Revision A.03,
 M. J. Frisch, G. W. Trucks, H. B. Schlegel, G. E. Scuseria, 
 M. A. Robb, J. R. Cheeseman, G. Scalmani, V. Barone, 
 G. A. Petersson, H. Nakatsuji, X. Li, M. Caricato, A. V. Marenich, 
 J. Bloino, B. G. Janesko, R. Gomperts, B. Mennucci, H. P. Hratchian, 
 J. V. Ortiz, A. F. Izmaylov, J. L. Sonnenberg, D. Williams-Young, 
 F. Ding, F. Lipparini, F. Egidi, J. Goings, B. Peng, A. Petrone, 
 T. Henderson, D. Ranasinghe, V. G. Zakrzewski, J. Gao, N. Rega, 
 G. Zheng, W. Liang, M. Hada, M. Ehara, K. Toyota, R. Fukuda, 
 J. Hasegawa, M. Ishida, T. Nakajima, Y. Honda, O. Kitao, H. Nakai, 
 T. Vreven, K. Throssell, J. A. Montgomery, Jr., J. E. Peralta, 
 F. Ogliaro, M. J. Bearpark, J. J. Heyd, E. N. Brothers, K. N. Kudin, 
 V. N. Staroverov, T. A. Keith, R. Kobayashi, J. Normand, 
 K. Raghavachari, A. P. Rendell, J. C. Burant, S. S. Iyengar, 
 J. Tomasi, M. Cossi, J. M. Millam, M. Klene, C. Adamo, R. Cammi, 
 J. W. Ochterski, R. L. Martin, K. Morokuma, O. Farkas, 
 J. B. Foresman, and D. J. Fox, Gaussian, Inc., Wallingford CT, 2016.
 
 ******************************************
 Gaussian 16:  ES64L-G16RevA.03 25-Dec-2016
                 5-Jun-2023 
 ******************************************
 %chk=RC.chk
 %mem=10GB
 %nprocshared=20
 Will use up to   20 processors via shared memory.
 ----------------------------
 # opt freq 6-31+g(d,p) m062x
 ----------------------------
 1/18=20,19=15,26=3,38=1/1,3;
 2/9=110,12=2,17=6,18=5,40=1/2;
 3/5=1,6=6,7=111,11=2,25=1,30=1,71=1,74=-55/1,2,3;
 4//1;
 5/5=2,38=5/2;
 6/7=2,8=2,9=2,10=2,28=1/1;
 7//1,2,3,16;
 1/18=20,19=15,26=3/3(2);
 2/9=110/2;
 99//99;
 2/9=110/2;
 3/5=1,6=6,7=111,11=2,25=1,30=1,71=1,74=-55/1,2,3;
 4/5=5,16=3,69=1/1;
 5/5=2,38=5/2;
 7//1,2,3,16;
 1/18=20,19=15,26=3/3(-5);
 2/9=110/2;
 6/7=2,8=2,9=2,10=2,19=2,28=1/1;
 99/9=1/99;
 --
 RC
 --
 Symbolic Z-matrix:
 Charge = -1 Multiplicity = 2
 N                     0.504    -1.058     0. 
 N                     1.052     0.161     0. 
 C                     0.111     1.132     0. 
 C                    -1.069     0.43      0. 
 N                    -0.78     -0.902     0. 
 H                     0.348     2.184     0. 
 H                    -2.086     0.788     0. 
 H                     2.058     0.247    -0.001 
 C                     1.479    -2.2812   -0.0561 
 O                     2.649    -1.9093    0.0805 
 O                     0.8869   -3.3641   -0.0984 
 

 GradGradGradGradGradGradGradGradGradGradGradGradGradGradGradGradGradGrad
 Berny optimization.
 Initialization pass.
                           ----------------------------
                           !    Initial Parameters    !
                           ! (Angstroms and Degrees)  !
 --------------------------                            --------------------------
 ! Name  Definition              Value          Derivative Info.                !
 --------------------------------------------------------------------------------
 ! R1    R(1,2)                  1.3365         estimate D2E/DX2                !
 ! R2    R(1,5)                  1.2934         estimate D2E/DX2                !
 ! R3    R(1,9)                  1.5652         estimate D2E/DX2                !
 ! R4    R(2,3)                  1.3522         estimate D2E/DX2                !
 ! R5    R(2,8)                  1.0097         estimate D2E/DX2                !
 ! R6    R(3,4)                  1.373          estimate D2E/DX2                !
 ! R7    R(3,6)                  1.0784         estimate D2E/DX2                !
 ! R8    R(4,5)                  1.363          estimate D2E/DX2                !
 ! R9    R(4,7)                  1.0782         estimate D2E/DX2                !
 ! R10   R(9,10)                 1.2353         estimate D2E/DX2                !
 ! R11   R(9,11)                 1.2349         estimate D2E/DX2                !
 ! A1    A(2,1,5)              107.279          estimate D2E/DX2                !
 ! A2    A(2,1,9)              117.2168         estimate D2E/DX2                !
 ! A3    A(5,1,9)              135.4478         estimate D2E/DX2                !
 ! A4    A(1,2,3)              111.6927         estimate D2E/DX2                !
 ! A5    A(1,2,8)              119.0924         estimate D2E/DX2                !
 ! A6    A(3,2,8)              129.2149         estimate D2E/DX2                !
 ! A7    A(2,3,4)              103.352          estimate D2E/DX2                !
 ! A8    A(2,3,6)              123.203          estimate D2E/DX2                !
 ! A9    A(4,3,6)              133.445          estimate D2E/DX2                !
 ! A10   A(3,4,5)              108.5075         estimate D2E/DX2                !
 ! A11   A(3,4,7)              129.8581         estimate D2E/DX2                !
 ! A12   A(5,4,7)              121.6344         estimate D2E/DX2                !
 ! A13   A(1,5,4)              109.1688         estimate D2E/DX2                !
 ! A14   A(1,9,10)             110.5335         estimate D2E/DX2                !
 ! A15   A(1,9,11)             112.8201         estimate D2E/DX2                !
 ! A16   A(10,9,11)            136.2137         estimate D2E/DX2                !
 ! D1    D(5,1,2,3)              0.0            estimate D2E/DX2                !
 ! D2    D(5,1,2,8)           -179.9351         estimate D2E/DX2                !
 ! D3    D(9,1,2,3)            177.6902         estimate D2E/DX2                !
 ! D4    D(9,1,2,8)             -2.2449         estimate D2E/DX2                !
 ! D5    D(2,1,5,4)              0.0            estimate D2E/DX2                !
 ! D6    D(9,1,5,4)           -177.0716         estimate D2E/DX2                !
 ! D7    D(2,1,9,10)             8.6187         estimate D2E/DX2                !
 ! D8    D(2,1,9,11)          -177.6771         estimate D2E/DX2                !
 ! D9    D(5,1,9,10)          -174.5259         estimate D2E/DX2                !
 ! D10   D(5,1,9,11)            -0.8216         estimate D2E/DX2                !
 ! D11   D(1,2,3,4)              0.0            estimate D2E/DX2                !
 ! D12   D(1,2,3,6)            180.0            estimate D2E/DX2                !
 ! D13   D(8,2,3,4)            179.9268         estimate D2E/DX2                !
 ! D14   D(8,2,3,6)             -0.0732         estimate D2E/DX2                !
 ! D15   D(2,3,4,5)              0.0            estimate D2E/DX2                !
 ! D16   D(2,3,4,7)            180.0            estimate D2E/DX2                !
 ! D17   D(6,3,4,5)            180.0            estimate D2E/DX2                !
 ! D18   D(6,3,4,7)              0.0            estimate D2E/DX2                !
 ! D19   D(3,4,5,1)              0.0            estimate D2E/DX2                !
 ! D20   D(7,4,5,1)            180.0            estimate D2E/DX2                !
 --------------------------------------------------------------------------------
 Trust Radius=3.00D-01 FncErr=1.00D-07 GrdErr=1.00D-06 EigMax=2.50D+02 EigMin=1.00D-04
 Number of steps in this run=     57 maximum allowed number of steps=    100.
 GradGradGradGradGradGradGradGradGradGradGradGradGradGradGradGradGradGrad

                          Input orientation:                          
 ---------------------------------------------------------------------
 Center     Atomic      Atomic             Coordinates (Angstroms)
 Number     Number       Type             X           Y           Z
 ---------------------------------------------------------------------
      1          7           0        0.504000   -1.058000    0.000000
      2          7           0        1.052000    0.161000    0.000000
      3          6           0        0.111000    1.132000    0.000000
      4          6           0       -1.069000    0.430000    0.000000
      5          7           0       -0.780000   -0.902000    0.000000
      6          1           0        0.348000    2.184000    0.000000
      7          1           0       -2.086000    0.788000    0.000000
      8          1           0        2.058000    0.247000   -0.001000
      9          6           0        1.479000   -2.281200   -0.056100
     10          8           0        2.649000   -1.909300    0.080500
     11          8           0        0.886900   -3.364100   -0.098400
 ---------------------------------------------------------------------
                    Distance matrix (angstroms):
                    1          2          3          4          5
     1  N    0.000000
     2  N    1.336512   0.000000
     3  C    2.224983   1.352155   0.000000
     4  C    2.165288   2.137990   1.373027   0.000000
     5  N    1.293442   2.118064   2.220594   1.362991   0.000000
     6  H    3.245751   2.141996   1.078366   2.254863   3.285693
     7  H    3.180537   3.200027   2.223768   1.078171   2.135822
     8  H    2.029271   1.009670   2.138699   3.132350   3.061772
     9  C    1.565245   2.479882   3.677568   3.721029   2.647342
    10  O    2.309159   2.615919   3.961998   4.393442   3.574797
    11  O    2.339742   3.530336   4.563619   4.269710   2.974924
                    6          7          8          9         10
     6  H    0.000000
     7  H    2.805917   0.000000
     8  H    2.583809   4.179165   0.000000
     9  C    4.606552   4.704504   2.594238   0.000000
    10  O    4.696401   5.449966   2.237309   1.235261   0.000000
    11  O    5.575079   5.107617   3.797500   1.234927   2.292039
                   11
    11  O    0.000000
 Stoichiometry    C3H3N3O2(1-,2)
 Framework group  C1[X(C3H3N3O2)]
 Deg. of freedom    27
 Full point group                 C1      NOp   1
 Largest Abelian subgroup         C1      NOp   1
 Largest concise Abelian subgroup C1      NOp   1
                         Standard orientation:                         
 ---------------------------------------------------------------------
 Center     Atomic      Atomic             Coordinates (Angstroms)
 Number     Number       Type             X           Y           Z
 ---------------------------------------------------------------------
      1          7           0        0.005147   -0.165872    0.013754
      2          7           0       -0.721050    0.955375   -0.027589
      3          6           0       -2.047333    0.692135   -0.027494
      4          6           0       -2.098407   -0.679219    0.017041
      5          7           0       -0.822921   -1.159127    0.040930
      6          1           0       -2.802122    1.461722   -0.057516
      7          1           0       -2.951161   -1.338767    0.033142
      8          1           0       -0.247124    1.846494   -0.054699
      9          6           0        1.562041   -0.012724   -0.037391
     10          8           0        1.884022    1.175646    0.062476
     11          8           0        2.150274   -1.098550   -0.040416
 ---------------------------------------------------------------------
 Rotational constants (GHZ):           5.4813880           1.7043840           1.3012044
 Standard basis: 6-31+G(d,p) (6D, 7F)
 There are   167 symmetry adapted cartesian basis functions of A   symmetry.
 There are   167 symmetry adapted basis functions of A   symmetry.
   167 basis functions,   277 primitive gaussians,   167 cartesian basis functions
    30 alpha electrons       29 beta electrons
       nuclear repulsion energy       359.2729121159 Hartrees.
 NAtoms=   11 NActive=   11 NUniq=   11 SFac= 1.00D+00 NAtFMM=   60 NAOKFM=F Big=F
 Integral buffers will be    131072 words long.
 Raffenetti 2 integral format.
 Two-electron integral symmetry is turned on.
 One-electron integrals computed using PRISM.
 NBasis=   167 RedAO= T EigKep=  2.53D-05  NBF=   167
 NBsUse=   167 1.00D-06 EigRej= -1.00D+00 NBFU=   167
 ExpMin= 4.38D-02 ExpMax= 5.48D+03 ExpMxC= 8.25D+02 IAcc=3 IRadAn=         5 AccDes= 0.00D+00
 Harris functional with IExCor= 1009 and IRadAn=       5 diagonalized for initial guess.
 HarFok:  IExCor= 1009 AccDes= 0.00D+00 IRadAn=         5 IDoV= 1 UseB2=F ITyADJ=14
 ICtDFT=  3500011 ScaDFX=  1.000000  1.000000  1.000000  1.000000
 FoFCou: FMM=F IPFlag=           0 FMFlag=      100000 FMFlg1=           0
         NFxFlg=           0 DoJE=T BraDBF=F KetDBF=T FulRan=T
         wScrn=  0.000000 ICntrl=       500 IOpCl=  0 I1Cent=   200000004 NGrid=           0
         NMat0=    1 NMatS0=      1 NMatT0=    0 NMatD0=    1 NMtDS0=    0 NMtDT0=    0
 Petite list used in FoFCou.
 Initial guess <Sx>= 0.0000 <Sy>= 0.0000 <Sz>= 0.5000 <S**2>= 0.7500 S= 0.5000
 Keep R1 and R2 ints in memory in canonical form, NReq=216648901.
 Requested convergence on RMS density matrix=1.00D-08 within 128 cycles.
 Requested convergence on MAX density matrix=1.00D-06.
 Requested convergence on             energy=1.00D-06.
 No special actions if energy rises.
 SCF Done:  E(UM062X) =  -430.640197726     A.U. after   22 cycles
            NFock= 22  Conv=0.64D-08     -V/T= 2.0076
 <Sx>= 0.0000 <Sy>= 0.0000 <Sz>= 0.5000 <S**2>= 0.7633 S= 0.5066
 <L.S>= 0.000000000000E+00
 Annihilation of the first spin contaminant:
 S**2 before annihilation     0.7633,   after     0.7501

 **********************************************************************

            Population analysis using the SCF density.

 **********************************************************************

 Orbital symmetries:
 Alpha Orbitals:
       Occupied  (A) (A) (A) (A) (A) (A) (A) (A) (A) (A) (A) (A)
                 (A) (A) (A) (A) (A) (A) (A) (A) (A) (A) (A) (A)
                 (A) (A) (A) (A) (A) (A)
       Virtual   (A) (A) (A) (A) (A) (A) (A) (A) (A) (A) (A) (A)
                 (A) (A) (A) (A) (A) (A) (A) (A) (A) (A) (A) (A)
                 (A) (A) (A) (A) (A) (A) (A) (A) (A) (A) (A) (A)
                 (A) (A) (A) (A) (A) (A) (A) (A) (A) (A) (A) (A)
                 (A) (A) (A) (A) (A) (A) (A) (A) (A) (A) (A) (A)
                 (A) (A) (A) (A) (A) (A) (A) (A) (A) (A) (A) (A)
                 (A) (A) (A) (A) (A) (A) (A) (A) (A) (A) (A) (A)
                 (A) (A) (A) (A) (A) (A) (A) (A) (A) (A) (A) (A)
                 (A) (A) (A) (A) (A) (A) (A) (A) (A) (A) (A) (A)
                 (A) (A) (A) (A) (A) (A) (A) (A) (A) (A) (A) (A)
                 (A) (A) (A) (A) (A) (A) (A) (A) (A) (A) (A) (A)
                 (A) (A) (A) (A) (A)
 Beta  Orbitals:
       Occupied  (A) (A) (A) (A) (A) (A) (A) (A) (A) (A) (A) (A)
                 (A) (A) (A) (A) (A) (A) (A) (A) (A) (A) (A) (A)
                 (A) (A) (A) (A) (A)
       Virtual   (A) (A) (A) (A) (A) (A) (A) (A) (A) (A) (A) (A)
                 (A) (A) (A) (A) (A) (A) (A) (A) (A) (A) (A) (A)
                 (A) (A) (A) (A) (A) (A) (A) (A) (A) (A) (A) (A)
                 (A) (A) (A) (A) (A) (A) (A) (A) (A) (A) (A) (A)
                 (A) (A) (A) (A) (A) (A) (A) (A) (A) (A) (A) (A)
                 (A) (A) (A) (A) (A) (A) (A) (A) (A) (A) (A) (A)
                 (A) (A) (A) (A) (A) (A) (A) (A) (A) (A) (A) (A)
                 (A) (A) (A) (A) (A) (A) (A) (A) (A) (A) (A) (A)
                 (A) (A) (A) (A) (A) (A) (A) (A) (A) (A) (A) (A)
                 (A) (A) (A) (A) (A) (A) (A) (A) (A) (A) (A) (A)
                 (A) (A) (A) (A) (A) (A) (A) (A) (A) (A) (A) (A)
                 (A) (A) (A) (A) (A) (A)
 The electronic state is 2-A.
 Alpha  occ. eigenvalues --  -19.43951 -19.42791 -14.67949 -14.66628 -14.61050
 Alpha  occ. eigenvalues --  -10.51503 -10.43356 -10.42900  -1.07677  -0.99855
 Alpha  occ. eigenvalues --   -0.91856  -0.84973  -0.77025  -0.58405  -0.56631
 Alpha  occ. eigenvalues --   -0.53305  -0.43332  -0.41732  -0.38292  -0.36864
 Alpha  occ. eigenvalues --   -0.36012  -0.32699  -0.31936  -0.22891  -0.20673
 Alpha  occ. eigenvalues --   -0.19228  -0.18219  -0.16587  -0.16078   0.01300
 Alpha virt. eigenvalues --    0.12592   0.13733   0.16644   0.18344   0.18957
 Alpha virt. eigenvalues --    0.19071   0.19284   0.20826   0.21854   0.22044
 Alpha virt. eigenvalues --    0.24691   0.26106   0.27042   0.27445   0.29195
 Alpha virt. eigenvalues --    0.33251   0.34190   0.34450   0.35578   0.35893
 Alpha virt. eigenvalues --    0.36818   0.37464   0.38434   0.39243   0.41094
 Alpha virt. eigenvalues --    0.41159   0.42899   0.43662   0.44444   0.46108
 Alpha virt. eigenvalues --    0.46286   0.46880   0.47367   0.48124   0.48909
 Alpha virt. eigenvalues --    0.50446   0.50849   0.54809   0.56121   0.59833
 Alpha virt. eigenvalues --    0.64067   0.64580   0.68813   0.70521   0.85454
 Alpha virt. eigenvalues --    0.86284   0.86612   0.90270   0.98262   0.99773
 Alpha virt. eigenvalues --    1.01441   1.04542   1.06318   1.09456   1.09662
 Alpha virt. eigenvalues --    1.11054   1.12019   1.15579   1.18212   1.18657
 Alpha virt. eigenvalues --    1.22721   1.25387   1.29264   1.33893   1.34443
 Alpha virt. eigenvalues --    1.38064   1.44131   1.44648   1.45926   1.47138
 Alpha virt. eigenvalues --    1.51624   1.53108   1.54561   1.54938   1.55257
 Alpha virt. eigenvalues --    1.56736   1.59080   1.60406   1.61664   1.69799
 Alpha virt. eigenvalues --    1.71269   1.72846   1.73955   1.81067   1.88848
 Alpha virt. eigenvalues --    1.94424   1.97589   2.04620   2.05290   2.05961
 Alpha virt. eigenvalues --    2.08301   2.12641   2.15589   2.19786   2.22354
 Alpha virt. eigenvalues --    2.23229   2.25484   2.29935   2.33173   2.35552
 Alpha virt. eigenvalues --    2.40588   2.42673   2.48552   2.50384   2.52001
 Alpha virt. eigenvalues --    2.55098   2.60276   2.63685   2.64155   2.67017
 Alpha virt. eigenvalues --    2.73850   2.77593   2.84246   2.84999   2.93739
 Alpha virt. eigenvalues --    2.94616   3.01765   3.02981   3.08759   3.10330
 Alpha virt. eigenvalues --    3.16959   3.24362   3.31480   3.32934   3.39072
 Alpha virt. eigenvalues --    3.46057   3.48908   3.69945   3.94774   4.25069
 Alpha virt. eigenvalues --    4.34341   4.42669   4.52015   4.57455   4.76670
 Alpha virt. eigenvalues --    4.84470   4.91843
  Beta  occ. eigenvalues --  -19.43917 -19.42708 -14.67391 -14.66139 -14.60638
  Beta  occ. eigenvalues --  -10.51510 -10.43205 -10.42999  -1.06276  -0.99619
  Beta  occ. eigenvalues --   -0.91650  -0.83451  -0.76002  -0.56998  -0.56143
  Beta  occ. eigenvalues --   -0.52491  -0.42809  -0.38717  -0.37751  -0.36657
  Beta  occ. eigenvalues --   -0.35706  -0.32554  -0.31166  -0.19855  -0.18441
  Beta  occ. eigenvalues --   -0.17492  -0.16396  -0.15953  -0.15648
  Beta virt. eigenvalues --    0.11571   0.13368   0.15492   0.15627   0.18320
  Beta virt. eigenvalues --    0.18477   0.18688   0.18883   0.19834   0.21281
  Beta virt. eigenvalues --    0.21827   0.23588   0.25834   0.26386   0.26711
  Beta virt. eigenvalues --    0.30405   0.33127   0.33936   0.34318   0.35445
  Beta virt. eigenvalues --    0.35805   0.36514   0.37600   0.38343   0.38765
  Beta virt. eigenvalues --    0.40909   0.41209   0.42531   0.43311   0.44352
  Beta virt. eigenvalues --    0.46074   0.46345   0.47183   0.47519   0.47879
  Beta virt. eigenvalues --    0.48742   0.50028   0.50663   0.54571   0.55626
  Beta virt. eigenvalues --    0.60108   0.64167   0.64653   0.68867   0.70810
  Beta virt. eigenvalues --    0.85668   0.86455   0.86852   0.90154   0.98285
  Beta virt. eigenvalues --    0.99803   1.01497   1.04543   1.06569   1.09331
  Beta virt. eigenvalues --    1.09651   1.11863   1.13372   1.17697   1.18454
  Beta virt. eigenvalues --    1.20782   1.22882   1.25544   1.29364   1.33780
  Beta virt. eigenvalues --    1.34672   1.38154   1.44481   1.45387   1.46082
  Beta virt. eigenvalues --    1.47233   1.51928   1.53246   1.54941   1.55988
  Beta virt. eigenvalues --    1.56099   1.56844   1.59276   1.61012   1.61824
  Beta virt. eigenvalues --    1.70138   1.71446   1.73718   1.74681   1.81461
  Beta virt. eigenvalues --    1.89041   1.94915   1.97761   2.04813   2.05389
  Beta virt. eigenvalues --    2.06130   2.08495   2.12983   2.15940   2.20072
  Beta virt. eigenvalues --    2.22609   2.23614   2.25487   2.30187   2.33552
  Beta virt. eigenvalues --    2.36702   2.40708   2.43040   2.48990   2.50835
  Beta virt. eigenvalues --    2.52493   2.55597   2.60661   2.63923   2.64372
  Beta virt. eigenvalues --    2.67300   2.74400   2.78226   2.84796   2.85444
  Beta virt. eigenvalues --    2.94245   2.95099   3.02063   3.03496   3.09130
  Beta virt. eigenvalues --    3.10621   3.17450   3.24645   3.31504   3.33031
  Beta virt. eigenvalues --    3.39516   3.46046   3.49163   3.70065   3.95394
  Beta virt. eigenvalues --    4.25213   4.34340   4.42671   4.52033   4.57447
  Beta virt. eigenvalues --    4.76761   4.84556   4.92243
          Condensed to atoms (all electrons):
               1          2          3          4          5          6
     1  N    8.318472  -0.794624   0.128449   0.066953  -0.387867   0.006011
     2  N   -0.794624   8.072324  -0.192199  -0.049414   0.001572  -0.051397
     3  C    0.128449  -0.192199   6.109940  -0.020750  -0.052675   0.375583
     4  C    0.066953  -0.049414  -0.020750   5.615852   0.152067  -0.002606
     5  N   -0.387867   0.001572  -0.052675   0.152067   7.607528   0.002559
     6  H    0.006011  -0.051397   0.375583  -0.002606   0.002559   0.528918
     7  H   -0.010245  -0.011865  -0.027287   0.393304  -0.036594   0.000572
     8  H    0.014363   0.287591  -0.011431  -0.001092   0.004942  -0.000960
     9  C   -0.056041   0.065264  -0.038380   0.000837   0.008211  -0.000297
    10  O   -0.137306  -0.005561   0.021585  -0.018006   0.027272  -0.000058
    11  O   -0.116252   0.045805   0.000562  -0.008900  -0.044031   0.000010
               7          8          9         10         11
     1  N   -0.010245   0.014363  -0.056041  -0.137306  -0.116252
     2  N   -0.011865   0.287591   0.065264  -0.005561   0.045805
     3  C   -0.027287  -0.011431  -0.038380   0.021585   0.000562
     4  C    0.393304  -0.001092   0.000837  -0.018006  -0.008900
     5  N   -0.036594   0.004942   0.008211   0.027272  -0.044031
     6  H    0.000572  -0.000960  -0.000297  -0.000058   0.000010
     7  H    0.564994  -0.000066   0.000727  -0.000016   0.000038
     8  H   -0.000066   0.344805   0.002667   0.011197   0.001137
     9  C    0.000727   0.002667   4.491179   0.375671   0.446193
    10  O   -0.000016   0.011197   0.375671   8.493355  -0.132198
    11  O    0.000038   0.001137   0.446193  -0.132198   8.386590
          Atomic-Atomic Spin Densities.
               1          2          3          4          5          6
     1  N    0.883312  -0.465294   0.223449   0.005182  -0.383678   0.000220
     2  N   -0.465294   0.879541  -0.421540   0.001164   0.190056   0.000595
     3  C    0.223449  -0.421540   0.659095   0.015791  -0.145203  -0.002909
     4  C    0.005182   0.001164   0.015791  -0.170626  -0.026500   0.004953
     5  N   -0.383678   0.190056  -0.145203  -0.026500   0.717204  -0.001413
     6  H    0.000220   0.000595  -0.002909   0.004953  -0.001413  -0.014166
     7  H    0.004510  -0.000325   0.002420   0.000193  -0.005708   0.000028
     8  H   -0.004006   0.005817  -0.003991   0.003272  -0.001938   0.000169
     9  C    0.015632   0.007025  -0.009129   0.000619   0.001410  -0.000133
    10  O   -0.025227   0.016640  -0.004518   0.000231   0.006689   0.000033
    11  O   -0.028859   0.007067  -0.003130   0.000306   0.012692  -0.000002
               7          8          9         10         11
     1  N    0.004510  -0.004006   0.015632  -0.025227  -0.028859
     2  N   -0.000325   0.005817   0.007025   0.016640   0.007067
     3  C    0.002420  -0.003991  -0.009129  -0.004518  -0.003130
     4  C    0.000193   0.003272   0.000619   0.000231   0.000306
     5  N   -0.005708  -0.001938   0.001410   0.006689   0.012692
     6  H    0.000028   0.000169  -0.000133   0.000033  -0.000002
     7  H    0.004003  -0.000002  -0.000043   0.000006   0.000005
     8  H   -0.000002  -0.013666   0.000089   0.000729  -0.000010
     9  C   -0.000043   0.000089   0.008309  -0.003048  -0.010612
    10  O    0.000006   0.000729  -0.003048   0.023398   0.003366
    11  O    0.000005  -0.000010  -0.010612   0.003366   0.057313
 Mulliken charges and spin densities:
               1          2
     1  N   -0.031912   0.225241
     2  N   -0.367495   0.220745
     3  C   -0.293398   0.310334
     4  C   -0.128247  -0.165415
     5  N   -0.282984   0.363611
     6  H    0.141666  -0.012624
     7  H    0.126440   0.005089
     8  H    0.346847  -0.013536
     9  C    0.703968   0.010119
    10  O   -0.635932   0.018300
    11  O   -0.578953   0.038136
 Sum of Mulliken charges =  -1.00000   1.00000
 Mulliken charges and spin densities with hydrogens summed into heavy atoms:
               1          2
     1  N   -0.031912   0.225241
     2  N   -0.020648   0.207209
     3  C   -0.151732   0.297710
     4  C   -0.001807  -0.160327
     5  N   -0.282984   0.363611
     9  C    0.703968   0.010119
    10  O   -0.635932   0.018300
    11  O   -0.578953   0.038136
 Electronic spatial extent (au):  <R**2>=            866.9455
 Charge=             -1.0000 electrons
 Dipole moment (field-independent basis, Debye):
    X=             -6.1946    Y=              3.0860    Z=             -0.2207  Tot=              6.9242
 Quadrupole moment (field-independent basis, Debye-Ang):
   XX=            -67.7884   YY=            -56.3691   ZZ=            -50.7145
   XY=             -0.4706   XZ=             -0.1327   YZ=             -0.4658
 Traceless Quadrupole moment (field-independent basis, Debye-Ang):
   XX=             -9.4978   YY=              1.9216   ZZ=              7.5762
   XY=             -0.4706   XZ=             -0.1327   YZ=             -0.4658
 Octapole moment (field-independent basis, Debye-Ang**2):
  XXX=            -32.7487  YYY=             17.6938  ZZZ=              0.2555  XYY=            -14.0453
  XXY=             -0.0464  XXZ=              0.0509  XZZ=             11.2903  YZZ=             -0.2400
  YYZ=             -0.5553  XYZ=             -0.5718
 Hexadecapole moment (field-independent basis, Debye-Ang**3):
 XXXX=           -930.1509 YYYY=           -299.4607 ZZZZ=            -63.7341 XXXY=             16.6416
 XXXZ=             -0.1517 YYYX=             -8.2457 YYYZ=             -0.8500 ZZZX=             -0.4475
 ZZZY=              0.2793 XXYY=           -212.2146 XXZZ=           -167.9722 YYZZ=            -64.0455
 XXYZ=             -2.4139 YYXZ=              0.6290 ZZXY=              2.3523
 N-N= 3.592729121159D+02 E-N=-1.736842381694D+03  KE= 4.273773904450D+02
                          Isotropic Fermi Contact Couplings
        Atom                 a.u.       MegaHertz       Gauss      10(-4) cm-1
     1  N(14)              0.07476      24.15414       8.61880       8.05695
     2  N(14)              0.05600      18.09506       6.45677       6.03586
     3  C(13)              0.02895      32.54829      11.61404      10.85694
     4  C(13)             -0.02890     -32.48521     -11.59153     -10.83590
     5  N(14)              0.07616      24.60633       8.78015       8.20779
     6  H(1)              -0.00359     -16.06708      -5.73313      -5.35940
     7  H(1)               0.00100       4.47674       1.59741       1.49328
     8  H(1)              -0.00629     -28.11862     -10.03342      -9.37936
     9  C(13)             -0.00451      -5.06460      -1.80717      -1.68937
    10  O(17)              0.00322      -1.94983      -0.69575      -0.65039
    11  O(17)              0.00927      -5.62006      -2.00538      -1.87465
 --------------------------------------------------------
       Center         ----  Spin Dipole Couplings  ----
                      3XX-RR        3YY-RR        3ZZ-RR
 --------------------------------------------------------
     1   Atom       -0.395396     -0.402907      0.798303
     2   Atom       -0.357307     -0.337504      0.694811
     3   Atom       -0.092716     -0.111113      0.203830
     4   Atom        0.062156      0.049453     -0.111609
     5   Atom       -0.325654     -0.323792      0.649446
     6   Atom        0.001829     -0.001020     -0.000809
     7   Atom        0.004671      0.001580     -0.006251
     8   Atom       -0.021151      0.029572     -0.008421
     9   Atom        0.003602     -0.015352      0.011750
    10   Atom       -0.043351     -0.037913      0.081264
    11   Atom       -0.084167     -0.079770      0.163937
 --------------------------------------------------------
                        XY            XZ            YZ
 --------------------------------------------------------
     1   Atom        0.001102      0.041476      0.035034
     2   Atom       -0.002196     -0.003979      0.033402
     3   Atom       -0.004946      0.000489      0.011060
     4   Atom       -0.003261      0.001658     -0.005302
     5   Atom       -0.003413      0.006806      0.034762
     6   Atom       -0.020308      0.000955     -0.000126
     7   Atom       -0.002481      0.000239     -0.000310
     8   Atom        0.030808     -0.001439     -0.001712
     9   Atom       -0.000943      0.006557     -0.001456
    10   Atom       -0.000152      0.001099     -0.007907
    11   Atom       -0.000418      0.015158     -0.008314
 --------------------------------------------------------


 ---------------------------------------------------------------------------------
              Anisotropic Spin Dipole Couplings in Principal Axis System
 ---------------------------------------------------------------------------------

       Atom             a.u.   MegaHertz   Gauss  10(-4) cm-1        Axes

              Baa    -0.4039   -15.579    -5.559    -5.196  0.0150  0.9994 -0.0296
     1 N(14)  Bbb    -0.3968   -15.305    -5.461    -5.105  0.9993 -0.0160 -0.0342
              Bcc     0.8008    30.884    11.020    10.302  0.0347  0.0291  0.9990
 
              Baa    -0.3575   -13.790    -4.921    -4.600  0.9941  0.1084  0.0003
     2 N(14)  Bbb    -0.3384   -13.050    -4.656    -4.353 -0.1083  0.9936 -0.0325
              Bcc     0.6959    26.840     9.577     8.953 -0.0038  0.0323  0.9995
 
              Baa    -0.1127   -15.127    -5.398    -5.046  0.2406  0.9700 -0.0343
     3 C(13)  Bbb    -0.0915   -12.277    -4.381    -4.095  0.9706 -0.2405  0.0074
              Bcc     0.2042    27.404     9.778     9.141  0.0011  0.0350  0.9994
 
              Baa    -0.1118   -15.002    -5.353    -5.004 -0.0089  0.0327  0.9994
     4 C(13)  Bbb     0.0488     6.549     2.337     2.185  0.2407  0.9702 -0.0296
              Bcc     0.0630     8.453     3.016     2.820  0.9706 -0.2403  0.0165
 
              Baa    -0.3290   -12.690    -4.528    -4.233  0.7385  0.6736 -0.0291
     5 N(14)  Bbb    -0.3217   -12.407    -4.427    -4.139 -0.6742  0.7382 -0.0217
              Bcc     0.6507    25.097     8.955     8.372  0.0068  0.0356  0.9993
 
              Baa    -0.0200   -10.655    -3.802    -3.554  0.6820  0.7307 -0.0292
     6 H(1)   Bbb    -0.0008    -0.438    -0.156    -0.146 -0.0066  0.0461  0.9989
              Bcc     0.0208    11.093     3.958     3.700  0.7313 -0.6811  0.0363
 
              Baa    -0.0063    -3.343    -1.193    -1.115 -0.0138  0.0351  0.9993
     7 H(1)   Bbb     0.0002     0.110     0.039     0.037  0.4865  0.8733 -0.0239
              Bcc     0.0061     3.233     1.154     1.078  0.8736 -0.4858  0.0292
 
              Baa    -0.0357   -19.051    -6.798    -6.355  0.9044 -0.4263  0.0209
     8 H(1)   Bbb    -0.0085    -4.534    -1.618    -1.512 -0.0014  0.0461  0.9989
              Bcc     0.0442    23.585     8.416     7.867  0.4268  0.9034 -0.0411
 
              Baa    -0.0154    -2.073    -0.740    -0.692  0.0338  0.9984  0.0453
     9 C(13)  Bbb    -0.0000    -0.006    -0.002    -0.002  0.8736 -0.0075 -0.4866
              Bcc     0.0155     2.079     0.742     0.693  0.4855 -0.0560  0.8724
 
              Baa    -0.0434     3.138     1.120     1.047  0.9998  0.0167 -0.0078
    10 O(17)  Bbb    -0.0384     2.781     0.992     0.928 -0.0161  0.9977  0.0661
              Bcc     0.0818    -5.919    -2.112    -1.974  0.0088 -0.0659  0.9978
 
              Baa    -0.0851     6.157     2.197     2.054  0.9980 -0.0175 -0.0613
    11 O(17)  Bbb    -0.0801     5.792     2.067     1.932  0.0195  0.9993  0.0328
              Bcc     0.1651   -11.950    -4.264    -3.986  0.0607 -0.0340  0.9976
 

 ---------------------------------------------------------------------------------

 Calling FoFJK, ICntrl=      2127 FMM=F ISym2X=0 I1Cent= 0 IOpClX= 1 NMat=1 NMatS=1 NMatT=0.
 ***** Axes restored to original set *****
 -------------------------------------------------------------------
 Center     Atomic                   Forces (Hartrees/Bohr)
 Number     Number              X              Y              Z
 -------------------------------------------------------------------
      1        7           0.046985028   -0.027370629   -0.001807661
      2        7           0.071111283    0.034617851    0.000122895
      3        6          -0.019697314    0.020462311   -0.000279099
      4        6           0.011299810   -0.020239060   -0.000186989
      5        7          -0.085594252   -0.009834084   -0.001980000
      6        1           0.000492149   -0.001259120    0.000024957
      7        1          -0.001268802   -0.001580835    0.000141191
      8        1          -0.001926384   -0.005661404    0.000782772
      9        6          -0.034895676   -0.005365635    0.016440350
     10        8           0.004740817    0.005902950   -0.007570825
     11        8           0.008753339    0.010327656   -0.005687592
 -------------------------------------------------------------------
 Cartesian Forces:  Max     0.085594252 RMS     0.024541699

 GradGradGradGradGradGradGradGradGradGradGradGradGradGradGradGradGradGrad
 Berny optimization.
 FormGI is forming the generalized inverse of G from B-inverse, IUseBI=4.
 Internal  Forces:  Max     0.058908879 RMS     0.014919810
 Search for a local minimum.
 Step number   1 out of a maximum of   57
 All quantities printed in internal units (Hartrees-Bohrs-Radians)
 Mixed Optimization -- RFO/linear search
 Second derivative matrix not updated -- first step.
 ITU=  0
     Eigenvalues ---    0.00230   0.00386   0.01396   0.02234   0.02295
     Eigenvalues ---    0.02342   0.02399   0.02437   0.16000   0.16000
     Eigenvalues ---    0.16000   0.22202   0.24059   0.24963   0.25000
     Eigenvalues ---    0.25000   0.26395   0.36192   0.36216   0.45658
     Eigenvalues ---    0.46028   0.47942   0.53351   0.56050   0.65971
     Eigenvalues ---    0.88929   0.89064
 RFO step:  Lambda=-3.02914938D-02 EMin= 2.30000000D-03
 Linear search not attempted -- first point.
 Iteration  1 RMS(Cart)=  0.06954138 RMS(Int)=  0.02083425
 Iteration  2 RMS(Cart)=  0.02480107 RMS(Int)=  0.01095476
 Iteration  3 RMS(Cart)=  0.00104270 RMS(Int)=  0.01090315
 Iteration  4 RMS(Cart)=  0.00005558 RMS(Int)=  0.01090307
 Iteration  5 RMS(Cart)=  0.00000348 RMS(Int)=  0.01090307
 Iteration  6 RMS(Cart)=  0.00000022 RMS(Int)=  0.01090307
 Variable       Old X    -DE/DX   Delta X   Delta X   Delta X     New X
                                 (Linear)    (Quad)   (Total)
    R1        2.52564   0.04261   0.00000   0.07776   0.07771   2.60335
    R2        2.44425   0.05891   0.00000   0.08541   0.08521   2.52946
    R3        2.95788  -0.02194   0.00000  -0.07456  -0.07456   2.88333
    R4        2.55520   0.02474   0.00000   0.04402   0.04418   2.59938
    R5        1.90800  -0.00240   0.00000  -0.00490  -0.00490   1.90310
    R6        2.59465   0.02135   0.00000   0.03117   0.03131   2.62596
    R7        2.03782  -0.00112   0.00000  -0.00285  -0.00285   2.03496
    R8        2.57568  -0.00952   0.00000  -0.02286  -0.02293   2.55275
    R9        2.03745   0.00067   0.00000   0.00171   0.00171   2.03916
   R10        2.33430   0.00543   0.00000   0.00590   0.00590   2.34021
   R11        2.33367  -0.01306   0.00000  -0.01418  -0.01418   2.31950
    A1        1.87237   0.01560   0.00000   0.07940   0.07919   1.95157
    A2        2.04582  -0.00094   0.00000  -0.01528  -0.01520   2.03062
    A3        2.36401  -0.01468   0.00000  -0.06440  -0.06430   2.29971
    A4        1.94940  -0.02568   0.00000  -0.08449  -0.08435   1.86506
    A5        2.07855   0.00761   0.00000   0.01478   0.01471   2.09326
    A6        2.25523   0.01807   0.00000   0.06971   0.06964   2.32487
    A7        1.80383   0.00939   0.00000   0.02181   0.02213   1.82596
    A8        2.15030  -0.00547   0.00000  -0.01497  -0.01513   2.13516
    A9        2.32905  -0.00392   0.00000  -0.00684  -0.00700   2.32206
   A10        1.89381   0.02322   0.00000   0.06503   0.06511   1.95893
   A11        2.26645  -0.00967   0.00000  -0.02230  -0.02234   2.24411
   A12        2.12292  -0.01356   0.00000  -0.04273  -0.04278   2.08014
   A13        1.90535  -0.02253   0.00000  -0.08175  -0.08209   1.82327
   A14        1.92917  -0.00699   0.00000  -0.00647  -0.04702   1.88216
   A15        1.96908   0.00792   0.00000   0.04670   0.00648   1.97556
   A16        2.37738   0.00123   0.00000   0.02304  -0.02169   2.35569
    D1        0.00000   0.00007   0.00000  -0.00046  -0.00038  -0.00038
    D2       -3.14046  -0.00011   0.00000  -0.00423  -0.00405   3.13867
    D3        3.10128  -0.00073   0.00000  -0.00803  -0.00823   3.09305
    D4       -0.03918  -0.00091   0.00000  -0.01180  -0.01189  -0.05108
    D5        0.00000  -0.00007   0.00000  -0.00003  -0.00007  -0.00007
    D6       -3.09048   0.00021   0.00000   0.00662   0.00668  -3.08380
    D7        0.15042  -0.00924   0.00000  -0.26983  -0.26097  -0.11055
    D8       -3.10105   0.00645   0.00000   0.18944   0.18029  -2.92076
    D9       -3.04605  -0.00924   0.00000  -0.27519  -0.26604   2.97109
   D10       -0.01434   0.00644   0.00000   0.18408   0.17522   0.16088
   D11       -0.00000  -0.00004   0.00000   0.00073   0.00065   0.00065
   D12        3.14159  -0.00009   0.00000  -0.00141  -0.00148   3.14011
   D13        3.14031   0.00015   0.00000   0.00492   0.00495  -3.13793
   D14       -0.00128   0.00009   0.00000   0.00277   0.00281   0.00153
   D15        0.00000  -0.00000   0.00000  -0.00073  -0.00074  -0.00074
   D16        3.14159  -0.00009   0.00000  -0.00239  -0.00239   3.13921
   D17        3.14159   0.00006   0.00000   0.00175   0.00173  -3.13987
   D18       -0.00000  -0.00002   0.00000   0.00009   0.00008   0.00008
   D19       -0.00000   0.00004   0.00000   0.00049   0.00051   0.00051
   D20        3.14159   0.00012   0.00000   0.00199   0.00198  -3.13961
         Item               Value     Threshold  Converged?
 Maximum Force            0.058909     0.000450     NO 
 RMS     Force            0.014920     0.000300     NO 
 Maximum Displacement     0.316646     0.001800     NO 
 RMS     Displacement     0.085367     0.001200     NO 
 Predicted change in Energy=-1.905446D-02
 GradGradGradGradGradGradGradGradGradGradGradGradGradGradGradGradGradGrad

                          Input orientation:                          
 ---------------------------------------------------------------------
 Center     Atomic      Atomic             Coordinates (Angstroms)
 Number     Number       Type             X           Y           Z
 ---------------------------------------------------------------------
      1          7           0        0.512195   -1.050130    0.070819
      2          7           0        1.125264    0.183303    0.045000
      3          6           0        0.124404    1.125168   -0.012153
      4          6           0       -1.052565    0.386450   -0.016449
      5          7           0       -0.821576   -0.943567    0.033724
      6          1           0        0.328994    2.182014   -0.041098
      7          1           0       -2.070506    0.742728   -0.052061
      8          1           0        2.130078    0.245709    0.070726
      9          6           0        1.435068   -2.265177    0.068762
     10          8           0        2.594985   -1.860323   -0.087062
     11          8           0        0.846561   -3.318775   -0.155208
 ---------------------------------------------------------------------
                    Distance matrix (angstroms):
                    1          2          3          4          5
     1  N    0.000000
     2  N    1.377635   0.000000
     3  C    2.211151   1.375535   0.000000
     4  C    2.125994   2.188147   1.389596   0.000000
     5  N    1.338535   2.249478   2.275225   1.350859   0.000000
     6  H    3.239266   2.153208   1.076856   2.265692   3.331466
     7  H    3.146392   3.245817   2.228336   1.079077   2.100186
     8  H    2.072859   1.007079   2.191586   3.186947   3.182454
     9  C    1.525791   2.468117   3.635770   3.636854   2.615401
    10  O    2.240392   2.520700   3.875892   4.284577   3.539480
    11  O    2.304266   3.518851   4.504510   4.165889   2.908606
                    6          7          8          9         10
     6  H    0.000000
     7  H    2.798082   0.000000
     8  H    2.646826   4.231669   0.000000
     9  C    4.583991   4.620730   2.605301   0.000000
    10  O    4.634363   5.342650   2.162500   1.238384   0.000000
    11  O    5.526263   5.001573   3.795261   1.227425   2.277874
                   11
    11  O    0.000000
 Stoichiometry    C3H3N3O2(1-,2)
 Framework group  C1[X(C3H3N3O2)]
 Deg. of freedom    27
 Full point group                 C1      NOp   1
 Largest Abelian subgroup         C1      NOp   1
 Largest concise Abelian subgroup C1      NOp   1
                         Standard orientation:                         
 ---------------------------------------------------------------------
 Center     Atomic      Atomic             Coordinates (Angstroms)
 Number     Number       Type             X           Y           Z
 ---------------------------------------------------------------------
      1          7           0        0.013351   -0.150714    0.084611
      2          7           0       -0.699200    1.027040    0.029434
      3          6           0       -2.029200    0.685287   -0.050578
      4          6           0       -2.035685   -0.704233   -0.037534
      5          7           0       -0.790094   -1.220550    0.044564
      6          1           0       -2.811336    1.423490   -0.104775
      7          1           0       -2.880866   -1.373635   -0.081986
      8          1           0       -0.214337    1.909375    0.053965
      9          6           0        1.533442   -0.021816    0.111951
     10          8           0        1.815941    1.172556   -0.053172
     11          8           0        2.112409   -1.085692   -0.086890
 ---------------------------------------------------------------------
 Rotational constants (GHZ):           5.2374304           1.7815906           1.3330549
 Standard basis: 6-31+G(d,p) (6D, 7F)
 There are   167 symmetry adapted cartesian basis functions of A   symmetry.
 There are   167 symmetry adapted basis functions of A   symmetry.
   167 basis functions,   277 primitive gaussians,   167 cartesian basis functions
    30 alpha electrons       29 beta electrons
       nuclear repulsion energy       359.4894388871 Hartrees.
 NAtoms=   11 NActive=   11 NUniq=   11 SFac= 1.00D+00 NAtFMM=   60 NAOKFM=F Big=F
 Integral buffers will be    131072 words long.
 Raffenetti 2 integral format.
 Two-electron integral symmetry is turned on.
 One-electron integrals computed using PRISM.
 NBasis=   167 RedAO= T EigKep=  2.96D-05  NBF=   167
 NBsUse=   167 1.00D-06 EigRej= -1.00D+00 NBFU=   167
 Initial guess from the checkpoint file:  "RC.chk"
 B after Tr=    -0.000000    0.000000    0.000000
         Rot=    0.999995   -0.000281   -0.000091   -0.003282 Ang=  -0.38 deg.
 Initial guess <Sx>= 0.0000 <Sy>= 0.0000 <Sz>= 0.5000 <S**2>= 0.7632 S= 0.5066
 ExpMin= 4.38D-02 ExpMax= 5.48D+03 ExpMxC= 8.25D+02 IAcc=2 IRadAn=         4 AccDes= 0.00D+00
 Harris functional with IExCor= 1009 and IRadAn=       4 diagonalized for initial guess.
 HarFok:  IExCor= 1009 AccDes= 0.00D+00 IRadAn=         4 IDoV= 1 UseB2=F ITyADJ=14
 ICtDFT=  3500011 ScaDFX=  1.000000  1.000000  1.000000  1.000000
 FoFCou: FMM=F IPFlag=           0 FMFlag=      100000 FMFlg1=           0
         NFxFlg=           0 DoJE=T BraDBF=F KetDBF=T FulRan=T
         wScrn=  0.000000 ICntrl=       500 IOpCl=  0 I1Cent=   200000004 NGrid=           0
         NMat0=    1 NMatS0=      1 NMatT0=    0 NMatD0=    1 NMtDS0=    0 NMtDT0=    0
 Petite list used in FoFCou.
 Keep R1 and R2 ints in memory in canonical form, NReq=216648901.
 Requested convergence on RMS density matrix=1.00D-08 within 128 cycles.
 Requested convergence on MAX density matrix=1.00D-06.
 Requested convergence on             energy=1.00D-06.
 No special actions if energy rises.
 SCF Done:  E(UM062X) =  -430.644066355     A.U. after   20 cycles
            NFock= 20  Conv=0.48D-08     -V/T= 2.0081
 <Sx>= 0.0000 <Sy>= 0.0000 <Sz>= 0.5000 <S**2>= 0.7644 S= 0.5072
 <L.S>= 0.000000000000E+00
 Annihilation of the first spin contaminant:
 S**2 before annihilation     0.7644,   after     0.7501
 Calling FoFJK, ICntrl=      2127 FMM=F ISym2X=0 I1Cent= 0 IOpClX= 1 NMat=1 NMatS=1 NMatT=0.
 ***** Axes restored to original set *****
 -------------------------------------------------------------------
 Center     Atomic                   Forces (Hartrees/Bohr)
 Number     Number              X              Y              Z
 -------------------------------------------------------------------
      1        7           0.027244354   -0.019009134    0.011971588
      2        7          -0.001689254    0.010219956    0.001174449
      3        6          -0.012159736    0.001144373    0.000831658
      4        6           0.005897705    0.000335955    0.000349428
      5        7          -0.011908533    0.007560403    0.000640034
      6        1          -0.001137040    0.000473650   -0.000107685
      7        1          -0.001045787    0.002303115   -0.000433017
      8        1          -0.001457703   -0.006670964   -0.001468027
      9        6          -0.027513254    0.019031125   -0.055762869
     10        8           0.021974747   -0.004544211    0.021043739
     11        8           0.001794501   -0.010844268    0.021760702
 -------------------------------------------------------------------
 Cartesian Forces:  Max     0.055762869 RMS     0.015141898

 GradGradGradGradGradGradGradGradGradGradGradGradGradGradGradGradGradGrad
 Berny optimization.
 Using GEDIIS/GDIIS optimizer.
 FormGI is forming the generalized inverse of G from B-inverse, IUseBI=4.
 Internal  Forces:  Max     0.027658756 RMS     0.009800266
 Search for a local minimum.
 Step number   2 out of a maximum of   57
 All quantities printed in internal units (Hartrees-Bohrs-Radians)
 Mixed Optimization -- RFO/linear search
 Update second derivatives using D2CorX and points    1    2
 DE= -3.87D-03 DEPred=-1.91D-02 R= 2.03D-01
 Trust test= 2.03D-01 RLast= 5.14D-01 DXMaxT set to 3.00D-01
 ITU=  0  0
 Use linear search instead of GDIIS.
     Eigenvalues ---    0.00233   0.01454   0.02229   0.02299   0.02343
     Eigenvalues ---    0.02399   0.02434   0.02677   0.15199   0.16000
     Eigenvalues ---    0.16039   0.20137   0.22222   0.24905   0.24985
     Eigenvalues ---    0.25993   0.29712   0.36188   0.36223   0.41526
     Eigenvalues ---    0.46016   0.47501   0.51159   0.53598   0.61602
     Eigenvalues ---    0.88654   0.89821
 RFO step:  Lambda=-3.47215349D-02 EMin= 2.33423430D-03
 Quartic linear search produced a step of -0.42211.
 Maximum step size (   0.300) exceeded in Quadratic search.
    -- Step size scaled by   0.583
 Iteration  1 RMS(Cart)=  0.06607948 RMS(Int)=  0.01889529
 Iteration  2 RMS(Cart)=  0.02064794 RMS(Int)=  0.00817012
 Iteration  3 RMS(Cart)=  0.00080869 RMS(Int)=  0.00812700
 Iteration  4 RMS(Cart)=  0.00002201 RMS(Int)=  0.00812697
 Iteration  5 RMS(Cart)=  0.00000087 RMS(Int)=  0.00812697
 Variable       Old X    -DE/DX   Delta X   Delta X   Delta X     New X
                                 (Linear)    (Quad)   (Total)
    R1        2.60335   0.00363  -0.03280   0.09730   0.06447   2.66782
    R2        2.52946   0.01415  -0.03597   0.11307   0.07704   2.60650
    R3        2.88333  -0.00515   0.03147  -0.09329  -0.06182   2.82151
    R4        2.59938   0.00849  -0.01865   0.05944   0.04083   2.64022
    R5        1.90310  -0.00190   0.00207  -0.00748  -0.00542   1.89769
    R6        2.62596  -0.00763  -0.01322   0.03195   0.01879   2.64474
    R7        2.03496   0.00025   0.00120  -0.00313  -0.00192   2.03304
    R8        2.55275  -0.00080   0.00968  -0.02831  -0.01864   2.53411
    R9        2.03916   0.00176  -0.00072   0.00385   0.00313   2.04229
   R10        2.34021   0.01645  -0.00249   0.01463   0.01214   2.35235
   R11        2.31950   0.00448   0.00598  -0.01560  -0.00962   2.30988
    A1        1.95157  -0.01028  -0.03343   0.07661   0.04312   1.99469
    A2        2.03062   0.01183   0.00642  -0.00035   0.00610   2.03672
    A3        2.29971  -0.00149   0.02714  -0.07604  -0.04888   2.25082
    A4        1.86506   0.00322   0.03560  -0.09121  -0.05558   1.80948
    A5        2.09326  -0.00781  -0.00621   0.00260  -0.00362   2.08964
    A6        2.32487   0.00459  -0.02940   0.08861   0.05920   2.38407
    A7        1.82596   0.00101  -0.00934   0.02562   0.01637   1.84233
    A8        2.13516   0.00072   0.00639  -0.01466  -0.00832   2.12685
    A9        2.32206  -0.00173   0.00295  -0.01096  -0.00805   2.31401
   A10        1.95893   0.00117  -0.02749   0.07566   0.04821   2.00714
   A11        2.24411  -0.00246   0.00943  -0.03065  -0.02124   2.22287
   A12        2.08014   0.00129   0.01806  -0.04501  -0.02697   2.05318
   A13        1.82327   0.00488   0.03465  -0.08669  -0.05212   1.77115
   A14        1.88216   0.02115   0.01985   0.02930   0.01729   1.89945
   A15        1.97556   0.01209  -0.00274   0.07733   0.04279   2.01835
   A16        2.35569  -0.00879   0.00916   0.02100  -0.00221   2.35347
    D1       -0.00038   0.00017   0.00016   0.00080   0.00086   0.00048
    D2        3.13867   0.00044   0.00171   0.00060   0.00214   3.14082
    D3        3.09305   0.00105   0.00347   0.00252   0.00628   3.09934
    D4       -0.05108   0.00132   0.00502   0.00231   0.00756  -0.04351
    D5       -0.00007   0.00005   0.00003   0.00046   0.00051   0.00044
    D6       -3.08380  -0.00143  -0.00282  -0.00552  -0.00824  -3.09204
    D7       -0.11055   0.02673   0.11016   0.13853   0.24613   0.13558
    D8       -2.92076  -0.02607  -0.07610  -0.15244  -0.22564   3.13679
    D9        2.97109   0.02766   0.11230   0.14658   0.25598  -3.05612
   D10        0.16088  -0.02514  -0.07396  -0.14438  -0.21580  -0.05491
   D11        0.00065  -0.00030  -0.00028  -0.00167  -0.00181  -0.00116
   D12        3.14011   0.00010   0.00063  -0.00025   0.00049   3.14060
   D13       -3.13793  -0.00060  -0.00209  -0.00118  -0.00323  -3.14116
   D14        0.00153  -0.00021  -0.00119   0.00024  -0.00094   0.00059
   D15       -0.00074   0.00035   0.00031   0.00200   0.00236   0.00161
   D16        3.13921   0.00038   0.00101   0.00108   0.00209   3.14129
   D17       -3.13987  -0.00011  -0.00073   0.00036  -0.00030  -3.14017
   D18        0.00008  -0.00008  -0.00004  -0.00057  -0.00057  -0.00048
   D19        0.00051  -0.00025  -0.00022  -0.00156  -0.00177  -0.00126
   D20       -3.13961  -0.00027  -0.00084  -0.00073  -0.00152  -3.14113
         Item               Value     Threshold  Converged?
 Maximum Force            0.027659     0.000450     NO 
 RMS     Force            0.009800     0.000300     NO 
 Maximum Displacement     0.282118     0.001800     NO 
 RMS     Displacement     0.078089     0.001200     NO 
 Predicted change in Energy=-2.319917D-02
 GradGradGradGradGradGradGradGradGradGradGradGradGradGradGradGradGradGrad

                          Input orientation:                          
 ---------------------------------------------------------------------
 Center     Atomic      Atomic             Coordinates (Angstroms)
 Number     Number       Type             X           Y           Z
 ---------------------------------------------------------------------
      1          7           0        0.527756   -1.037665   -0.006304
      2          7           0        1.176286    0.216269    0.003528
      3          6           0        0.122219    1.133302    0.004754
      4          6           0       -1.045901    0.362533   -0.005850
      5          7           0       -0.849567   -0.963999   -0.011855
      6          1           0        0.293539    2.195384    0.012516
      7          1           0       -2.066393    0.718310   -0.007968
      8          1           0        2.179620    0.257944    0.008782
      9          6           0        1.403618   -2.245368   -0.066270
     10          8           0        2.589264   -1.888604    0.062229
     11          8           0        0.822461   -3.320706   -0.068560
 ---------------------------------------------------------------------
                    Distance matrix (angstroms):
                    1          2          3          4          5
     1  N    0.000000
     2  N    1.411750   0.000000
     3  C    2.208547   1.397143   0.000000
     4  C    2.106407   2.227016   1.399537   0.000000
     5  N    1.379303   2.344643   2.311562   1.340996   0.000000
     6  H    3.241577   2.167077   1.075839   2.270195   3.359909
     7  H    3.132580   3.281333   2.227645   1.080734   2.076257
     8  H    2.099401   1.004212   2.235881   3.227250   3.266427
     9  C    1.493076   2.473097   3.614200   3.578399   2.592626
    10  O    2.231280   2.535831   3.901478   4.276292   3.561733
    11  O    2.302825   3.555359   4.509313   4.130491   2.890149
                    6          7          8          9         10
     6  H    0.000000
     7  H    2.784142   0.000000
     8  H    2.703884   4.270930   0.000000
     9  C    4.578074   4.563744   2.621905   0.000000
    10  O    4.685273   5.336297   2.185940   1.244809   0.000000
    11  O    5.541984   4.966165   3.828133   1.222334   2.278072
                   11
    11  O    0.000000
 Stoichiometry    C3H3N3O2(1-,2)
 Framework group  C1[X(C3H3N3O2)]
 Deg. of freedom    27
 Full point group                 C1      NOp   1
 Largest Abelian subgroup         C1      NOp   1
 Largest concise Abelian subgroup C1      NOp   1
                         Standard orientation:                         
 ---------------------------------------------------------------------
 Center     Atomic      Atomic             Coordinates (Angstroms)
 Number     Number       Type             X           Y           Z
 ---------------------------------------------------------------------
      1          7           0        0.014152   -0.129712    0.006594
      2          7           0       -0.705794    1.084383   -0.019655
      3          6           0       -2.041981    0.676229   -0.014768
      4          6           0       -2.007081   -0.722618    0.011934
      5          7           0       -0.777985   -1.258689    0.026750
      6          1           0       -2.852025    1.384057   -0.030135
      7          1           0       -2.849453   -1.399572    0.023259
      8          1           0       -0.209614    1.957318   -0.034901
      9          6           0        1.502764   -0.028123   -0.048101
     10          8           0        1.827639    1.169501    0.050406
     11          8           0        2.106894   -1.090326   -0.018960
 ---------------------------------------------------------------------
 Rotational constants (GHZ):           5.0858149           1.7947956           1.3273020
 Standard basis: 6-31+G(d,p) (6D, 7F)
 There are   167 symmetry adapted cartesian basis functions of A   symmetry.
 There are   167 symmetry adapted basis functions of A   symmetry.
   167 basis functions,   277 primitive gaussians,   167 cartesian basis functions
    30 alpha electrons       29 beta electrons
       nuclear repulsion energy       357.8170151066 Hartrees.
 NAtoms=   11 NActive=   11 NUniq=   11 SFac= 1.00D+00 NAtFMM=   60 NAOKFM=F Big=F
 Integral buffers will be    131072 words long.
 Raffenetti 2 integral format.
 Two-electron integral symmetry is turned on.
 One-electron integrals computed using PRISM.
 NBasis=   167 RedAO= T EigKep=  2.81D-05  NBF=   167
 NBsUse=   167 1.00D-06 EigRej= -1.00D+00 NBFU=   167
 Initial guess from the checkpoint file:  "RC.chk"
 B after Tr=     0.000000   -0.000000    0.000000
         Rot=    0.999999    0.000134   -0.000011   -0.001280 Ang=   0.15 deg.
 Initial guess <Sx>= 0.0000 <Sy>= 0.0000 <Sz>= 0.5000 <S**2>= 0.7644 S= 0.5072
 ExpMin= 4.38D-02 ExpMax= 5.48D+03 ExpMxC= 8.25D+02 IAcc=2 IRadAn=         4 AccDes= 0.00D+00
 Harris functional with IExCor= 1009 and IRadAn=       4 diagonalized for initial guess.
 HarFok:  IExCor= 1009 AccDes= 0.00D+00 IRadAn=         4 IDoV= 1 UseB2=F ITyADJ=14
 ICtDFT=  3500011 ScaDFX=  1.000000  1.000000  1.000000  1.000000
 FoFCou: FMM=F IPFlag=           0 FMFlag=      100000 FMFlg1=           0
         NFxFlg=           0 DoJE=T BraDBF=F KetDBF=T FulRan=T
         wScrn=  0.000000 ICntrl=       500 IOpCl=  0 I1Cent=   200000004 NGrid=           0
         NMat0=    1 NMatS0=      1 NMatT0=    0 NMatD0=    1 NMtDS0=    0 NMtDT0=    0
 Petite list used in FoFCou.
 Keep R1 and R2 ints in memory in canonical form, NReq=216648901.
 Requested convergence on RMS density matrix=1.00D-08 within 128 cycles.
 Requested convergence on MAX density matrix=1.00D-06.
 Requested convergence on             energy=1.00D-06.
 No special actions if energy rises.
 SCF Done:  E(UM062X) =  -430.648617480     A.U. after   19 cycles
            NFock= 19  Conv=0.75D-08     -V/T= 2.0084
 <Sx>= 0.0000 <Sy>= 0.0000 <Sz>= 0.5000 <S**2>= 0.7655 S= 0.5077
 <L.S>= 0.000000000000E+00
 Annihilation of the first spin contaminant:
 S**2 before annihilation     0.7655,   after     0.7501
 Calling FoFJK, ICntrl=      2127 FMM=F ISym2X=0 I1Cent= 0 IOpClX= 1 NMat=1 NMatS=1 NMatT=0.
 ***** Axes restored to original set *****
 -------------------------------------------------------------------
 Center     Atomic                   Forces (Hartrees/Bohr)
 Number     Number              X              Y              Z
 -------------------------------------------------------------------
      1        7           0.015119010   -0.014271498   -0.004052624
      2        7          -0.048079266   -0.005955066   -0.000815953
      3        6          -0.002063657   -0.011659029   -0.000421672
      4        6           0.000812933    0.014891445    0.000435909
      5        7           0.031576147    0.014736788   -0.001979956
      6        1          -0.001782716    0.001455927    0.000036737
      7        1          -0.000492552    0.004517425    0.000256240
      8        1           0.001320588   -0.006016710    0.000660023
      9        6          -0.007856391    0.016410734    0.024489251
     10        8           0.015365294   -0.003495279   -0.009597722
     11        8          -0.003919389   -0.010614737   -0.009010232
 -------------------------------------------------------------------
 Cartesian Forces:  Max     0.048079266 RMS     0.013396457

 GradGradGradGradGradGradGradGradGradGradGradGradGradGradGradGradGradGrad
 Berny optimization.
 Using GEDIIS/GDIIS optimizer.
 FormGI is forming the generalized inverse of G from B-inverse, IUseBI=4.
 Internal  Forces:  Max     0.022763718 RMS     0.009597353
 Search for a local minimum.
 Step number   3 out of a maximum of   57
 All quantities printed in internal units (Hartrees-Bohrs-Radians)
 Mixed Optimization -- RFO/linear search
 Update second derivatives using D2CorX and points    1    2    3
 DE= -4.55D-03 DEPred=-2.32D-02 R= 1.96D-01
 Trust test= 1.96D-01 RLast= 5.10D-01 DXMaxT set to 3.00D-01
 ITU=  0  0  0
 Use linear search instead of GDIIS.
     Eigenvalues ---    0.00230   0.01477   0.02229   0.02302   0.02343
     Eigenvalues ---    0.02400   0.02433   0.05700   0.14979   0.16001
     Eigenvalues ---    0.16045   0.20113   0.22290   0.24948   0.25070
     Eigenvalues ---    0.26294   0.30957   0.36163   0.36241   0.38010
     Eigenvalues ---    0.46032   0.48179   0.50530   0.53886   0.61321
     Eigenvalues ---    0.88536   0.90683
 RFO step:  Lambda=-6.96956596D-03 EMin= 2.30334204D-03
 Quartic linear search produced a step of -0.40218.
 Iteration  1 RMS(Cart)=  0.05514021 RMS(Int)=  0.00479413
 Iteration  2 RMS(Cart)=  0.00187381 RMS(Int)=  0.00446810
 Iteration  3 RMS(Cart)=  0.00000211 RMS(Int)=  0.00446810
 Iteration  4 RMS(Cart)=  0.00000004 RMS(Int)=  0.00446810
 Variable       Old X    -DE/DX   Delta X   Delta X   Delta X     New X
                                 (Linear)    (Quad)   (Total)
    R1        2.66782  -0.02137  -0.02593  -0.05287  -0.07878   2.58905
    R2        2.60650  -0.01380  -0.03098  -0.05211  -0.08323   2.52327
    R3        2.82151   0.00001   0.02486   0.02959   0.05445   2.87596
    R4        2.64022  -0.00652  -0.01642  -0.02823  -0.04449   2.59573
    R5        1.89769   0.00107   0.00218   0.00376   0.00594   1.90363
    R6        2.64474  -0.02276  -0.00755  -0.03040  -0.03789   2.60685
    R7        2.03304   0.00115   0.00077   0.00241   0.00318   2.03622
    R8        2.53411   0.00636   0.00750   0.01634   0.02372   2.55784
    R9        2.04229   0.00195  -0.00126   0.00086  -0.00040   2.04189
   R10        2.35235   0.01264  -0.00488  -0.00000  -0.00488   2.34746
   R11        2.30988   0.01122   0.00387   0.01146   0.01533   2.32520
    A1        1.99469  -0.02237  -0.01734  -0.06144  -0.07888   1.91581
    A2        2.03672   0.01257  -0.00245   0.02075   0.01833   2.05505
    A3        2.25082   0.00977   0.01966   0.04021   0.05987   2.31069
    A4        1.80948   0.02039   0.02235   0.06195   0.08448   1.89396
    A5        2.08964  -0.01595   0.00146  -0.03474  -0.03339   2.05625
    A6        2.38407  -0.00444  -0.02381  -0.02721  -0.05112   2.33295
    A7        1.84233  -0.00436  -0.00658  -0.01686  -0.02321   1.81912
    A8        2.12685   0.00420   0.00334   0.01393   0.01716   2.14401
    A9        2.31401   0.00016   0.00324   0.00293   0.00605   2.32005
   A10        2.00714  -0.01199  -0.01939  -0.04274  -0.06214   1.94500
   A11        2.22287   0.00180   0.00854   0.00908   0.01764   2.24051
   A12        2.05318   0.01019   0.01085   0.03365   0.04451   2.09768
   A13        1.77115   0.01833   0.02096   0.05910   0.07973   1.85088
   A14        1.89945   0.01329  -0.00695   0.01703   0.02770   1.92714
   A15        2.01835  -0.00235  -0.01721  -0.02302  -0.02262   1.99574
   A16        2.35347  -0.00707   0.00089  -0.01565   0.00295   2.35642
    D1        0.00048   0.00020  -0.00035   0.00558   0.00502   0.00550
    D2        3.14082  -0.00007  -0.00086   0.00062  -0.00053   3.14029
    D3        3.09934  -0.00013  -0.00253  -0.00399  -0.00616   3.09317
    D4       -0.04351  -0.00041  -0.00304  -0.00894  -0.01171  -0.05523
    D5        0.00044  -0.00032  -0.00021  -0.00690  -0.00697  -0.00653
    D6       -3.09204   0.00014   0.00332   0.00518   0.00855  -3.08349
    D7        0.13558  -0.01144  -0.09899  -0.00169  -0.09960   0.03598
    D8        3.13679   0.01052   0.09075  -0.12942  -0.03931   3.09747
    D9       -3.05612  -0.01274  -0.10295  -0.01592  -0.11823   3.10884
   D10       -0.05491   0.00922   0.08679  -0.14365  -0.05794  -0.11285
   D11       -0.00116  -0.00000   0.00073  -0.00173  -0.00092  -0.00208
   D12        3.14060  -0.00019  -0.00020  -0.00359  -0.00370   3.13690
   D13       -3.14116   0.00035   0.00130   0.00452   0.00581  -3.13535
   D14        0.00059   0.00016   0.00038   0.00266   0.00303   0.00363
   D15        0.00161  -0.00025  -0.00095  -0.00272  -0.00360  -0.00198
   D16        3.14129  -0.00018  -0.00084  -0.00172  -0.00249   3.13880
   D17       -3.14017  -0.00002   0.00012  -0.00057  -0.00041  -3.14057
   D18       -0.00048   0.00004   0.00023   0.00043   0.00070   0.00021
   D19       -0.00126   0.00033   0.00071   0.00573   0.00656   0.00531
   D20       -3.14113   0.00028   0.00061   0.00485   0.00558  -3.13555
         Item               Value     Threshold  Converged?
 Maximum Force            0.022764     0.000450     NO 
 RMS     Force            0.009597     0.000300     NO 
 Maximum Displacement     0.180094     0.001800     NO 
 RMS     Displacement     0.054736     0.001200     NO 
 Predicted change in Energy=-7.134065D-03
 GradGradGradGradGradGradGradGradGradGradGradGradGradGradGradGradGradGrad

                          Input orientation:                          
 ---------------------------------------------------------------------
 Center     Atomic      Atomic             Coordinates (Angstroms)
 Number     Number       Type             X           Y           Z
 ---------------------------------------------------------------------
      1          7           0        0.523539   -1.051633    0.003666
      2          7           0        1.104513    0.189028    0.021083
      3          6           0        0.110107    1.136552    0.009500
      4          6           0       -1.057470    0.402384   -0.017841
      5          7           0       -0.805616   -0.927506   -0.025515
      6          1           0        0.311307    2.195030    0.023517
      7          1           0       -2.076101    0.762559   -0.031880
      8          1           0        2.110460    0.236704    0.044841
      9          6           0        1.442388   -2.263523   -0.052829
     10          8           0        2.632078   -1.906633   -0.033073
     11          8           0        0.857695   -3.345562   -0.016470
 ---------------------------------------------------------------------
                    Distance matrix (angstroms):
                    1          2          3          4          5
     1  N    0.000000
     2  N    1.370064   0.000000
     3  C    2.226907   1.373600   0.000000
     4  C    2.148073   2.172833   1.379488   0.000000
     5  N    1.335258   2.213010   2.258342   1.353549   0.000000
     6  H    3.253653   2.157133   1.077522   2.255846   3.316648
     7  H    3.170281   3.232343   2.218352   1.080524   2.114354
     8  H    2.044462   1.007357   2.193715   3.172879   3.140674
     9  C    1.521891   2.476819   3.652310   3.654802   2.615188
    10  O    2.275590   2.593875   3.952610   4.352534   3.574421
    11  O    2.318227   3.543397   4.544107   4.208914   2.934907
                    6          7          8          9         10
     6  H    0.000000
     7  H    2.784737   0.000000
     8  H    2.659407   4.220154   0.000000
     9  C    4.600421   4.640838   2.589787   0.000000
    10  O    4.713048   5.412165   2.207272   1.242225   0.000000
    11  O    5.567612   5.048173   3.795499   1.230445   2.284563
                   11
    11  O    0.000000
 Stoichiometry    C3H3N3O2(1-,2)
 Framework group  C1[X(C3H3N3O2)]
 Deg. of freedom    27
 Full point group                 C1      NOp   1
 Largest Abelian subgroup         C1      NOp   1
 Largest concise Abelian subgroup C1      NOp   1
                         Standard orientation:                         
 ---------------------------------------------------------------------
 Center     Atomic      Atomic             Coordinates (Angstroms)
 Number     Number       Type             X           Y           Z
 ---------------------------------------------------------------------
      1          7           0        0.015363   -0.145234    0.017755
      2          7           0       -0.718083    1.011973    0.019133
      3          6           0       -2.051639    0.683219    0.001046
      4          6           0       -2.060623   -0.696162   -0.013512
      5          7           0       -0.804038   -1.199206   -0.007487
      6          1           0       -2.835774    1.422263    0.002555
      7          1           0       -2.912077   -1.361266   -0.027464
      8          1           0       -0.217327    1.885839    0.038343
      9          6           0        1.531617   -0.022998   -0.029007
     10          8           0        1.870582    1.172034   -0.017950
     11          8           0        2.128963   -1.097525    0.021649
 ---------------------------------------------------------------------
 Rotational constants (GHZ):           5.3237742           1.7379756           1.3104943
 Standard basis: 6-31+G(d,p) (6D, 7F)
 There are   167 symmetry adapted cartesian basis functions of A   symmetry.
 There are   167 symmetry adapted basis functions of A   symmetry.
   167 basis functions,   277 primitive gaussians,   167 cartesian basis functions
    30 alpha electrons       29 beta electrons
       nuclear repulsion energy       358.4636550955 Hartrees.
 NAtoms=   11 NActive=   11 NUniq=   11 SFac= 1.00D+00 NAtFMM=   60 NAOKFM=F Big=F
 Integral buffers will be    131072 words long.
 Raffenetti 2 integral format.
 Two-electron integral symmetry is turned on.
 One-electron integrals computed using PRISM.
 NBasis=   167 RedAO= T EigKep=  2.73D-05  NBF=   167
 NBsUse=   167 1.00D-06 EigRej= -1.00D+00 NBFU=   167
 Initial guess from the checkpoint file:  "RC.chk"
 B after Tr=     0.000000   -0.000000   -0.000000
         Rot=    0.999995    0.000014    0.000013    0.003047 Ang=   0.35 deg.
 Initial guess <Sx>= 0.0000 <Sy>= 0.0000 <Sz>= 0.5000 <S**2>= 0.7655 S= 0.5077
 ExpMin= 4.38D-02 ExpMax= 5.48D+03 ExpMxC= 8.25D+02 IAcc=2 IRadAn=         4 AccDes= 0.00D+00
 Harris functional with IExCor= 1009 and IRadAn=       4 diagonalized for initial guess.
 HarFok:  IExCor= 1009 AccDes= 0.00D+00 IRadAn=         4 IDoV= 1 UseB2=F ITyADJ=14
 ICtDFT=  3500011 ScaDFX=  1.000000  1.000000  1.000000  1.000000
 FoFCou: FMM=F IPFlag=           0 FMFlag=      100000 FMFlg1=           0
         NFxFlg=           0 DoJE=T BraDBF=F KetDBF=T FulRan=T
         wScrn=  0.000000 ICntrl=       500 IOpCl=  0 I1Cent=   200000004 NGrid=           0
         NMat0=    1 NMatS0=      1 NMatT0=    0 NMatD0=    1 NMtDS0=    0 NMtDT0=    0
 Petite list used in FoFCou.
 Keep R1 and R2 ints in memory in canonical form, NReq=216648901.
 Requested convergence on RMS density matrix=1.00D-08 within 128 cycles.
 Requested convergence on MAX density matrix=1.00D-06.
 Requested convergence on             energy=1.00D-06.
 No special actions if energy rises.
 SCF Done:  E(UM062X) =  -430.652914253     A.U. after   17 cycles
            NFock= 17  Conv=0.74D-08     -V/T= 2.0081
 <Sx>= 0.0000 <Sy>= 0.0000 <Sz>= 0.5000 <S**2>= 0.7642 S= 0.5071
 <L.S>= 0.000000000000E+00
 Annihilation of the first spin contaminant:
 S**2 before annihilation     0.7642,   after     0.7501
 Calling FoFJK, ICntrl=      2127 FMM=F ISym2X=0 I1Cent= 0 IOpClX= 1 NMat=1 NMatS=1 NMatT=0.
 ***** Axes restored to original set *****
 -------------------------------------------------------------------
 Center     Atomic                   Forces (Hartrees/Bohr)
 Number     Number              X              Y              Z
 -------------------------------------------------------------------
      1        7           0.021588436   -0.011721210   -0.001018606
      2        7           0.017875992    0.010733955   -0.000500569
      3        6          -0.006795198    0.004745308    0.000290881
      4        6           0.005049206   -0.007501147   -0.000015240
      5        7          -0.026185539   -0.001224936   -0.001162803
      6        1           0.000028553   -0.000437789   -0.000051889
      7        1          -0.000254725   -0.000126441   -0.000135105
      8        1          -0.000308314   -0.002975216   -0.000200064
      9        6          -0.018712800    0.003240956    0.012354201
     10        8           0.005379875    0.002982624   -0.004303263
     11        8           0.002334515    0.002283896   -0.005257544
 -------------------------------------------------------------------
 Cartesian Forces:  Max     0.026185539 RMS     0.008696610

 GradGradGradGradGradGradGradGradGradGradGradGradGradGradGradGradGradGrad
 Berny optimization.
 Using GEDIIS/GDIIS optimizer.
 FormGI is forming the generalized inverse of G from B-inverse, IUseBI=4.
 Internal  Forces:  Max     0.018214772 RMS     0.004898902
 Search for a local minimum.
 Step number   4 out of a maximum of   57
 All quantities printed in internal units (Hartrees-Bohrs-Radians)
 Mixed Optimization -- RFO/linear search
 Update second derivatives using D2CorX and points    1    2    3    4
 DE= -4.30D-03 DEPred=-7.13D-03 R= 6.02D-01
 TightC=F SS=  1.41D+00  RLast= 2.92D-01 DXNew= 5.0454D-01 8.7634D-01
 Trust test= 6.02D-01 RLast= 2.92D-01 DXMaxT set to 5.05D-01
 ITU=  1  0  0  0
 Use linear search instead of GDIIS.
     Eigenvalues ---    0.00266   0.01408   0.02228   0.02298   0.02342
     Eigenvalues ---    0.02399   0.02435   0.13584   0.14832   0.16003
     Eigenvalues ---    0.16045   0.21914   0.22542   0.24881   0.25032
     Eigenvalues ---    0.26043   0.33276   0.36182   0.36312   0.39846
     Eigenvalues ---    0.46010   0.48242   0.50588   0.54489   0.60992
     Eigenvalues ---    0.88219   0.89477
 RFO step:  Lambda=-2.54337290D-03 EMin= 2.65865980D-03
 Quartic linear search produced a step of -0.28703.
 Iteration  1 RMS(Cart)=  0.02450504 RMS(Int)=  0.00066943
 Iteration  2 RMS(Cart)=  0.00080357 RMS(Int)=  0.00026950
 Iteration  3 RMS(Cart)=  0.00000029 RMS(Int)=  0.00026950
 Variable       Old X    -DE/DX   Delta X   Delta X   Delta X     New X
                                 (Linear)    (Quad)   (Total)
    R1        2.58905   0.01020   0.02261   0.01282   0.03542   2.62446
    R2        2.52327   0.01821   0.02389   0.02597   0.04988   2.57315
    R3        2.87596  -0.01352  -0.01563  -0.04011  -0.05574   2.82021
    R4        2.59573   0.00667   0.01277   0.01232   0.02506   2.62079
    R5        1.90363  -0.00045  -0.00171  -0.00165  -0.00335   1.90028
    R6        2.60685   0.00474   0.01087  -0.00580   0.00507   2.61193
    R7        2.03622  -0.00042  -0.00091  -0.00016  -0.00107   2.03515
    R8        2.55784  -0.00438  -0.00681  -0.00577  -0.01254   2.54529
    R9        2.04189   0.00020   0.00011   0.00264   0.00275   2.04464
   R10        2.34746   0.00593   0.00140   0.01240   0.01381   2.36127
   R11        2.32520  -0.00327  -0.00440   0.00015  -0.00425   2.32096
    A1        1.91581   0.00387   0.02264  -0.00978   0.01282   1.92862
    A2        2.05505   0.00063  -0.00526   0.01961   0.01432   2.06936
    A3        2.31069  -0.00454  -0.01718  -0.01082  -0.02799   2.28270
    A4        1.89396  -0.00694  -0.02425   0.00009  -0.02422   1.86974
    A5        2.05625   0.00065   0.00958  -0.02696  -0.01735   2.03891
    A6        2.33295   0.00629   0.01467   0.02686   0.04157   2.37452
    A7        1.81912   0.00274   0.00666   0.00085   0.00744   1.82657
    A8        2.14401  -0.00149  -0.00492   0.00328  -0.00164   2.14237
    A9        2.32005  -0.00125  -0.00174  -0.00410  -0.00582   2.31423
   A10        1.94500   0.00703   0.01784   0.00809   0.02594   1.97093
   A11        2.24051  -0.00331  -0.00506  -0.01083  -0.01590   2.22460
   A12        2.09768  -0.00372  -0.01277   0.00274  -0.01004   2.08764
   A13        1.85088  -0.00670  -0.02288   0.00066  -0.02217   1.82870
   A14        1.92714  -0.00236  -0.00795   0.01725   0.00831   1.93545
   A15        1.99574   0.00312   0.00649   0.01213   0.01763   2.01336
   A16        2.35642   0.00024  -0.00085  -0.02022  -0.02207   2.33436
    D1        0.00550   0.00036  -0.00144   0.01609   0.01474   0.02024
    D2        3.14029   0.00034   0.00015   0.01478   0.01511  -3.12779
    D3        3.09317  -0.00034   0.00177  -0.00050   0.00091   3.09409
    D4       -0.05523  -0.00036   0.00336  -0.00181   0.00128  -0.05395
    D5       -0.00653  -0.00027   0.00200  -0.01338  -0.01151  -0.01804
    D6       -3.08349   0.00028  -0.00245   0.00520   0.00247  -3.08102
    D7        0.03598  -0.00463   0.02859  -0.03133  -0.00287   0.03311
    D8        3.09747   0.00565   0.01128   0.06181   0.07297  -3.11274
    D9        3.10884  -0.00514   0.03393  -0.05204  -0.01798   3.09086
   D10       -0.11285   0.00514   0.01663   0.04109   0.05785  -0.05500
   D11       -0.00208  -0.00030   0.00026  -0.01168  -0.01144  -0.01352
   D12        3.13690  -0.00008   0.00106  -0.00344  -0.00234   3.13455
   D13       -3.13535  -0.00022  -0.00167  -0.00975  -0.01148   3.13636
   D14        0.00363  -0.00001  -0.00087  -0.00151  -0.00239   0.00124
   D15       -0.00198   0.00012   0.00103   0.00358   0.00469   0.00271
   D16        3.13880   0.00022   0.00072   0.00888   0.00959  -3.13479
   D17       -3.14057  -0.00013   0.00012  -0.00588  -0.00571   3.13690
   D18        0.00021  -0.00003  -0.00020  -0.00058  -0.00081  -0.00060
   D19        0.00531   0.00007  -0.00188   0.00601   0.00405   0.00936
   D20       -3.13555  -0.00002  -0.00160   0.00121  -0.00042  -3.13597
         Item               Value     Threshold  Converged?
 Maximum Force            0.018215     0.000450     NO 
 RMS     Force            0.004899     0.000300     NO 
 Maximum Displacement     0.074491     0.001800     NO 
 RMS     Displacement     0.024478     0.001200     NO 
 Predicted change in Energy=-2.195790D-03
 GradGradGradGradGradGradGradGradGradGradGradGradGradGradGradGradGradGrad

                          Input orientation:                          
 ---------------------------------------------------------------------
 Center     Atomic      Atomic             Coordinates (Angstroms)
[...]
    A1        1.93656  -0.00002   0.00000  -0.00014  -0.00014   1.93642
    A2        2.01832   0.00002   0.00000  -0.00017  -0.00017   2.01815
    A3        2.14818  -0.00001   0.00000  -0.00033  -0.00033   2.14785
    A4        1.83854  -0.00003   0.00000  -0.00002  -0.00001   1.83852
    A5        1.89723   0.00002   0.00000   0.00033   0.00033   1.89756
    A6        2.16555   0.00000   0.00000   0.00002   0.00002   2.16557
    A7        1.84876   0.00002   0.00000   0.00008   0.00008   1.84884
    A8        2.12698  -0.00001   0.00000  -0.00002  -0.00002   2.12696
    A9        2.30120  -0.00000   0.00000   0.00021   0.00021   2.30141
   A10        1.96461   0.00000   0.00000  -0.00002  -0.00002   1.96458
   A11        2.22746  -0.00001   0.00000  -0.00004  -0.00004   2.22742
   A12        2.09110   0.00001   0.00000   0.00007   0.00007   2.09117
   A13        1.83334   0.00003   0.00000   0.00014   0.00014   1.83349
   A14        1.93954   0.00001   0.00000  -0.00004  -0.00004   1.93950
   A15        2.00540  -0.00002   0.00000  -0.00016  -0.00016   2.00523
   A16        2.33796   0.00002   0.00000   0.00021   0.00021   2.33816
    D1       -0.05083   0.00001   0.00000   0.00047   0.00047  -0.05036
    D2       -2.40584   0.00001   0.00000   0.00021   0.00021  -2.40563
    D3        2.50300  -0.00000   0.00000  -0.00056  -0.00056   2.50244
    D4        0.14799  -0.00000   0.00000  -0.00082  -0.00082   0.14718
    D5        0.00936  -0.00000   0.00000  -0.00019  -0.00019   0.00916
    D6       -2.49297   0.00000   0.00000   0.00086   0.00086  -2.49211
    D7        0.12244   0.00001   0.00000   0.00123   0.00123   0.12368
    D8       -3.04165   0.00002   0.00000   0.00130   0.00130  -3.04035
    D9        2.59784  -0.00000   0.00000   0.00014   0.00014   2.59798
   D10       -0.56625   0.00001   0.00000   0.00021   0.00021  -0.56604
   D11        0.07000  -0.00001   0.00000  -0.00054  -0.00054   0.06946
   D12        3.10496   0.00001   0.00000   0.00179   0.00179   3.10674
   D13        2.26816  -0.00000   0.00000  -0.00005  -0.00005   2.26811
   D14       -0.98006   0.00002   0.00000   0.00228   0.00228  -0.97779
   D15       -0.06989   0.00001   0.00000   0.00046   0.00046  -0.06943
   D16        3.07744   0.00000   0.00000   0.00014   0.00014   3.07758
   D17       -3.08984  -0.00001   0.00000  -0.00217  -0.00217  -3.09201
   D18        0.05749  -0.00002   0.00000  -0.00249  -0.00249   0.05500
   D19        0.03804  -0.00001   0.00000  -0.00017  -0.00017   0.03787
   D20       -3.10878   0.00000   0.00000   0.00012   0.00012  -3.10866
         Item               Value     Threshold  Converged?
 Maximum Force            0.000066     0.000450     YES
 RMS     Force            0.000023     0.000300     YES
 Maximum Displacement     0.002660     0.001800     NO 
 RMS     Displacement     0.000619     0.001200     YES
 Predicted change in Energy=-1.371823D-07
                           ----------------------------
                           ! Non-Optimized Parameters !
                           ! (Angstroms and Degrees)  !
 --------------------------                            --------------------------
 ! Name  Definition              Value          Derivative Info.                !
 --------------------------------------------------------------------------------
 ! R1    R(1,2)                  1.4049         -DE/DX =    0.0001              !
 ! R2    R(1,5)                  1.3633         -DE/DX =    0.0                 !
 ! R3    R(1,9)                  1.5117         -DE/DX =    0.0                 !
 ! R4    R(2,3)                  1.3962         -DE/DX =    0.0001              !
 ! R5    R(2,8)                  1.0224         -DE/DX =    0.0                 !
 ! R6    R(3,4)                  1.378          -DE/DX =    0.0                 !
 ! R7    R(3,6)                  1.0782         -DE/DX =    0.0                 !
 ! R8    R(4,5)                  1.3436         -DE/DX =    0.0                 !
 ! R9    R(4,7)                  1.0824         -DE/DX =    0.0                 !
 ! R10   R(9,10)                 1.2489         -DE/DX =   -0.0001              !
 ! R11   R(9,11)                 1.2265         -DE/DX =    0.0                 !
 ! A1    A(2,1,5)              110.9484         -DE/DX =    0.0                 !
 ! A2    A(2,1,9)              115.6316         -DE/DX =    0.0                 !
 ! A3    A(5,1,9)              123.0629         -DE/DX =    0.0                 !
 ! A4    A(1,2,3)              105.3396         -DE/DX =    0.0                 !
 ! A5    A(1,2,8)              108.7221         -DE/DX =    0.0                 !
 ! A6    A(3,2,8)              124.0781         -DE/DX =    0.0                 !
 ! A7    A(2,3,4)              105.9308         -DE/DX =    0.0                 !
 ! A8    A(2,3,6)              121.8659         -DE/DX =    0.0                 !
 ! A9    A(4,3,6)              131.8608         -DE/DX =    0.0                 !
 ! A10   A(3,4,5)              112.5623         -DE/DX =    0.0                 !
 ! A11   A(3,4,7)              127.6217         -DE/DX =    0.0                 !
 ! A12   A(5,4,7)              119.8152         -DE/DX =    0.0                 !
 ! A13   A(1,5,4)              105.051          -DE/DX =    0.0                 !
 ! A14   A(1,9,10)             111.1249         -DE/DX =    0.0                 !
 ! A15   A(1,9,11)             114.8912         -DE/DX =    0.0                 !
 ! A16   A(10,9,11)            133.9669         -DE/DX =    0.0                 !
 ! D1    D(5,1,2,3)             -2.8854         -DE/DX =    0.0                 !
 ! D2    D(5,1,2,8)           -137.8322         -DE/DX =    0.0                 !
 ! D3    D(9,1,2,3)            143.3794         -DE/DX =    0.0                 !
 ! D4    D(9,1,2,8)              8.4326         -DE/DX =    0.0                 !
 ! D5    D(2,1,5,4)              0.525          -DE/DX =    0.0                 !
 ! D6    D(9,1,5,4)           -142.7875         -DE/DX =    0.0                 !
 ! D7    D(2,1,9,10)             7.0861         -DE/DX =    0.0                 !
 ! D8    D(2,1,9,11)          -174.1991         -DE/DX =    0.0                 !
 ! D9    D(5,1,9,10)           148.8532         -DE/DX =    0.0                 !
 ! D10   D(5,1,9,11)           -32.4319         -DE/DX =    0.0                 !
 ! D11   D(1,2,3,4)              3.9798         -DE/DX =    0.0                 !
 ! D12   D(1,2,3,6)            178.0033         -DE/DX =    0.0                 !
 ! D13   D(8,2,3,4)            129.9534         -DE/DX =    0.0                 !
 ! D14   D(8,2,3,6)            -56.0231         -DE/DX =    0.0                 !
 ! D15   D(2,3,4,5)             -3.9778         -DE/DX =    0.0                 !
 ! D16   D(2,3,4,7)            176.3324         -DE/DX =    0.0                 !
 ! D17   D(6,3,4,5)           -177.1589         -DE/DX =    0.0                 !
 ! D18   D(6,3,4,7)              3.1513         -DE/DX =    0.0                 !
 ! D19   D(3,4,5,1)              2.17           -DE/DX =    0.0                 !
 ! D20   D(7,4,5,1)           -178.1132         -DE/DX =    0.0                 !
 --------------------------------------------------------------------------------
 GradGradGradGradGradGradGradGradGradGradGradGradGradGradGradGradGradGrad


 ----------------------------------------------------------------------

 Electric dipole moment (input orientation):
 (Debye = 10**-18 statcoulomb cm , SI units = C m)
                  (au)            (Debye)         (10**-30 SI)
   Tot        0.273108D+01      0.694171D+01      0.231550D+02
   x         -0.615990D+00     -0.156569D+01     -0.522258D+01
   y          0.266066D+01      0.676273D+01      0.225580D+02
   z         -0.147545D-01     -0.375022D-01     -0.125094D+00

 Dipole polarizability, Alpha (input orientation).
 (esu units = cm**3 , SI units = C**2 m**2 J**-1)
 Alpha(0;0):
               (au)            (10**-24 esu)      (10**-40 SI)
   iso        0.730076D+02      0.108186D+02      0.120373D+02
   aniso      0.405566D+02      0.600986D+01      0.668687D+01
   xx         0.788118D+02      0.116787D+02      0.129943D+02
   yx        -0.505284D+01     -0.748754D+00     -0.833101D+00
   yy         0.923779D+02      0.136890D+02      0.152311D+02
   zx         0.590494D+00      0.875022D-01      0.973594D-01
   zy        -0.103539D+01     -0.153429D+00     -0.170713D+00
   zz         0.478331D+02      0.708813D+01      0.788661D+01

 ----------------------------------------------------------------------

 Dipole orientation:
     7          0.70203054         -0.61064582         -2.15833132
     7          2.31303946         -0.20577728         -0.08755219
     6          0.71502726          0.13261232          1.98428091
     6         -1.70132951         -0.25526865          1.09388027
     7         -1.76377509         -0.65243227         -1.41309580
     1          1.44029035          0.42084676          3.86644809
     1         -3.44232666         -0.25796306          2.16755210
     1          3.68952220          1.04587847         -0.60886430
     6          1.56333917          0.52278849         -4.63450526
     8          3.73878957          1.41916300         -4.44877702
     8          0.04391633          0.33487242         -6.37473443

 Electric dipole moment (dipole orientation):
 (Debye = 10**-18 statcoulomb cm , SI units = C m)
                  (au)            (Debye)         (10**-30 SI)
   Tot        0.273108D+01      0.694171D+01      0.231550D+02
   x          0.000000D+00      0.000000D+00      0.000000D+00
   y          0.000000D+00      0.000000D+00      0.000000D+00
   z          0.273108D+01      0.694171D+01      0.231550D+02

 Dipole polarizability, Alpha (dipole orientation).
 (esu units = cm**3 , SI units = C**2 m**2 J**-1)
 Alpha(0;0):
               (au)            (10**-24 esu)      (10**-40 SI)
   iso        0.730076D+02      0.108186D+02      0.120373D+02
   aniso      0.405566D+02      0.600986D+01      0.668687D+01
   xx         0.759291D+02      0.112515D+02      0.125190D+02
   yx         0.617396D+01      0.914886D+00      0.101795D+01
   yy         0.491743D+02      0.728688D+01      0.810775D+01
   zx        -0.172077D+01     -0.254992D+00     -0.283717D+00
   zy         0.518146D+00      0.767814D-01      0.854308D-01
   zz         0.939193D+02      0.139174D+02      0.154852D+02

 ----------------------------------------------------------------------
 1\1\GINC-NODE2\Freq\UM062X\6-31+G(d,p)\C3H3N3O2(1-,2)\GONGKE2021\05-Ju
 n-2023\0\\#N Geom=AllCheck Guess=TCheck SCRF=Check GenChk UM062X/6-31+
 G(d,p) Freq\\RC\\-1,2\N,0.5387145758,-1.0454003775,0.4047695733\N,1.14
 77942577,0.2202983918,0.3824083186\C,0.1376924556,1.1097667346,0.01130
 32734\C,-1.0146590867,0.3588511001,-0.0745899969\N,-0.7932255347,-0.95
 04937661,0.1298749982\H,0.3109059017,2.1718543497,-0.0561082318\H,-2.0
 172954573,0.7087608048,-0.2840672165\H,2.0474923502,0.142767958,-0.097
 0815333\C,1.3992397241,-2.1938179656,-0.0696731556\O,2.5741834658,-1.8
 22039242,-0.2726641454\O,0.822057348,-3.2731479878,-0.149171884\\Versi
 on=ES64L-G16RevA.03\State=2-A\HF=-430.6608774\S2=0.765678\S2-1=0.\S2A=
 0.750091\RMSD=4.081e-09\RMSF=4.209e-05\ZeroPoint=0.0714126\Thermal=0.0
 778234\Dipole=-0.61599,2.6606618,-0.0147545\DipoleDeriv=-0.3954873,0.8
 643084,0.0945788,0.5569855,-0.8335801,0.047315,0.1807878,-0.1401178,-0
 .2490438,-0.7412382,-0.0895753,-0.1938118,-0.103204,-0.1193462,-0.1311
 613,-0.3254544,-0.2162526,-0.1808228,0.0555493,-0.1580257,0.1931263,-0
 .0667746,-0.3578039,-0.0147686,0.192868,0.1098826,-0.3362295,0.3200833
 ,0.1981026,0.0392411,0.2088135,0.6512362,-0.1191469,0.0457417,-0.07082
 87,-0.0753774,-0.2788865,-0.3542146,0.0693735,-0.2090199,-0.7127523,-0
 .0115791,0.06978,-0.0206456,-0.1945838,0.0767549,-0.0049844,-0.028304,
 -0.013107,-0.0942374,0.020437,-0.0562653,-0.0296805,0.2312618,-0.09632
 78,0.0914858,-0.0441595,0.0772949,0.0529701,0.0146701,-0.0493771,0.031
 2208,0.1399056,0.3409986,-0.0395568,0.0230038,-0.014106,0.3281335,0.02
 46273,0.1196399,0.0904476,0.2696539,2.1651428,-0.266966,-0.3324627,-0.
 189245,2.7847225,0.2142404,-0.4294623,0.4316243,0.4199999,-1.6661573,0
 .0926841,0.1634615,-0.0795656,-0.9010967,0.0101524,0.2072917,-0.039524
 9,-0.531595,-0.7804318,-0.3332582,0.0159529,-0.1680717,-1.7982458,-0.0
 547863,0.0444501,-0.1461252,-0.4931688\Polar=78.8118142,-5.0528401,92.
 3778505,0.5904944,-1.0353924,47.8330757\Quadrupole=-1.2294132,-3.76094
 14,4.9903546,2.6814886,1.3307898,-2.351257\PG=C01 [X(C3H3N3O2)]\NImag=
 0\\0.59372814,-0.04843500,0.58302398,0.02486315,0.00576460,0.08744328,
 -0.11932278,-0.03341583,0.00721294,0.77552615,-0.03920002,-0.20046970,
 -0.03011345,-0.07687498,0.48546760,0.03410239,0.01539670,-0.02487381,-
 0.12450468,-0.04069868,0.17759162,-0.00023025,0.03044181,-0.01306879,-
 0.21823426,0.10098626,-0.02311671,0.59373952,0.01132544,-0.07984038,0.
 01595050,0.07825847,-0.16031153,0.03827297,0.10251587,0.80997967,-0.00
 303555,0.01451347,-0.01014679,-0.04589617,0.06004389,-0.05066639,0.075
 83386,-0.07340870,0.09556389,-0.06445715,0.04241318,-0.01118544,-0.067
 87405,0.02567843,-0.01758494,-0.30447018,-0.12245219,-0.02476427,0.850
 02618,0.04817405,-0.03400345,0.01762884,-0.00322775,-0.00307499,-0.007
 64260,-0.09639000,-0.13179204,-0.00722715,-0.06982143,0.56164380,-0.02
 052647,0.01521094,0.00437841,-0.01847719,0.00757615,0.00719253,-0.0245
 9948,-0.01064537,-0.05424228,0.13075863,-0.06432260,0.15117277,-0.2468
 1609,-0.01846365,-0.02518176,-0.07494647,-0.04055167,-0.01831030,0.014
 59429,-0.02265392,0.00415549,-0.10119983,0.06320884,-0.01576470,0.4281
 8942,0.05440143,-0.10930920,-0.00180452,-0.02013429,-0.00558570,0.0051
 5899,-0.08050220,-0.10644058,0.00549301,0.04260186,-0.29661877,0.03414
 562,-0.02173990,0.51806754,-0.06181876,-0.00895872,-0.04245009,-0.0082
 6116,-0.00293825,-0.00558348,0.00993834,0.01374612,0.02922503,-0.01550
 187,0.03668430,-0.06219138,0.06128702,-0.04887485,0.08529291,-0.006842
 96,0.00331382,-0.00156048,0.00964046,0.02518579,-0.00070631,-0.0630710
 9,-0.05739447,-0.00549454,0.00867705,-0.02177669,0.00359634,-0.0039233
 0,-0.00354213,-0.00093110,0.05501231,0.00133406,-0.00098332,-0.0005558
 4,-0.00621341,-0.01178824,-0.00066867,-0.05154880,-0.35577017,0.025796
 22,0.00415721,-0.00506032,0.00023411,0.00022194,0.00045634,0.00110081,
 0.05315930,0.37444963,-0.00167668,-0.00031369,0.00333192,0.00266377,0.
 00843919,-0.00552461,-0.00666006,0.01787787,-0.01342911,0.00222707,0.0
 0106976,-0.00253711,-0.00185004,-0.00233305,0.00603004,0.00443645,-0.0
 2612150,0.01452620,0.00066717,-0.00054270,-0.00060411,-0.00252329,-0.0
 0113873,-0.00033866,-0.00973309,0.01250081,-0.00353358,-0.31520568,0.0
 8292203,-0.05768040,-0.00108114,0.00230438,0.00056669,-0.00036865,-0.0
 0056837,0.00046056,0.32806900,0.00308606,-0.00766523,0.00110875,-0.004
 52837,-0.00351578,0.00182164,-0.01325425,0.01280799,-0.00437512,0.0780
 0010,-0.08478113,0.01964172,0.03102567,-0.00412750,0.00551444,0.000787
 08,-0.00036077,-0.00001200,-0.09549783,0.08568272,0.00006075,0.0036585
 2,0.00760831,-0.00110528,-0.00232388,0.00736805,-0.00046524,0.00053981
 ,-0.00003213,-0.05731777,0.01885359,-0.04429070,-0.00299285,0.00257304
 ,-0.00657259,0.00037536,-0.00023807,-0.00207584,0.06226886,-0.02374598
 ,0.03783693,-0.02109933,-0.00638530,0.00456414,-0.31121219,0.01297762,
 0.15270338,-0.01251782,0.00309181,0.00027290,0.00070982,0.00225709,0.0
 0060714,0.00187340,-0.00118472,0.00396859,-0.00039222,0.00008354,0.000
 13453,-0.00008533,-0.00006735,0.00024306,0.34492329,-0.03147094,0.0017
 4834,0.01206789,0.03225314,-0.05400854,-0.00471233,0.01589097,0.003915
 23,-0.01217607,0.00244693,-0.00602766,0.00038487,-0.00458297,-0.004920
 53,0.00080653,-0.00024127,-0.00053351,0.00064887,0.00002589,0.00048974
 ,0.00093941,-0.00815405,0.05537527,-0.00491725,0.00616158,-0.00136357,
 0.19026934,0.00095952,-0.10538944,-0.01925696,-0.00570803,0.00476263,-
 0.00346682,0.00383900,0.00012999,0.00005529,-0.00343270,-0.00146538,0.
 00076683,0.00008436,-0.00015425,-0.00100872,-0.00094074,0.00001908,-0.
 16220890,0.00132213,0.10551934,-0.07032313,0.00208274,-0.01125587,0.00
 247390,-0.00368683,-0.00712148,0.00118985,-0.01562613,0.00600525,-0.00
 499578,-0.00058251,0.00144485,-0.02239262,0.01368632,0.00555729,0.0015
 2488,-0.00156573,-0.00026763,0.00058365,-0.00033245,-0.00026132,0.0091
 6936,-0.01744675,0.00171165,0.78077832,-0.02354811,-0.07717629,0.01001
 353,0.01088039,-0.02893029,-0.00228351,-0.00837808,0.00544001,-0.00469
 801,-0.00667195,0.00492272,-0.00433469,0.01573731,0.00732495,0.0049118
 2,-0.00043557,0.00062531,0.00026729,-0.00108679,0.00225178,-0.00130086
 ,-0.00355546,-0.00345286,-0.00085050,0.37089119,0.73865700,0.00451486,
 -0.02617902,-0.04503807,-0.00725403,0.00220555,-0.00492140,0.00191663,
 0.00609775,-0.00246399,-0.00631100,0.00137205,0.00015567,0.00055992,0.
 01637734,-0.00279349,-0.00103824,0.00096722,0.00013760,-0.00059734,0.0
 0190943,0.00020670,-0.00171221,0.00299084,0.00311098,-0.04789440,0.010
 33989,0.23540282,-0.07944377,0.02113961,0.02821952,0.00509030,-0.00378
 293,0.00351359,-0.00246777,0.00750093,-0.00251886,-0.00350075,-0.00284
 852,-0.00076231,0.00492432,0.01120442,0.00393133,-0.00032148,0.0006287
 7,0.00053058,-0.00037713,0.00100386,-0.00093902,-0.00885950,0.00694499
 ,-0.00174772,-0.48111250,-0.13068570,0.06959183,0.61628649,0.02541020,
 0.00250672,-0.00462835,0.01392260,-0.01108608,-0.00155976,0.00028529,0
 .00519409,-0.00398626,0.00324292,-0.00237131,0.00114653,0.00072177,-0.
 00025481,-0.00334502,-0.00001421,-0.00008077,0.00020013,0.00041248,-0.
 00012029,0.00075883,0.00067784,0.00517178,-0.00149788,-0.11909971,-0.1
 4277594,0.01610573,0.15149936,0.16787072,0.03013633,-0.00357659,0.0113
 5671,0.00155102,-0.00118602,0.00224686,0.00009712,-0.00083931,0.000830
 05,0.00276679,0.00071908,0.00015681,-0.00151285,-0.00643652,0.00008553
 ,0.00010442,-0.00024279,-0.00023861,0.00031668,-0.00065986,-0.00001824
 ,0.00073302,-0.00184961,-0.00496484,0.06701161,0.01852131,-0.09702486,
 -0.10596812,-0.01042365,0.05771013,0.01414014,0.00785133,-0.00200331,0
 .00138223,0.00040704,0.00136373,0.00120079,0.00293337,-0.00102452,0.00
 229037,-0.00191511,0.00140360,0.00077802,0.00290483,0.00126364,0.00006
 500,0.00031148,0.00000146,0.00005450,-0.00022253,0.00013346,-0.0025094
 6,0.00433405,-0.00019676,-0.21689593,-0.22314724,-0.01177603,-0.050218
 22,-0.07705856,0.00476400,0.24971255,-0.00107716,-0.07783148,-0.025431
 95,0.00908002,-0.00669675,-0.00308475,-0.00004687,-0.00318229,0.000024
 73,0.00040493,-0.00283685,0.00096273,-0.00292344,0.00140825,0.00135283
 ,0.00095834,-0.00095419,0.00027714,0.00066882,-0.00066153,0.00028559,0
 .00025897,0.00224274,0.00006325,-0.22832015,-0.50688639,-0.03218677,-0
 .06260480,-0.02405411,0.00597397,0.28360133,0.61945260,-0.00170277,-0.
 02167778,0.00975370,0.00380144,-0.00196402,0.00256008,-0.00061871,-0.0
 0188359,0.00059909,0.00037961,-0.00097427,0.00007528,-0.00044521,-0.00
 086635,0.00042291,0.00045128,-0.00035586,-0.00006624,0.00015003,-0.000
 26229,-0.00004957,0.00069436,-0.00042252,-0.00020455,-0.01492994,-0.03
 058627,-0.08677198,0.00614919,0.00722971,0.02986047,0.00607073,0.05176
 324,0.04382080\\0.00004966,0.00002967,-0.00004415,-0.00011346,-0.00000
 390,0.00004452,0.00010838,-0.00001923,-0.00004819,-0.00002931,0.000010
 62,0.00002436,-0.00001381,-0.00003131,0.00000116,-0.00000753,0.0000104
 3,0.00003186,0.00001382,-0.00000698,-0.00000843,0.00002474,-0.00002144
 ,-0.00001892,-0.00009643,0.00005303,0.00002695,0.00006153,0.00001364,-
 0.00001292,0.00000241,-0.00003453,0.00000375\\\@


 TIME GOES, YOU SAY?  AH NO!
 ALAS, TIME STAYS, WE GO.
    -- A. DOBSON (1840-1921)
 Job cpu time:       0 days  0 hours 40 minutes  3.7 seconds.
 Elapsed time:       0 days  0 hours  2 minutes  1.2 seconds.
 File lengths (MBytes):  RWF=     73 Int=      0 D2E=      0 Chk=      5 Scr=      1
 Normal termination of Gaussian 16 at Mon Jun  5 04:47:41 2023.
