 Entering Gaussian System, Link 0=/home/gau/soft/g16/g16
 Initial command:
 /home/gau/soft/g16/l1.exe "/home/gau/soft/scratch/Gau-28621.inp" -scrdir="/home/gau/soft/scratch/"
 Entering Link 1 = /home/gau/soft/g16/l1.exe PID=     28622.
  
 Copyright (c) 1988-2019, Gaussian, Inc.  All Rights Reserved.
  
 This is part of the Gaussian(R) 16 program.  It is based on
 the Gaussian(R) 09 system (copyright 2009, Gaussian, Inc.),
 the Gaussian(R) 03 system (copyright 2003, Gaussian, Inc.),
 the Gaussian(R) 98 system (copyright 1998, Gaussian, Inc.),
 the Gaussian(R) 94 system (copyright 1995, Gaussian, Inc.),
 the Gaussian 92(TM) system (copyright 1992, Gaussian, Inc.),
 the Gaussian 90(TM) system (copyright 1990, Gaussian, Inc.),
 the Gaussian 88(TM) system (copyright 1988, Gaussian, Inc.),
 the Gaussian 86(TM) system (copyright 1986, Carnegie Mellon
 University), and the Gaussian 82(TM) system (copyright 1983,
 Carnegie Mellon University). Gaussian is a federally registered
 trademark of Gaussian, Inc.
  
 This software contains proprietary and confidential information,
 including trade secrets, belonging to Gaussian, Inc.
  
 This software is provided under written license and may be
 used, copied, transmitted, or stored only in accord with that
 written license.
  
 The following legend is applicable only to US Government
 contracts under FAR:
  
                    RESTRICTED RIGHTS LEGEND
  
 Use, reproduction and disclosure by the US Government is
 subject to restrictions as set forth in subparagraphs (a)
 and (c) of the Commercial Computer Software - Restricted
 Rights clause in FAR 52.227-19.
  
 Gaussian, Inc.
 340 Quinnipiac St., Bldg. 40, Wallingford CT 06492
  
  
 ---------------------------------------------------------------
 Warning -- This program may not be used in any manner that
 competes with the business of Gaussian, Inc. or will provide
 assistance to any competitor of Gaussian, Inc.  The licensee
 of this program is prohibited from giving any competitor of
 Gaussian, Inc. access to this program.  By using this program,
 the user acknowledges that Gaussian, Inc. is engaged in the
 business of creating and licensing software in the field of
 computational chemistry and represents and warrants to the
 licensee that it is not a competitor of Gaussian, Inc. and that
 it will not use this program in any manner prohibited above.
 ---------------------------------------------------------------
  

 Cite this work as:
 Gaussian 16, Revision C.01,
 M. J. Frisch, G. W. Trucks, H. B. Schlegel, G. E. Scuseria, 
 M. A. Robb, J. R. Cheeseman, G. Scalmani, V. Barone, 
 G. A. Petersson, H. Nakatsuji, X. Li, M. Caricato, A. V. Marenich, 
 J. Bloino, B. G. Janesko, R. Gomperts, B. Mennucci, H. P. Hratchian, 
 J. V. Ortiz, A. F. Izmaylov, J. L. Sonnenberg, D. Williams-Young, 
 F. Ding, F. Lipparini, F. Egidi, J. Goings, B. Peng, A. Petrone, 
 T. Henderson, D. Ranasinghe, V. G. Zakrzewski, J. Gao, N. Rega, 
 G. Zheng, W. Liang, M. Hada, M. Ehara, K. Toyota, R. Fukuda, 
 J. Hasegawa, M. Ishida, T. Nakajima, Y. Honda, O. Kitao, H. Nakai, 
 T. Vreven, K. Throssell, J. A. Montgomery, Jr., J. E. Peralta, 
 F. Ogliaro, M. J. Bearpark, J. J. Heyd, E. N. Brothers, K. N. Kudin, 
 V. N. Staroverov, T. A. Keith, R. Kobayashi, J. Normand, 
 K. Raghavachari, A. P. Rendell, J. C. Burant, S. S. Iyengar, 
 J. Tomasi, M. Cossi, J. M. Millam, M. Klene, C. Adamo, R. Cammi, 
 J. W. Ochterski, R. L. Martin, K. Morokuma, O. Farkas, 
 J. B. Foresman, and D. J. Fox, Gaussian, Inc., Wallingford CT, 2019.
 
 ******************************************
 Gaussian 16:  ES64L-G16RevC.01  3-Jul-2019
                 6-Dec-2023 
 ******************************************
 %mem=10GB
 %nprocshared=48
 Will use up to   48 processors via shared memory.
 ----------------------------------------------------------------------
 # opt=(calcfc,ts,noeigentest,maxcycle=600) freq 6-31+g(d,p) integral=g
 rid=ultrafine m062x
 ----------------------------------------------------------------------
 1/5=1,6=600,10=4,11=1,18=20,26=4,38=1/1,3;
 2/9=110,12=2,17=6,18=5,40=1/2;
 3/5=1,6=6,7=111,11=2,25=1,30=1,71=2,74=-55,75=-5,140=1/1,2,3;
 4//1;
 5/5=2,38=5/2;
 8/6=4,10=90,11=11/1;
 11/6=1,8=1,9=11,15=111,16=1/1,2,10;
 10/6=1,13=1/2;
 6/7=2,8=2,9=2,10=2,28=1/1;
 7/10=1,25=1/1,2,3,16;
 1/5=1,6=600,10=4,11=1,18=20,26=4/3(2);
 2/9=110/2;
 99//99;
 2/9=110/2;
 3/5=1,6=6,7=111,11=2,25=1,30=1,71=1,74=-55,75=-5/1,2,3;
 4/5=5,16=3,69=1/1;
 5/5=2,38=5/2;
 7//1,2,3,16;
 1/5=1,6=600,11=1,18=20,26=4/3(-5);
 2/9=110/2;
 6/7=2,8=2,9=2,10=2,19=2,28=1/1;
 99/9=1/99;
 --
 TS
 --
 Symbolic Z-matrix:
 Charge =  0 Multiplicity = 1
 O                     1.97825  -1.89647  -0.45649 
 H                     2.78843  -1.80856  -0.98066 
 H                     1.43538  -2.62988  -0.80066 
 N                    -0.50812   0.35943   0.00709 
 N                    -0.26881  -0.94174  -0.01856 
 C                    -1.47323  -1.51198  -0.02241 
 C                    -2.42056  -0.47879   0.00357 
 N                    -1.77281   0.68792   0.02024 
 H                    -1.59782  -2.58373  -0.04655 
 H                    -3.49856  -0.52174   0.00765 
 H                     1.39647  -0.99888  -0.08508 
 C                     0.69641   1.30814  -0.00572 
 O                     1.73469   0.6009   -0.05814 
 O                     0.44781   2.48217   0.03648 
 
 Add virtual bond connecting atoms N5         and H11        Dist= 3.15D+00.
 Add virtual bond connecting atoms O13        and H11        Dist= 3.09D+00.

 GradGradGradGradGradGradGradGradGradGradGradGradGradGradGradGradGradGrad
 Berny optimization.
 Initialization pass.
                           ----------------------------
                           !    Initial Parameters    !
                           ! (Angstroms and Degrees)  !
 --------------------------                            --------------------------
 ! Name  Definition              Value          Derivative Info.                !
 --------------------------------------------------------------------------------
 ! R1    R(1,2)                  0.969          calculate D2E/DX2 analytically  !
 ! R2    R(1,3)                  0.9752         calculate D2E/DX2 analytically  !
 ! R3    R(1,11)                 1.1323         calculate D2E/DX2 analytically  !
 ! R4    R(4,5)                  1.3232         calculate D2E/DX2 analytically  !
 ! R5    R(4,8)                  1.3067         calculate D2E/DX2 analytically  !
 ! R6    R(4,12)                 1.5333         calculate D2E/DX2 analytically  !
 ! R7    R(5,6)                  1.3326         calculate D2E/DX2 analytically  !
 ! R8    R(5,11)                 1.6676         calculate D2E/DX2 analytically  !
 ! R9    R(6,7)                  1.402          calculate D2E/DX2 analytically  !
 ! R10   R(6,9)                  1.0792         calculate D2E/DX2 analytically  !
 ! R11   R(7,8)                  1.3346         calculate D2E/DX2 analytically  !
 ! R12   R(7,10)                 1.0789         calculate D2E/DX2 analytically  !
 ! R13   R(11,13)                1.6354         calculate D2E/DX2 analytically  !
 ! R14   R(12,13)                1.2574         calculate D2E/DX2 analytically  !
 ! R15   R(12,14)                1.2008         calculate D2E/DX2 analytically  !
 ! A1    A(2,1,3)              110.0457         calculate D2E/DX2 analytically  !
 ! A2    A(2,1,11)             122.3534         calculate D2E/DX2 analytically  !
 ! A3    A(3,1,11)             115.2077         calculate D2E/DX2 analytically  !
 ! A4    A(5,4,8)              114.9881         calculate D2E/DX2 analytically  !
 ! A5    A(5,4,12)             117.786          calculate D2E/DX2 analytically  !
 ! A6    A(8,4,12)             127.217          calculate D2E/DX2 analytically  !
 ! A7    A(4,5,6)              104.9143         calculate D2E/DX2 analytically  !
 ! A8    A(4,5,11)             102.4198         calculate D2E/DX2 analytically  !
 ! A9    A(6,5,11)             152.5963         calculate D2E/DX2 analytically  !
 ! A10   A(5,6,7)              107.1758         calculate D2E/DX2 analytically  !
 ! A11   A(5,6,9)              121.9615         calculate D2E/DX2 analytically  !
 ! A12   A(7,6,9)              130.8622         calculate D2E/DX2 analytically  !
 ! A13   A(6,7,8)              108.4531         calculate D2E/DX2 analytically  !
 ! A14   A(6,7,10)             130.2329         calculate D2E/DX2 analytically  !
 ! A15   A(8,7,10)             121.3136         calculate D2E/DX2 analytically  !
 ! A16   A(4,8,7)              104.4686         calculate D2E/DX2 analytically  !
 ! A17   A(1,11,5)             123.5969         calculate D2E/DX2 analytically  !
 ! A18   A(1,11,13)            132.4236         calculate D2E/DX2 analytically  !
 ! A19   A(5,11,13)             99.9248         calculate D2E/DX2 analytically  !
 ! A20   A(4,12,13)            107.5187         calculate D2E/DX2 analytically  !
 ! A21   A(4,12,14)            116.2322         calculate D2E/DX2 analytically  !
 ! A22   A(13,12,14)           136.249          calculate D2E/DX2 analytically  !
 ! A23   A(11,13,12)           112.3425         calculate D2E/DX2 analytically  !
 ! D1    D(2,1,11,5)           142.3788         calculate D2E/DX2 analytically  !
 ! D2    D(2,1,11,13)          -10.1725         calculate D2E/DX2 analytically  !
 ! D3    D(3,1,11,5)             4.0767         calculate D2E/DX2 analytically  !
 ! D4    D(3,1,11,13)         -148.4746         calculate D2E/DX2 analytically  !
 ! D5    D(8,4,5,6)             -0.0057         calculate D2E/DX2 analytically  !
 ! D6    D(8,4,5,11)           178.0223         calculate D2E/DX2 analytically  !
 ! D7    D(12,4,5,6)          -178.9984         calculate D2E/DX2 analytically  !
 ! D8    D(12,4,5,11)           -0.9703         calculate D2E/DX2 analytically  !
 ! D9    D(5,4,8,7)              0.0685         calculate D2E/DX2 analytically  !
 ! D10   D(12,4,8,7)           178.9493         calculate D2E/DX2 analytically  !
 ! D11   D(5,4,12,13)            0.8471         calculate D2E/DX2 analytically  !
 ! D12   D(5,4,12,14)         -179.0265         calculate D2E/DX2 analytically  !
 ! D13   D(8,4,12,13)         -178.0063         calculate D2E/DX2 analytically  !
 ! D14   D(8,4,12,14)            2.1201         calculate D2E/DX2 analytically  !
 ! D15   D(4,5,6,7)             -0.0574         calculate D2E/DX2 analytically  !
 ! D16   D(4,5,6,9)            179.6977         calculate D2E/DX2 analytically  !
 ! D17   D(11,5,6,7)          -175.8703         calculate D2E/DX2 analytically  !
 ! D18   D(11,5,6,9)             3.8848         calculate D2E/DX2 analytically  !
 ! D19   D(4,5,11,1)          -159.0666         calculate D2E/DX2 analytically  !
 ! D20   D(4,5,11,13)            0.725          calculate D2E/DX2 analytically  !
 ! D21   D(6,5,11,1)            16.7904         calculate D2E/DX2 analytically  !
 ! D22   D(6,5,11,13)          176.5821         calculate D2E/DX2 analytically  !
 ! D23   D(5,6,7,8)              0.1013         calculate D2E/DX2 analytically  !
 ! D24   D(5,6,7,10)           179.8873         calculate D2E/DX2 analytically  !
 ! D25   D(9,6,7,8)           -179.624          calculate D2E/DX2 analytically  !
 ! D26   D(9,6,7,10)             0.162          calculate D2E/DX2 analytically  !
 ! D27   D(6,7,8,4)             -0.1002         calculate D2E/DX2 analytically  !
 ! D28   D(10,7,8,4)          -179.909          calculate D2E/DX2 analytically  !
 ! D29   D(1,11,13,12)         156.7679         calculate D2E/DX2 analytically  !
 ! D30   D(5,11,13,12)          -0.2909         calculate D2E/DX2 analytically  !
 ! D31   D(4,12,13,11)          -0.2138         calculate D2E/DX2 analytically  !
 ! D32   D(14,12,13,11)        179.6222         calculate D2E/DX2 analytically  !
 --------------------------------------------------------------------------------
 Trust Radius=3.00D-01 FncErr=1.00D-07 GrdErr=1.00D-06 EigMax=2.50D+02 EigMin=1.00D-04
 Number of steps in this run=    100 maximum allowed number of steps=    100.
 Search for a saddle point of order  1.
 GradGradGradGradGradGradGradGradGradGradGradGradGradGradGradGradGradGrad

                          Input orientation:                          
 ---------------------------------------------------------------------
 Center     Atomic      Atomic             Coordinates (Angstroms)
 Number     Number       Type             X           Y           Z
 ---------------------------------------------------------------------
      1          8           0        1.978253   -1.896468   -0.456490
      2          1           0        2.788435   -1.808555   -0.980656
      3          1           0        1.435379   -2.629877   -0.800664
      4          7           0       -0.508120    0.359426    0.007085
      5          7           0       -0.268806   -0.941738   -0.018561
      6          6           0       -1.473231   -1.511980   -0.022412
      7          6           0       -2.420555   -0.478794    0.003567
      8          7           0       -1.772807    0.687924    0.020237
      9          1           0       -1.597820   -2.583733   -0.046552
     10          1           0       -3.498555   -0.521738    0.007651
     11          1           0        1.396469   -0.998879   -0.085075
     12          6           0        0.696406    1.308136   -0.005716
     13          8           0        1.734691    0.600896   -0.058135
     14          8           0        0.447814    2.482170    0.036478
 ---------------------------------------------------------------------
                    Distance matrix (angstroms):
                    1          2          3          4          5
     1  O    0.000000
     2  H    0.968954   0.000000
     3  H    0.975221   1.593024   0.000000
     4  N    3.389102   4.067315   3.655896   0.000000
     5  N    2.480437   3.320199   2.523043   1.323237   0.000000
     6  C    3.499857   4.378125   3.211757   2.105818   1.332603
     7  C    4.644455   5.465394   4.488003   2.088069   2.201098
     8  N    4.580044   5.295198   4.687658   1.306720   2.217955
     9  H    3.664517   4.551119   3.125878   3.138870   2.112631
    10  H    5.665751   6.492988   5.425986   3.117555   3.257049
    11  H    1.132293   1.842609   1.781498   2.341142   1.667582
    12  C    3.480778   3.878254   4.084846   1.533329   2.448210
    13  O    2.540637   2.786912   3.328488   2.256715   2.528890
    14  O    4.664518   4.992333   5.273435   2.328243   3.498531
                    6          7          8          9         10
     6  C    0.000000
     7  C    1.401988   0.000000
     8  N    2.220618   1.334573   0.000000
     9  H    1.079240   2.260569   3.277014   0.000000
    10  H    2.254644   1.078863   2.107521   2.804916   0.000000
    11  H    2.915884   3.853313   3.591755   3.388069   4.919098
    12  C    3.558182   3.592861   2.546046   4.517940   4.576714
    13  O    3.841391   4.293671   3.509453   4.609515   5.352709
    14  O    4.432507   4.122612   2.854950   5.463962   4.959649
                   11         12         13         14
    11  H    0.000000
    12  C    2.412199   0.000000
    13  O    1.635359   1.257367   0.000000
    14  O    3.610045   1.200806   2.281271   0.000000
 Stoichiometry    C3H5N3O3
 Framework group  C1[X(C3H5N3O3)]
 Deg. of freedom    36
 Full point group                 C1      NOp   1
 Largest Abelian subgroup         C1      NOp   1
 Largest concise Abelian subgroup C1      NOp   1
                         Standard orientation:                         
 ---------------------------------------------------------------------
 Center     Atomic      Atomic             Coordinates (Angstroms)
 Number     Number       Type             X           Y           Z
 ---------------------------------------------------------------------
      1          8           0       -2.073145   -1.844981    0.050584
      2          1           0       -2.920865   -1.785884    0.516148
      3          1           0       -1.568878   -2.615801    0.370909
      4          7           0        0.471807    0.391968   -0.022165
      5          7           0        0.213932   -0.901585   -0.127886
      6          6           0        1.406618   -1.494091   -0.080279
      7          6           0        2.366701   -0.481641    0.056671
      8          7           0        1.737855    0.694989    0.091047
      9          1           0        1.514653   -2.566278   -0.139479
     10          1           0        3.441005   -0.545667    0.132282
     11          1           0       -1.452019   -0.930819   -0.195584
     12          6           0       -0.717259    1.360069   -0.020465
     13          8           0       -1.765760    0.671877   -0.109963
     14          8           0       -0.450522    2.528206    0.058527
 ---------------------------------------------------------------------
 Rotational constants (GHZ):           1.9898596           1.7170580           0.9258453
 Standard basis: 6-31+G(d,p) (6D, 7F)
 There are   196 symmetry adapted cartesian basis functions of A   symmetry.
 There are   196 symmetry adapted basis functions of A   symmetry.
   196 basis functions,   323 primitive gaussians,   196 cartesian basis functions
    34 alpha electrons       34 beta electrons
       nuclear repulsion energy       460.2070398242 Hartrees.
 NAtoms=   14 NActive=   14 NUniq=   14 SFac= 1.00D+00 NAtFMM=   60 NAOKFM=F Big=F
 Integral buffers will be    131072 words long.
 Raffenetti 2 integral format.
 Two-electron integral symmetry is turned on.
 One-electron integrals computed using PRISM.
 NBasis=   196 RedAO= T EigKep=  2.11D-05  NBF=   196
 NBsUse=   196 1.00D-06 EigRej= -1.00D+00 NBFU=   196
 ExpMin= 4.38D-02 ExpMax= 5.48D+03 ExpMxC= 8.25D+02 IAcc=3 IRadAn=         5 AccDes= 0.00D+00
 Harris functional with IExCor= 1009 and IRadAn=       5 diagonalized for initial guess.
 HarFok:  IExCor= 1009 AccDes= 0.00D+00 IRadAn=         5 IDoV= 1 UseB2=F ITyADJ=14
 ICtDFT=  3500011 ScaDFX=  1.000000  1.000000  1.000000  1.000000
 FoFCou: FMM=F IPFlag=           0 FMFlag=      100000 FMFlg1=           0
         NFxFlg=           0 DoJE=T BraDBF=F KetDBF=T FulRan=T
         wScrn=  0.000000 ICntrl=       500 IOpCl=  0 I1Cent=   200000004 NGrid=           0
         NMat0=    1 NMatS0=      1 NMatT0=    0 NMatD0=    1 NMtDS0=    0 NMtDT0=    0
 Petite list used in FoFCou.
 Requested convergence on RMS density matrix=1.00D-08 within 128 cycles.
 Requested convergence on MAX density matrix=1.00D-06.
 Requested convergence on             energy=1.00D-06.
 No special actions if energy rises.
 SCF Done:  E(RM062X) =  -507.008387291     A.U. after   14 cycles
            NFock= 14  Conv=0.74D-08     -V/T= 2.0082
 DoSCS=F DFT=T ScalE2(SS,OS)=  1.000000  1.000000
 Range of M.O.s used for correlation:     1   196
 NBasis=   196 NAE=    34 NBE=    34 NFC=     0 NFV=     0
 NROrb=    196 NOA=    34 NOB=    34 NVA=   162 NVB=   162

 **** Warning!!: The largest alpha MO coefficient is  0.75321449D+02

 Symmetrizing basis deriv contribution to polar:
 IMax=3 JMax=2 DiffMx= 0.00D+00
 G2DrvN: will do    15 centers at a time, making    1 passes.
 Calling FoFCou, ICntrl=  3107 FMM=F I1Cent=   0 AccDes= 0.00D+00.
 End of G2Drv F.D. properties file   721 does not exist.
 End of G2Drv F.D. properties file   722 does not exist.
 End of G2Drv F.D. properties file   788 does not exist.
          IDoAtm=11111111111111
          Differentiating once with respect to nuclear coordinates.
 Keep R1 ints in memory in canonical form, NReq=235503729.
          There are    45 degrees of freedom in the 1st order CPHF.  IDoFFX=6 NUNeed=     0.
     39 vectors produced by pass  0 Test12= 1.22D-14 2.22D-09 XBig12= 1.71D-01 1.03D-01.
 AX will form    39 AO Fock derivatives at one time.
     39 vectors produced by pass  1 Test12= 1.22D-14 2.22D-09 XBig12= 2.12D-02 3.57D-02.
     39 vectors produced by pass  2 Test12= 1.22D-14 2.22D-09 XBig12= 5.12D-04 3.68D-03.
     39 vectors produced by pass  3 Test12= 1.22D-14 2.22D-09 XBig12= 5.60D-06 2.74D-04.
     39 vectors produced by pass  4 Test12= 1.22D-14 2.22D-09 XBig12= 5.00D-08 2.71D-05.
     39 vectors produced by pass  5 Test12= 1.22D-14 2.22D-09 XBig12= 2.34D-10 1.78D-06.
     37 vectors produced by pass  6 Test12= 1.22D-14 2.22D-09 XBig12= 9.47D-13 1.18D-07.
      6 vectors produced by pass  7 Test12= 1.22D-14 2.22D-09 XBig12= 3.35D-15 6.37D-09.
 InvSVY:  IOpt=1 It=  1 EMax= 1.78D-15
 Solved reduced A of dimension   277 with    39 vectors.
 End of Minotr F.D. properties file   721 does not exist.
 End of Minotr F.D. properties file   722 does not exist.
 End of Minotr F.D. properties file   788 does not exist.

 **********************************************************************

            Population analysis using the SCF Density.

 **********************************************************************

 Orbital symmetries:
       Occupied  (A) (A) (A) (A) (A) (A) (A) (A) (A) (A) (A) (A)
                 (A) (A) (A) (A) (A) (A) (A) (A) (A) (A) (A) (A)
                 (A) (A) (A) (A) (A) (A) (A) (A) (A) (A)
       Virtual   (A) (A) (A) (A) (A) (A) (A) (A) (A) (A) (A) (A)
                 (A) (A) (A) (A) (A) (A) (A) (A) (A) (A) (A) (A)
                 (A) (A) (A) (A) (A) (A) (A) (A) (A) (A) (A) (A)
                 (A) (A) (A) (A) (A) (A) (A) (A) (A) (A) (A) (A)
                 (A) (A) (A) (A) (A) (A) (A) (A) (A) (A) (A) (A)
                 (A) (A) (A) (A) (A) (A) (A) (A) (A) (A) (A) (A)
                 (A) (A) (A) (A) (A) (A) (A) (A) (A) (A) (A) (A)
                 (A) (A) (A) (A) (A) (A) (A) (A) (A) (A) (A) (A)
                 (A) (A) (A) (A) (A) (A) (A) (A) (A) (A) (A) (A)
                 (A) (A) (A) (A) (A) (A) (A) (A) (A) (A) (A) (A)
                 (A) (A) (A) (A) (A) (A) (A) (A) (A) (A) (A) (A)
                 (A) (A) (A) (A) (A) (A) (A) (A) (A) (A) (A) (A)
                 (A) (A) (A) (A) (A) (A) (A) (A) (A) (A) (A) (A)
                 (A) (A) (A) (A) (A) (A)
 The electronic state is 1-A.
 Alpha  occ. eigenvalues --  -19.79294 -19.61667 -19.60286 -14.87850 -14.82873
 Alpha  occ. eigenvalues --  -14.81270 -10.68531 -10.60492 -10.59126  -1.28647
 Alpha  occ. eigenvalues --   -1.25245  -1.17677  -1.10074  -1.01648  -0.93381
 Alpha  occ. eigenvalues --   -0.75504  -0.74143  -0.73547  -0.72055  -0.64542
 Alpha  occ. eigenvalues --   -0.58265  -0.57904  -0.55085  -0.54096  -0.53167
 Alpha  occ. eigenvalues --   -0.49866  -0.48818  -0.43357  -0.38860  -0.37295
 Alpha  occ. eigenvalues --   -0.35904  -0.33826  -0.33582  -0.33501
 Alpha virt. eigenvalues --   -0.03115   0.00493   0.01696   0.02871   0.04484
 Alpha virt. eigenvalues --    0.04763   0.05646   0.06009   0.08034   0.08841
 Alpha virt. eigenvalues --    0.09181   0.09946   0.10879   0.12292   0.13064
 Alpha virt. eigenvalues --    0.13513   0.14140   0.15641   0.16110   0.18994
 Alpha virt. eigenvalues --    0.19543   0.21045   0.21387   0.22045   0.22404
 Alpha virt. eigenvalues --    0.23308   0.23985   0.25121   0.25622   0.26872
 Alpha virt. eigenvalues --    0.27400   0.28839   0.29633   0.30901   0.31144
 Alpha virt. eigenvalues --    0.32211   0.32590   0.33082   0.33488   0.33561
 Alpha virt. eigenvalues --    0.35231   0.37211   0.37876   0.40294   0.41502
 Alpha virt. eigenvalues --    0.41865   0.44833   0.48645   0.50837   0.52586
 Alpha virt. eigenvalues --    0.56773   0.71142   0.71490   0.73070   0.75105
 Alpha virt. eigenvalues --    0.81690   0.82750   0.84635   0.88742   0.90619
 Alpha virt. eigenvalues --    0.92340   0.93876   0.94387   0.95773   0.96492
 Alpha virt. eigenvalues --    0.98122   1.01098   1.02117   1.02245   1.06042
 Alpha virt. eigenvalues --    1.08004   1.09981   1.11034   1.16358   1.16469
 Alpha virt. eigenvalues --    1.20262   1.22937   1.26312   1.28330   1.29332
 Alpha virt. eigenvalues --    1.30745   1.31865   1.35288   1.37605   1.38188
 Alpha virt. eigenvalues --    1.38895   1.40907   1.42191   1.43047   1.43866
 Alpha virt. eigenvalues --    1.45127   1.47968   1.52411   1.52933   1.55026
 Alpha virt. eigenvalues --    1.57303   1.59935   1.61803   1.64038   1.66848
 Alpha virt. eigenvalues --    1.78404   1.79600   1.86448   1.88291   1.88874
 Alpha virt. eigenvalues --    1.90807   1.95669   2.01439   2.03719   2.04522
 Alpha virt. eigenvalues --    2.06035   2.08058   2.10212   2.12774   2.13628
 Alpha virt. eigenvalues --    2.18478   2.22412   2.24580   2.25103   2.31693
 Alpha virt. eigenvalues --    2.32131   2.33779   2.36592   2.38933   2.44211
 Alpha virt. eigenvalues --    2.47025   2.51218   2.52937   2.53887   2.56025
 Alpha virt. eigenvalues --    2.59023   2.60447   2.63115   2.68963   2.71093
 Alpha virt. eigenvalues --    2.77639   2.83335   2.86732   2.88147   2.92272
 Alpha virt. eigenvalues --    2.95945   2.97924   3.00990   3.12646   3.14334
 Alpha virt. eigenvalues --    3.21046   3.25911   3.28594   3.32173   3.34355
 Alpha virt. eigenvalues --    3.46252   3.54813   3.72155   4.03799   4.20818
 Alpha virt. eigenvalues --    4.25463   4.28514   4.35358   4.45090   4.60036
 Alpha virt. eigenvalues --    4.67307   4.89644
          Condensed to atoms (all electrons):
               1          2          3          4          5          6
     1  O    8.085483   0.286062   0.287357  -0.072360   0.020009  -0.021728
     2  H    0.286062   0.278811  -0.018953   0.002422   0.004583   0.000052
     3  H    0.287357  -0.018953   0.297796   0.006630  -0.008943   0.001952
     4  N   -0.072360   0.002422   0.006630   8.462609  -0.614226   0.166500
     5  N    0.020009   0.004583  -0.008943  -0.614226   7.940274   0.078100
     6  C   -0.021728   0.000052   0.001952   0.166500   0.078100   5.507718
     7  C    0.010798  -0.000820   0.002363  -0.163967   0.143833   0.056363
     8  N   -0.006774   0.000171   0.000759  -0.401497  -0.308529  -0.009415
     9  H   -0.000876  -0.000007   0.000028   0.025651  -0.065207   0.370598
    10  H   -0.000005  -0.000000   0.000000   0.000250  -0.010277  -0.015048
    11  H    0.030846   0.001126   0.002578   0.030414   0.024167   0.025550
    12  C   -0.008727   0.002115  -0.000685  -0.105893   0.100847  -0.004875
    13  O   -0.023461  -0.003367   0.001657   0.000924  -0.129991   0.005050
    14  O   -0.002975   0.000036   0.000012  -0.018071   0.012625  -0.001809
               7          8          9         10         11         12
     1  O    0.010798  -0.006774  -0.000876  -0.000005   0.030846  -0.008727
     2  H   -0.000820   0.000171  -0.000007  -0.000000   0.001126   0.002115
     3  H    0.002363   0.000759   0.000028   0.000000   0.002578  -0.000685
     4  N   -0.163967  -0.401497   0.025651   0.000250   0.030414  -0.105893
     5  N    0.143833  -0.308529  -0.065207  -0.010277   0.024167   0.100847
     6  C    0.056363  -0.009415   0.370598  -0.015048   0.025550  -0.004875
     7  C    5.514551   0.229688   0.006622   0.389152  -0.014414  -0.016514
     8  N    0.229688   7.629472  -0.007080  -0.041421   0.021324   0.014169
     9  H    0.006622  -0.007080   0.498278   0.000656  -0.000117   0.000158
    10  H    0.389152  -0.041421   0.000656   0.495078  -0.000007   0.000354
    11  H   -0.014414   0.021324  -0.000117  -0.000007   0.231215  -0.007145
    12  C   -0.016514   0.014169   0.000158   0.000354  -0.007145   4.460628
    13  O   -0.004399   0.018151   0.000085   0.000035   0.107184   0.301975
    14  O   -0.002518  -0.067212   0.000044  -0.000008   0.002799   0.485679
              13         14
     1  O   -0.023461  -0.002975
     2  H   -0.003367   0.000036
     3  H    0.001657   0.000012
     4  N    0.000924  -0.018071
     5  N   -0.129991   0.012625
     6  C    0.005050  -0.001809
     7  C   -0.004399  -0.002518
     8  N    0.018151  -0.067212
     9  H    0.000085   0.000044
    10  H    0.000035  -0.000008
    11  H    0.107184   0.002799
    12  C    0.301975   0.485679
    13  O    8.455864  -0.113276
    14  O   -0.113276   8.166412
 Mulliken charges:
               1
     1  O   -0.583648
     2  H    0.447770
     3  H    0.427449
     4  N   -0.319384
     5  N   -0.187265
     6  C   -0.159007
     7  C   -0.150740
     8  N   -0.071808
     9  H    0.171166
    10  H    0.181242
    11  H    0.544479
    12  C    0.777916
    13  O   -0.616430
    14  O   -0.461739
 Sum of Mulliken charges =  -0.00000
 Mulliken charges with hydrogens summed into heavy atoms:
               1
     1  O    0.836050
     4  N   -0.319384
     5  N   -0.187265
     6  C    0.012159
     7  C    0.030502
     8  N   -0.071808
    12  C    0.777916
    13  O   -0.616430
    14  O   -0.461739
 APT charges:
               1
     1  O   -1.075114
     2  H    0.946473
     3  H    0.648892
     4  N   -0.815093
     5  N   -0.146247
     6  C   -0.447781
     7  C   -0.417925
     8  N    0.028074
     9  H    0.621129
    10  H    0.772612
    11  H    0.310468
    12  C    0.243648
    13  O   -0.564370
    14  O   -0.104765
 Sum of APT charges =  -0.00000
 APT charges with hydrogens summed into heavy atoms:
               1
     1  O    0.830719
     4  N   -0.815093
     5  N   -0.146247
     6  C    0.173348
     7  C    0.354687
     8  N    0.028074
    12  C    0.243648
    13  O   -0.564370
    14  O   -0.104765
 Electronic spatial extent (au):  <R**2>=           1165.7368
 Charge=             -0.0000 electrons
 Dipole moment (field-independent basis, Debye):
    X=             -1.4261    Y=            -10.7443    Z=              1.4327  Tot=             10.9328
 Quadrupole moment (field-independent basis, Debye-Ang):
   XX=            -41.5481   YY=            -50.2557   ZZ=            -52.3753
   XY=              9.7351   XZ=             -4.4070   YZ=             -4.0186
 Traceless Quadrupole moment (field-independent basis, Debye-Ang):
   XX=              6.5116   YY=             -2.1960   ZZ=             -4.3156
   XY=              9.7351   XZ=             -4.4070   YZ=             -4.0186
 Octapole moment (field-independent basis, Debye-Ang**2):
  XXX=            -28.3698  YYY=            -78.3695  ZZZ=              1.3715  XYY=            -22.4658
  XXY=            -43.6778  XXZ=             12.7993  XZZ=            -10.0711  YZZ=             -0.0677
  YYZ=              7.4063  XYZ=              8.4448
 Hexadecapole moment (field-independent basis, Debye-Ang**3):
 XXXX=           -591.4932 YYYY=           -616.0457 ZZZZ=            -54.6468 XXXY=             86.3150
 XXXZ=            -33.1974 YYYX=             72.8153 YYYZ=            -25.4988 ZZZX=             -4.1190
 ZZZY=             -3.7948 XXYY=           -188.0802 XXZZ=           -138.8223 YYZZ=           -114.8644
 XXYZ=            -23.6362 YYXZ=            -21.7517 ZZXY=             12.0966
 N-N= 4.602070398242D+02 E-N=-2.107348474100D+03  KE= 5.028698104787D+02
  Exact polarizability:       0.000       0.000       0.000       0.000       0.000       0.000
 Approx polarizability:      97.081       1.653     105.998       1.899       2.191      52.357
 Calling FoFJK, ICntrl=    100127 FMM=F ISym2X=0 I1Cent= 0 IOpClX= 0 NMat=1 NMatS=1 NMatT=0.
 ***** Axes restored to original set *****
 -------------------------------------------------------------------
 Center     Atomic                   Forces (Hartrees/Bohr)
 Number     Number              X              Y              Z
 -------------------------------------------------------------------
      1        8           0.008058516   -0.020097167    0.000652646
      2        1          -0.000941643    0.009904109    0.003113612
      3        1           0.000552668    0.010522326    0.004253577
      4        7          -0.001878700   -0.001645515    0.000024774
      5        7          -0.009844822    0.003433818    0.003620205
      6        6          -0.001272532    0.001536978    0.000125575
      7        6          -0.001142821   -0.000220556   -0.000480025
      8        7           0.000160221   -0.000912505    0.000203880
      9        1          -0.000635813   -0.000386798    0.000839812
     10        1          -0.000058198    0.000024398    0.000094033
     11        1           0.003762060    0.013503595   -0.013686611
     12        6           0.004221933   -0.003569822    0.001183903
     13        8          -0.000221119   -0.013091951    0.000665756
     14        8          -0.000759752    0.000999087   -0.000611136
 -------------------------------------------------------------------
 Cartesian Forces:  Max     0.020097167 RMS     0.005840123
 FormGI is forming the generalized inverse of G from B-inverse, IUseBI=4.

 GradGradGradGradGradGradGradGradGradGradGradGradGradGradGradGradGradGrad
 Berny optimization.
 Internal  Forces:  Max     0.013994222 RMS     0.003755073
 Search for a saddle point.
 Step number   1 out of a maximum of  100
 All quantities printed in internal units (Hartrees-Bohrs-Radians)
 Swapping is turned off.
 Second derivative matrix not updated -- analytic derivatives used.
 ITU=  0
     Eigenvalues ---   -0.03538  -0.00418   0.00140   0.00293   0.00311
     Eigenvalues ---    0.00659   0.00807   0.01423   0.01463   0.02655
     Eigenvalues ---    0.03633   0.04461   0.06225   0.06561   0.08228
     Eigenvalues ---    0.09751   0.10345   0.10549   0.10811   0.11642
     Eigenvalues ---    0.19566   0.21073   0.23244   0.26358   0.28217
     Eigenvalues ---    0.35358   0.38168   0.38759   0.41689   0.46581
     Eigenvalues ---    0.51190   0.51857   0.53612   0.59384   0.61901
     Eigenvalues ---    0.94537
 Eigenvectors required to have negative eigenvalues:
                          R13       R8        A17       A18       A9
   1                   -0.61009   0.54205  -0.33680   0.31144   0.18645
                          A8        A23       D29       D19       R6
   1                   -0.16921   0.10791  -0.10036  -0.09556  -0.09447
 RFO step:  Lambda0=2.203876720D-03 Lambda=-1.34470663D-02.
 Linear search not attempted -- option 19 set.
 Maximum step size (   0.300) exceeded in Quadratic search.
    -- Step size scaled by   0.517
 Iteration  1 RMS(Cart)=  0.08574205 RMS(Int)=  0.01440963
 Iteration  2 RMS(Cart)=  0.01524840 RMS(Int)=  0.00774733
 Iteration  3 RMS(Cart)=  0.00073180 RMS(Int)=  0.00772791
 Iteration  4 RMS(Cart)=  0.00004596 RMS(Int)=  0.00772785
 Iteration  5 RMS(Cart)=  0.00000269 RMS(Int)=  0.00772785
 Iteration  6 RMS(Cart)=  0.00000016 RMS(Int)=  0.00772785
 Variable       Old X    -DE/DX   Delta X   Delta X   Delta X     New X
                                 (Linear)    (Quad)   (Total)
    R1        1.83106  -0.00157   0.00000   0.00339   0.00339   1.83445
    R2        1.84290  -0.00973   0.00000  -0.00520  -0.00520   1.83770
    R3        2.13972   0.00104   0.00000  -0.05029  -0.05029   2.08944
    R4        2.50056  -0.00311   0.00000   0.00117   0.00119   2.50175
    R5        2.46934   0.00034   0.00000  -0.00112  -0.00111   2.46823
    R6        2.89757   0.00126   0.00000   0.01799   0.01814   2.91571
    R7        2.51825   0.00214   0.00000   0.00216   0.00213   2.52039
    R8        3.15127   0.01231   0.00000   0.01294   0.01281   3.16409
    R9        2.64937  -0.00021   0.00000  -0.00167  -0.00165   2.64772
   R10        2.03947   0.00044   0.00000   0.00019   0.00019   2.03966
   R11        2.52198  -0.00026   0.00000   0.00098   0.00101   2.52299
   R12        2.03876   0.00006   0.00000  -0.00001  -0.00001   2.03874
   R13        3.09038  -0.01399   0.00000   0.06044   0.06034   3.15072
   R14        2.37608  -0.00150   0.00000  -0.00595  -0.00588   2.37020
   R15        2.26919   0.00112   0.00000   0.00069   0.00069   2.26989
    A1        1.92066   0.00934   0.00000   0.02278  -0.02121   1.89945
    A2        2.13547  -0.01129   0.00000  -0.21254  -0.23413   1.90134
    A3        2.01075  -0.00333   0.00000  -0.07746  -0.09879   1.91196
    A4        2.00692   0.00075   0.00000  -0.00164  -0.00169   2.00523
    A5        2.05575  -0.00197   0.00000   0.00535   0.00536   2.06112
    A6        2.22036   0.00122   0.00000  -0.00364  -0.00361   2.21675
    A7        1.83110  -0.00056   0.00000   0.00023   0.00030   1.83140
    A8        1.78756  -0.00248   0.00000   0.00572   0.00554   1.79310
    A9        2.66331   0.00304   0.00000  -0.00566  -0.00555   2.65775
   A10        1.87057   0.00034   0.00000   0.00021   0.00016   1.87073
   A11        2.12863   0.00043   0.00000  -0.00017  -0.00015   2.12847
   A12        2.28398  -0.00077   0.00000  -0.00001   0.00000   2.28398
   A13        1.89286  -0.00104   0.00000  -0.00080  -0.00078   1.89208
   A14        2.27299   0.00054   0.00000   0.00038   0.00037   2.27336
   A15        2.11732   0.00050   0.00000   0.00043   0.00042   2.11774
   A16        1.82332   0.00051   0.00000   0.00200   0.00201   1.82533
   A17        2.15717   0.00995   0.00000   0.12810   0.12880   2.28597
   A18        2.31123  -0.00955   0.00000  -0.11488  -0.11488   2.19635
   A19        1.74402   0.00071   0.00000  -0.01057  -0.01023   1.73378
   A20        1.87655   0.00233   0.00000   0.00275   0.00280   1.87935
   A21        2.02863  -0.00177   0.00000  -0.01014  -0.01016   2.01847
   A22        2.37799  -0.00057   0.00000   0.00740   0.00737   2.38536
   A23        1.96075   0.00140   0.00000  -0.00328  -0.00353   1.95722
    D1        2.48498   0.00131   0.00000  -0.13398  -0.11695   2.36803
    D2       -0.17754  -0.00304   0.00000  -0.14736  -0.12814  -0.30568
    D3        0.07115   0.00500   0.00000   0.24015   0.22093   0.29208
    D4       -2.59137   0.00065   0.00000   0.22677   0.20974  -2.38163
    D5       -0.00010  -0.00030   0.00000  -0.00077  -0.00096  -0.00106
    D6        3.10708  -0.00021   0.00000   0.00321   0.00317   3.11024
    D7       -3.12411  -0.00032   0.00000  -0.00521  -0.00562  -3.12973
    D8       -0.01694  -0.00022   0.00000  -0.00123  -0.00150  -0.01843
    D9        0.00120   0.00018   0.00000  -0.00001   0.00011   0.00130
   D10        3.12325   0.00016   0.00000   0.00504   0.00537   3.12862
   D11        0.01478  -0.00062   0.00000  -0.00406  -0.00412   0.01067
   D12       -3.12460  -0.00021   0.00000  -0.00544  -0.00530  -3.12990
   D13       -3.10680  -0.00063   0.00000  -0.00916  -0.00945  -3.11625
   D14        0.03700  -0.00022   0.00000  -0.01054  -0.01064   0.02637
   D15       -0.00100   0.00029   0.00000   0.00117   0.00135   0.00035
   D16        3.13632   0.00038   0.00000   0.00737   0.00747  -3.13940
   D17       -3.06952   0.00055   0.00000  -0.00818  -0.00817  -3.07769
   D18        0.06780   0.00065   0.00000  -0.00198  -0.00206   0.06574
   D19       -2.77624   0.00104   0.00000   0.03310   0.03177  -2.74447
   D20        0.01265   0.00087   0.00000   0.00461   0.00492   0.01757
   D21        0.29305   0.00081   0.00000   0.04226   0.04112   0.33417
   D22        3.08194   0.00063   0.00000   0.01377   0.01427   3.09621
   D23        0.00177  -0.00020   0.00000  -0.00124  -0.00137   0.00040
   D24        3.13963   0.00004   0.00000   0.00216   0.00210  -3.14146
   D25       -3.13503  -0.00031   0.00000  -0.00820  -0.00822   3.13993
   D26        0.00283  -0.00007   0.00000  -0.00479  -0.00476  -0.00194
   D27       -0.00175   0.00002   0.00000   0.00075   0.00076  -0.00099
   D28       -3.14000  -0.00020   0.00000  -0.00229  -0.00233   3.14085
   D29        2.73612   0.00494   0.00000   0.03995   0.03997   2.77609
   D30       -0.00508  -0.00135   0.00000  -0.00775  -0.00811  -0.01319
   D31       -0.00373   0.00124   0.00000   0.00734   0.00759   0.00386
   D32        3.13500   0.00071   0.00000   0.00909   0.00911  -3.13907
         Item               Value     Threshold  Converged?
 Maximum Force            0.013994     0.000450     NO 
 RMS     Force            0.003755     0.000300     NO 
 Maximum Displacement     0.490554     0.001800     NO 
 RMS     Displacement     0.091126     0.001200     NO 
 Predicted change in Energy=-5.753219D-03
 GradGradGradGradGradGradGradGradGradGradGradGradGradGradGradGradGradGrad

                          Input orientation:                          
 ---------------------------------------------------------------------
 Center     Atomic      Atomic             Coordinates (Angstroms)
 Number     Number       Type             X           Y           Z
 ---------------------------------------------------------------------
      1          8           0        2.029453   -1.920553   -0.392612
      2          1           0        2.741853   -1.548965   -0.937373
      3          1           0        1.517725   -2.548428   -0.930765
      4          7           0       -0.501573    0.324372   -0.005756
      5          7           0       -0.299229   -0.983929   -0.000187
      6          6           0       -1.520252   -1.520485    0.006843
      7          6           0       -2.437766   -0.461579    0.004608
      8          7           0       -1.756474    0.686585   -0.004188
      9          1           0       -1.674740   -2.588687    0.014560
     10          1           0       -3.516544   -0.473877    0.008551
     11          1           0        1.370234   -1.099518   -0.055172
     12          6           0        0.732360    1.250331   -0.030855
     13          8           0        1.753935    0.523021   -0.054477
     14          8           0        0.498571    2.428502   -0.022419
 ---------------------------------------------------------------------
                    Distance matrix (angstroms):
                    1          2          3          4          5
     1  O    0.000000
     2  H    0.970750   0.000000
     3  H    0.972471   1.580334   0.000000
     4  N    3.405207   3.859678   3.631279   0.000000
     5  N    2.540476   3.231990   2.571955   1.323867   0.000000
     6  C    3.594444   4.365535   3.341419   2.107454   1.333732
     7  C    4.716188   5.375704   4.569001   2.089657   2.201412
     8  N    4.613164   5.109155   4.695129   1.306130   2.216799
     9  H    3.785927   4.636107   3.329729   3.140485   2.113646
    10  H    5.745597   6.420134   5.525391   3.118887   3.257506
    11  H    1.105683   1.691632   1.699340   2.352353   1.674362
    12  C    3.444970   3.563130   3.982110   1.542926   2.461104
    13  O    2.482196   2.459393   3.202729   2.264764   2.547416
    14  O    4.625465   4.657221   5.160775   2.329793   3.504521
                    6          7          8          9         10
     6  C    0.000000
     7  C    1.401113   0.000000
     8  N    2.219703   1.335110   0.000000
     9  H    1.079343   2.259844   3.276346   0.000000
    10  H    2.254012   1.078855   2.108242   2.804407   0.000000
    11  H    2.921638   3.861528   3.601259   3.390333   4.927077
    12  C    3.571149   3.602998   2.552022   4.531473   4.585589
    13  O    3.860050   4.306192   3.514578   4.630692   5.364301
    14  O    4.435201   4.120119   2.849533   5.467800   4.954384
                   11         12         13         14
    11  H    0.000000
    12  C    2.435007   0.000000
    13  O    1.667291   1.254254   0.000000
    14  O    3.634253   1.201173   2.282066   0.000000
 Stoichiometry    C3H5N3O3
 Framework group  C1[X(C3H5N3O3)]
 Deg. of freedom    36
 Full point group                 C1      NOp   1
 Largest Abelian subgroup         C1      NOp   1
 Largest concise Abelian subgroup C1      NOp   1
                         Standard orientation:                         
 ---------------------------------------------------------------------
 Center     Atomic      Atomic             Coordinates (Angstroms)
 Number     Number       Type             X           Y           Z
 ---------------------------------------------------------------------
      1          8           0       -2.081610   -1.867394    0.033459
      2          1           0       -2.832127   -1.529775    0.548331
      3          1           0       -1.609510   -2.530968    0.564959
      4          7           0        0.468033    0.389110   -0.020827
      5          7           0        0.268248   -0.915295   -0.126836
      6          6           0        1.487226   -1.454540   -0.080495
      7          6           0        2.400845   -0.401295    0.057689
      8          7           0        1.719288    0.746223    0.092345
      9          1           0        1.643191   -2.520481   -0.147026
     10          1           0        3.477078   -0.417112    0.131169
     11          1           0       -1.400658   -1.028351   -0.200729
     12          6           0       -0.765616    1.315782   -0.024584
     13          8           0       -1.785309    0.592093   -0.122835
     14          8           0       -0.533292    2.491145    0.061233
 ---------------------------------------------------------------------
 Rotational constants (GHZ):           2.0418226           1.6710325           0.9238856
 Standard basis: 6-31+G(d,p) (6D, 7F)
 There are   196 symmetry adapted cartesian basis functions of A   symmetry.
 There are   196 symmetry adapted basis functions of A   symmetry.
   196 basis functions,   323 primitive gaussians,   196 cartesian basis functions
    34 alpha electrons       34 beta electrons
       nuclear repulsion energy       460.0819498817 Hartrees.
 NAtoms=   14 NActive=   14 NUniq=   14 SFac= 1.00D+00 NAtFMM=   60 NAOKFM=F Big=F
 Integral buffers will be    131072 words long.
 Raffenetti 2 integral format.
 Two-electron integral symmetry is turned on.
 One-electron integrals computed using PRISM.
 NBasis=   196 RedAO= T EigKep=  2.12D-05  NBF=   196
 NBsUse=   196 1.00D-06 EigRej= -1.00D+00 NBFU=   196
 Initial guess from the checkpoint file:  "/home/gau/soft/scratch/Gau-28622.chk"
 B after Tr=     0.000000    0.000000   -0.000000
         Rot=    0.999918    0.002339    0.000617   -0.012571 Ang=   1.47 deg.
 ExpMin= 4.38D-02 ExpMax= 5.48D+03 ExpMxC= 8.25D+02 IAcc=3 IRadAn=         5 AccDes= 0.00D+00
 Harris functional with IExCor= 1009 and IRadAn=       5 diagonalized for initial guess.
 HarFok:  IExCor= 1009 AccDes= 0.00D+00 IRadAn=         5 IDoV= 1 UseB2=F ITyADJ=14
 ICtDFT=  3500011 ScaDFX=  1.000000  1.000000  1.000000  1.000000
 FoFCou: FMM=F IPFlag=           0 FMFlag=      100000 FMFlg1=           0
         NFxFlg=           0 DoJE=T BraDBF=F KetDBF=T FulRan=T
         wScrn=  0.000000 ICntrl=       500 IOpCl=  0 I1Cent=   200000004 NGrid=           0
         NMat0=    1 NMatS0=      1 NMatT0=    0 NMatD0=    1 NMtDS0=    0 NMtDT0=    0
 Petite list used in FoFCou.
 Requested convergence on RMS density matrix=1.00D-08 within 128 cycles.
 Requested convergence on MAX density matrix=1.00D-06.
 Requested convergence on             energy=1.00D-06.
 No special actions if energy rises.
 SCF Done:  E(RM062X) =  -507.013612731     A.U. after   12 cycles
            NFock= 12  Conv=0.96D-08     -V/T= 2.0082
 Calling FoFJK, ICntrl=      2127 FMM=F ISym2X=0 I1Cent= 0 IOpClX= 0 NMat=1 NMatS=1 NMatT=0.
 ***** Axes restored to original set *****
 -------------------------------------------------------------------
 Center     Atomic                   Forces (Hartrees/Bohr)
 Number     Number              X              Y              Z
 -------------------------------------------------------------------
      1        8           0.005595498   -0.009026871   -0.002331352
      2        1           0.001215340    0.005499516    0.002727617
      3        1          -0.000601934    0.003084215    0.003352255
      4        7          -0.000869918   -0.000802565   -0.000210079
      5        7          -0.006082182    0.002202159    0.001829654
      6        6          -0.000520415    0.000961675    0.000195579
      7        6          -0.000515683   -0.000025806   -0.000161844
      8        7          -0.000060935   -0.000343651    0.000282623
      9        1          -0.000339943   -0.000180752    0.000493117
     10        1          -0.000026157    0.000039200    0.000047995
     11        1           0.001196761    0.007138466   -0.006455085
     12        6           0.000884547   -0.001082104    0.001046158
     13        8           0.000171370   -0.007495082   -0.000335924
     14        8          -0.000046349    0.000031600   -0.000480714
 -------------------------------------------------------------------
 Cartesian Forces:  Max     0.009026871 RMS     0.003011569

 GradGradGradGradGradGradGradGradGradGradGradGradGradGradGradGradGradGrad
 Berny optimization.
 FormGI is forming the generalized inverse of G from B-inverse, IUseBI=4.
 Internal  Forces:  Max     0.007625516 RMS     0.002206527
 Search for a saddle point.
 Step number   2 out of a maximum of  100
 All quantities printed in internal units (Hartrees-Bohrs-Radians)
 Swapping is turned off.
 Update second derivatives using D2CorX and points    1    2
 ITU=  0  0
     Eigenvalues ---   -0.03586   0.00008   0.00145   0.00290   0.00393
     Eigenvalues ---    0.00696   0.01288   0.01424   0.01454   0.02655
     Eigenvalues ---    0.03633   0.04392   0.06225   0.06561   0.08207
     Eigenvalues ---    0.09688   0.10229   0.10529   0.10810   0.11648
     Eigenvalues ---    0.19670   0.21087   0.23254   0.26358   0.28216
     Eigenvalues ---    0.35358   0.38168   0.38759   0.41689   0.46582
     Eigenvalues ---    0.51240   0.51859   0.53696   0.59395   0.61901
     Eigenvalues ---    0.94539
 Eigenvectors required to have negative eigenvalues:
                          R13       R8        A17       A18       A9
   1                    0.60771  -0.53876   0.34557  -0.31572  -0.18487
                          A8        A23       D29       R6        D19
   1                    0.16743  -0.10865   0.10239   0.09475   0.09215
 RFO step:  Lambda0=5.301526374D-04 Lambda=-5.35880835D-03.
 Linear search not attempted -- option 19 set.
 Maximum step size (   0.300) exceeded in Quadratic search.
    -- Step size scaled by   0.846
 Iteration  1 RMS(Cart)=  0.08986327 RMS(Int)=  0.00870424
 Iteration  2 RMS(Cart)=  0.01069750 RMS(Int)=  0.00197114
 Iteration  3 RMS(Cart)=  0.00017136 RMS(Int)=  0.00196736
 Iteration  4 RMS(Cart)=  0.00000053 RMS(Int)=  0.00196736
 Variable       Old X    -DE/DX   Delta X   Delta X   Delta X     New X
                                 (Linear)    (Quad)   (Total)
    R1        1.83445   0.00146   0.00000   0.00396   0.00396   1.83842
    R2        1.83770  -0.00353   0.00000  -0.00518  -0.00518   1.83252
    R3        2.08944   0.00289   0.00000   0.06343   0.06343   2.15287
    R4        2.50175  -0.00142   0.00000  -0.00157  -0.00176   2.49998
    R5        2.46823   0.00019   0.00000  -0.00114  -0.00117   2.46706
    R6        2.91571   0.00032   0.00000  -0.00305  -0.00350   2.91221
    R7        2.52039   0.00101   0.00000  -0.00082  -0.00077   2.51961
    R8        3.16409   0.00763   0.00000  -0.08941  -0.08903   3.07506
    R9        2.64772  -0.00001   0.00000   0.00068   0.00068   2.64840
   R10        2.03966   0.00023   0.00000  -0.00048  -0.00048   2.03919
   R11        2.52299  -0.00028   0.00000   0.00092   0.00089   2.52388
   R12        2.03874   0.00003   0.00000  -0.00000  -0.00000   2.03874
   R13        3.15072  -0.00761   0.00000  -0.09145  -0.09113   3.05959
   R14        2.37020  -0.00012   0.00000   0.00327   0.00314   2.37333
   R15        2.26989   0.00003   0.00000  -0.00116  -0.00116   2.26873
    A1        1.89945   0.00476   0.00000   0.00618   0.00338   1.90283
    A2        1.90134  -0.00671   0.00000  -0.13565  -0.13686   1.76448
    A3        1.91196  -0.00255   0.00000   0.00526   0.00431   1.91627
    A4        2.00523   0.00057   0.00000   0.00072   0.00092   2.00615
    A5        2.06112  -0.00101   0.00000  -0.01244  -0.01290   2.04821
    A6        2.21675   0.00044   0.00000   0.01186   0.01207   2.22882
    A7        1.83140  -0.00050   0.00000   0.00145   0.00133   1.83272
    A8        1.79310  -0.00126   0.00000  -0.01167  -0.01143   1.78168
    A9        2.65775   0.00176   0.00000   0.01114   0.01082   2.66857
   A10        1.87073   0.00027   0.00000  -0.00191  -0.00186   1.86887
   A11        2.12847   0.00019   0.00000   0.00072   0.00070   2.12917
   A12        2.28398  -0.00046   0.00000   0.00117   0.00114   2.28511
   A13        1.89208  -0.00047   0.00000   0.00106   0.00104   1.89312
   A14        2.27336   0.00028   0.00000  -0.00063  -0.00062   2.27275
   A15        2.11774   0.00019   0.00000  -0.00044  -0.00043   2.11731
   A16        1.82533   0.00013   0.00000  -0.00133  -0.00142   1.82391
   A17        2.28597   0.00714   0.00000   0.14446   0.14567   2.43165
   A18        2.19635  -0.00650   0.00000  -0.16355  -0.16748   2.02888
   A19        1.73378   0.00004   0.00000   0.04559   0.04594   1.77972
   A20        1.87935   0.00121   0.00000  -0.00633  -0.00677   1.87258
   A21        2.01847  -0.00063   0.00000   0.00590   0.00611   2.02458
   A22        2.38536  -0.00058   0.00000   0.00044   0.00065   2.38602
   A23        1.95722   0.00100   0.00000  -0.01521  -0.01497   1.94225
    D1        2.36803   0.00215   0.00000   0.08492   0.08293   2.45096
    D2       -0.30568   0.00009   0.00000  -0.00896  -0.00449  -0.31017
    D3        0.29208   0.00187   0.00000   0.15510   0.15063   0.44271
    D4       -2.38163  -0.00019   0.00000   0.06122   0.06321  -2.31842
    D5       -0.00106  -0.00012   0.00000  -0.00100  -0.00163  -0.00269
    D6        3.11024  -0.00004   0.00000   0.01443   0.01433   3.12458
    D7       -3.12973  -0.00017   0.00000  -0.01250  -0.01396   3.13949
    D8       -0.01843  -0.00009   0.00000   0.00293   0.00200  -0.01643
    D9        0.00130   0.00007   0.00000  -0.00006   0.00013   0.00143
   D10        3.12862   0.00011   0.00000   0.01242   0.01375  -3.14082
   D11        0.01067  -0.00036   0.00000  -0.01033  -0.00882   0.00185
   D12       -3.12990  -0.00017   0.00000  -0.01324  -0.01269   3.14059
   D13       -3.11625  -0.00042   0.00000  -0.02327  -0.02282  -3.13907
   D14        0.02637  -0.00023   0.00000  -0.02617  -0.02670  -0.00033
   D15        0.00035   0.00011   0.00000   0.00158   0.00234   0.00270
   D16       -3.13940   0.00023   0.00000   0.00709   0.00773  -3.13167
   D17       -3.07769   0.00018   0.00000  -0.02931  -0.03045  -3.10814
   D18        0.06574   0.00030   0.00000  -0.02380  -0.02506   0.04068
   D19       -2.74447   0.00069   0.00000  -0.01998  -0.02775  -2.77222
   D20        0.01757   0.00044   0.00000   0.00401   0.00439   0.02196
   D21        0.33417   0.00064   0.00000   0.01081   0.00482   0.33899
   D22        3.09621   0.00039   0.00000   0.03480   0.03696   3.13317
   D23        0.00040  -0.00008   0.00000  -0.00170  -0.00239  -0.00199
   D24       -3.14146   0.00005   0.00000   0.00151   0.00136  -3.14010
   D25        3.13993  -0.00021   0.00000  -0.00788  -0.00844   3.13149
   D26       -0.00194  -0.00008   0.00000  -0.00467  -0.00468  -0.00662
   D27       -0.00099   0.00001   0.00000   0.00106   0.00137   0.00039
   D28        3.14085  -0.00011   0.00000  -0.00181  -0.00198   3.13887
   D29        2.77609   0.00306   0.00000   0.10093   0.09206   2.86815
   D30       -0.01319  -0.00072   0.00000  -0.01075  -0.01023  -0.02342
   D31        0.00386   0.00069   0.00000   0.01200   0.01076   0.01462
   D32       -3.13907   0.00044   0.00000   0.01583   0.01585  -3.12323
         Item               Value     Threshold  Converged?
 Maximum Force            0.007626     0.000450     NO 
 RMS     Force            0.002207     0.000300     NO 
 Maximum Displacement     0.402664     0.001800     NO 
 RMS     Displacement     0.093029     0.001200     NO 
 Predicted change in Energy=-2.711883D-03
 GradGradGradGradGradGradGradGradGradGradGradGradGradGradGradGradGradGrad

                          Input orientation:                          
 ---------------------------------------------------------------------
 Center     Atomic      Atomic             Coordinates (Angstroms)
 Number     Number       Type             X           Y           Z
 ---------------------------------------------------------------------
      1          8           0        2.075136   -1.905511   -0.375290
      2          1           0        2.728391   -1.335885   -0.817123
      3          1           0        1.709170   -2.527841   -1.022705
      4          7           0       -0.510232    0.301631   -0.023683
      5          7           0       -0.339094   -1.010175   -0.018094
      6          6           0       -1.571013   -1.518920    0.017988
      7          6           0       -2.462649   -0.437722    0.029376
      8          7           0       -1.754914    0.694608    0.002634
      9          1           0       -1.749761   -2.582879    0.039897
     10          1           0       -3.541052   -0.424368    0.057530
     11          1           0        1.281497   -1.142536   -0.082220
     12          6           0        0.755025    1.180648   -0.060595
     13          8           0        1.745433    0.408638   -0.080910
     14          8           0        0.571616    2.367102   -0.066046
 ---------------------------------------------------------------------
                    Distance matrix (angstroms):
                    1          2          3          4          5
     1  O    0.000000
     2  H    0.972847   0.000000
     3  H    0.969728   1.581719   0.000000
     4  N    3.417489   3.714792   3.732252   0.000000
     5  N    2.599562   3.186533   2.740062   1.322934   0.000000
     6  C    3.687618   4.383581   3.586163   2.107464   1.333323
     7  C    4.786403   5.335742   4.783257   2.088395   2.199873
     8  N    4.644646   4.989481   4.841010   1.305511   2.216136
     9  H    3.906539   4.726872   3.618889   3.140203   2.113467
    10  H    5.824319   6.395451   5.758154   3.117618   3.255983
    11  H    1.139247   1.634309   1.728145   2.302029   1.627251
    12  C    3.371366   3.286251   3.948283   1.541073   2.449205
    13  O    2.355982   2.133442   3.084024   2.258927   2.522346
    14  O    4.539981   4.350621   5.115633   2.332029   3.498241
                    6          7          8          9         10
     6  C    0.000000
     7  C    1.401475   0.000000
     8  N    2.221207   1.335580   0.000000
     9  H    1.079091   2.260534   3.277702   0.000000
    10  H    2.254033   1.078854   2.108414   2.805032   0.000000
    11  H    2.878979   3.811541   3.549943   3.358277   4.877733
    12  C    3.564309   3.602865   2.557348   4.521967   4.587625
    13  O    3.837197   4.293768   3.513003   4.602190   5.353503
    14  O    4.438366   4.133147   2.866130   5.468302   4.972084
                   11         12         13         14
    11  H    0.000000
    12  C    2.382189   0.000000
    13  O    1.619068   1.255914   0.000000
    14  O    3.580748   1.200559   2.283342   0.000000
 Stoichiometry    C3H5N3O3
 Framework group  C1[X(C3H5N3O3)]
 Deg. of freedom    36
 Full point group                 C1      NOp   1
 Largest Abelian subgroup         C1      NOp   1
 Largest concise Abelian subgroup C1      NOp   1
                         Standard orientation:                         
 ---------------------------------------------------------------------
 Center     Atomic      Atomic             Coordinates (Angstroms)
 Number     Number       Type             X           Y           Z
 ---------------------------------------------------------------------
      1          8           0       -2.138310   -1.808192    0.018364
      2          1           0       -2.819975   -1.255390    0.438099
      3          1           0       -1.828710   -2.468222    0.657801
      4          7           0        0.482698    0.384671   -0.011599
      5          7           0        0.302949   -0.922930   -0.101175
      6          6           0        1.530163   -1.443158   -0.068684
      7          6           0        2.427825   -0.373199    0.047609
      8          7           0        1.728458    0.764164    0.080204
      9          1           0        1.702304   -2.506431   -0.133933
     10          1           0        3.505191   -0.370759    0.104189
     11          1           0       -1.318612   -1.039884   -0.170533
     12          6           0       -0.775111    1.274962   -0.025900
     13          8           0       -1.769681    0.514394   -0.124326
     14          8           0       -0.584033    2.457263    0.057738
 ---------------------------------------------------------------------
 Rotational constants (GHZ):           2.1287847           1.6247781           0.9258200
 Standard basis: 6-31+G(d,p) (6D, 7F)
 There are   196 symmetry adapted cartesian basis functions of A   symmetry.
 There are   196 symmetry adapted basis functions of A   symmetry.
   196 basis functions,   323 primitive gaussians,   196 cartesian basis functions
    34 alpha electrons       34 beta electrons
       nuclear repulsion energy       461.1088865232 Hartrees.
 NAtoms=   14 NActive=   14 NUniq=   14 SFac= 1.00D+00 NAtFMM=   60 NAOKFM=F Big=F
 Integral buffers will be    131072 words long.
 Raffenetti 2 integral format.
 Two-electron integral symmetry is turned on.
 One-electron integrals computed using PRISM.
 NBasis=   196 RedAO= T EigKep=  2.11D-05  NBF=   196
 NBsUse=   196 1.00D-06 EigRej= -1.00D+00 NBFU=   196
 Initial guess from the checkpoint file:  "/home/gau/soft/scratch/Gau-28622.chk"
 B after Tr=    -0.000000   -0.000000    0.000000
         Rot=    0.999995    0.002157    0.001391   -0.001559 Ang=   0.34 deg.
 ExpMin= 4.38D-02 ExpMax= 5.48D+03 ExpMxC= 8.25D+02 IAcc=3 IRadAn=         5 AccDes= 0.00D+00
 Harris functional with IExCor= 1009 and IRadAn=       5 diagonalized for initial guess.
 HarFok:  IExCor= 1009 AccDes= 0.00D+00 IRadAn=         5 IDoV= 1 UseB2=F ITyADJ=14
 ICtDFT=  3500011 ScaDFX=  1.000000  1.000000  1.000000  1.000000
 FoFCou: FMM=F IPFlag=           0 FMFlag=      100000 FMFlg1=           0
         NFxFlg=           0 DoJE=T BraDBF=F KetDBF=T FulRan=T
         wScrn=  0.000000 ICntrl=       500 IOpCl=  0 I1Cent=   200000004 NGrid=           0
         NMat0=    1 NMatS0=      1 NMatT0=    0 NMatD0=    1 NMtDS0=    0 NMtDT0=    0
 Petite list used in FoFCou.
 Requested convergence on RMS density matrix=1.00D-08 within 128 cycles.
 Requested convergence on MAX density matrix=1.00D-06.
 Requested convergence on             energy=1.00D-06.
 No special actions if energy rises.
 SCF Done:  E(RM062X) =  -507.015747557     A.U. after   12 cycles
            NFock= 12  Conv=0.85D-08     -V/T= 2.0081
 Calling FoFJK, ICntrl=      2127 FMM=F ISym2X=0 I1Cent= 0 IOpClX= 0 NMat=1 NMatS=1 NMatT=0.
 ***** Axes restored to original set *****
 -------------------------------------------------------------------
 Center     Atomic                   Forces (Hartrees/Bohr)
 Number     Number              X              Y              Z
 -------------------------------------------------------------------
      1        8           0.000019460   -0.005840582   -0.002788489
      2        1           0.002140455    0.002023068    0.002177846
      3        1          -0.000134414   -0.000187337    0.001501173
      4        7           0.000451529   -0.000059721   -0.000176124
      5        7          -0.002144946    0.001148883    0.001412048
      6        6           0.000063657    0.000437417    0.000090565
      7        6          -0.000075020    0.000201908    0.000142602
      8        7          -0.000189662   -0.000098402    0.000226848
      9        1          -0.000155350   -0.000125032    0.000008638
     10        1           0.000008647    0.000006720   -0.000007111
     11        1           0.002341344   -0.000698242   -0.003015650
     12        6          -0.001085689    0.001222611    0.000101365
     13        8          -0.001450726    0.002585921    0.000439460
     14        8           0.000210714   -0.000617212   -0.000113174
 -------------------------------------------------------------------
 Cartesian Forces:  Max     0.005840582 RMS     0.001490791

 GradGradGradGradGradGradGradGradGradGradGradGradGradGradGradGradGradGrad
 Berny optimization.
 FormGI is forming the generalized inverse of G from B-inverse, IUseBI=4.
 Internal  Forces:  Max     0.003868272 RMS     0.001012920
 Search for a saddle point.
 Step number   3 out of a maximum of  100
 All quantities printed in internal units (Hartrees-Bohrs-Radians)
 Swapping is turned off.
 Update second derivatives using D2CorX and points    2    3
 ITU=  0  0  0
     Eigenvalues ---   -0.03708  -0.00114   0.00053   0.00188   0.00376
     Eigenvalues ---    0.00695   0.01278   0.01430   0.02487   0.02661
     Eigenvalues ---    0.03640   0.04720   0.06226   0.06559   0.08447
     Eigenvalues ---    0.09763   0.10190   0.10528   0.10809   0.11653
     Eigenvalues ---    0.19828   0.21301   0.23267   0.26360   0.28215
     Eigenvalues ---    0.35364   0.38168   0.38759   0.41689   0.46579
     Eigenvalues ---    0.51239   0.51856   0.53724   0.59398   0.61899
     Eigenvalues ---    0.94544
 Eigenvectors required to have negative eigenvalues:
                          R13       R8        A17       A18       A9
   1                   -0.61345   0.53296  -0.35659   0.31422   0.18551
                          A8        A23       D29       R6        A22
   1                   -0.16818   0.10418  -0.09672  -0.09158  -0.06461
 RFO step:  Lambda0=1.028898749D-07 Lambda=-3.06727854D-03.
 Linear search not attempted -- option 19 set.
 Iteration  1 RMS(Cart)=  0.08322088 RMS(Int)=  0.06078207
 Iteration  2 RMS(Cart)=  0.05722091 RMS(Int)=  0.01385444
 Iteration  3 RMS(Cart)=  0.01539789 RMS(Int)=  0.00154206
 Iteration  4 RMS(Cart)=  0.00042592 RMS(Int)=  0.00147894
 Iteration  5 RMS(Cart)=  0.00000028 RMS(Int)=  0.00147894
 Variable       Old X    -DE/DX   Delta X   Delta X   Delta X     New X
                                 (Linear)    (Quad)   (Total)
    R1        1.83842   0.00163   0.00000   0.00554   0.00554   1.84396
    R2        1.83252  -0.00083   0.00000  -0.00180  -0.00180   1.83072
    R3        2.15287   0.00387   0.00000  -0.01597  -0.01597   2.13689
    R4        2.49998   0.00022   0.00000   0.00201   0.00354   2.50352
    R5        2.46706   0.00011   0.00000   0.00126   0.00119   2.46825
    R6        2.91221  -0.00099   0.00000  -0.01533  -0.01605   2.89616
    R7        2.51961   0.00029   0.00000   0.00036   0.00117   2.52078
    R8        3.07506   0.00332   0.00000   0.08401   0.08520   3.16026
    R9        2.64840  -0.00001   0.00000  -0.00009  -0.00067   2.64774
   R10        2.03919   0.00015   0.00000   0.00046   0.00046   2.03964
   R11        2.52388  -0.00047   0.00000  -0.00232  -0.00348   2.52040
   R12        2.03874  -0.00001   0.00000  -0.00004  -0.00004   2.03869
   R13        3.05959   0.00284   0.00000   0.03985   0.03978   3.09938
   R14        2.37333   0.00027   0.00000   0.00209   0.00095   2.37429
   R15        2.26873  -0.00064   0.00000   0.00002   0.00002   2.26875
    A1        1.90283   0.00200   0.00000   0.04130   0.04126   1.94409
    A2        1.76448  -0.00051   0.00000  -0.00021  -0.00023   1.76426
    A3        1.91627   0.00053   0.00000  -0.00274  -0.00276   1.91351
    A4        2.00615   0.00026   0.00000   0.00149   0.00231   2.00846
    A5        2.04821   0.00036   0.00000   0.00781   0.00766   2.05587
    A6        2.22882  -0.00062   0.00000  -0.00927  -0.01147   2.21735
    A7        1.83272  -0.00061   0.00000  -0.00380  -0.00606   1.82666
    A8        1.78168   0.00108   0.00000   0.00999   0.00808   1.78975
    A9        2.66857  -0.00047   0.00000  -0.00315  -0.00990   2.65867
   A10        1.86887   0.00039   0.00000   0.00306   0.00459   1.87346
   A11        2.12917  -0.00005   0.00000  -0.00087  -0.00165   2.12753
   A12        2.28511  -0.00034   0.00000  -0.00223  -0.00300   2.28212
   A13        1.89312  -0.00010   0.00000  -0.00080  -0.00107   1.89205
   A14        2.27275   0.00007   0.00000   0.00065   0.00078   2.27353
   A15        2.11731   0.00003   0.00000   0.00014   0.00027   2.11758
   A16        1.82391   0.00007   0.00000   0.00005   0.00022   1.82412
   A17        2.43165   0.00106   0.00000  -0.01219  -0.01635   2.41530
   A18        2.02888   0.00194   0.00000   0.08931   0.08650   2.11537
   A19        1.77972  -0.00276   0.00000  -0.04321  -0.04281   1.73692
   A20        1.87258  -0.00024   0.00000   0.00411   0.00370   1.87628
   A21        2.02458   0.00026   0.00000   0.00394   0.00413   2.02871
   A22        2.38602  -0.00002   0.00000  -0.00806  -0.00787   2.37815
   A23        1.94225   0.00154   0.00000   0.02263   0.02300   1.96524
    D1        2.45096   0.00226   0.00000   0.53503   0.53696   2.98792
    D2       -0.31017   0.00173   0.00000   0.39149   0.38960   0.07943
    D3        0.44271   0.00005   0.00000   0.48950   0.49139   0.93410
    D4       -2.31842  -0.00048   0.00000   0.34596   0.34403  -1.97439
    D5       -0.00269  -0.00003   0.00000   0.00556   0.00573   0.00304
    D6        3.12458   0.00005   0.00000   0.10797   0.10896  -3.04965
    D7        3.13949  -0.00020   0.00000  -0.04986  -0.04953   3.08996
    D8       -0.01643  -0.00012   0.00000   0.05255   0.05370   0.03727
    D9        0.00143   0.00002   0.00000  -0.00703  -0.00691  -0.00548
   D10       -3.14082   0.00020   0.00000   0.05519   0.05435  -3.08646
   D11        0.00185  -0.00013   0.00000  -0.03263  -0.03348  -0.03163
   D12        3.14059   0.00004   0.00000  -0.03763  -0.03838   3.10220
   D13       -3.13907  -0.00032   0.00000  -0.09615  -0.09620   3.04791
   D14       -0.00033  -0.00015   0.00000  -0.10115  -0.10111  -0.10144
   D15        0.00270   0.00003   0.00000  -0.00165  -0.00203   0.00066
   D16       -3.13167   0.00006   0.00000   0.00340   0.00294  -3.12873
   D17       -3.10814  -0.00017   0.00000  -0.22179  -0.22052   2.95453
   D18        0.04068  -0.00015   0.00000  -0.21674  -0.21554  -0.17487
   D19       -2.77222  -0.00081   0.00000  -0.19971  -0.19605  -2.96827
   D20        0.02196   0.00022   0.00000  -0.05049  -0.05034  -0.02839
   D21        0.33899  -0.00062   0.00000   0.01764   0.02037   0.35936
   D22        3.13317   0.00041   0.00000   0.16686   0.16608  -2.98394
   D23       -0.00199  -0.00002   0.00000  -0.00245  -0.00196  -0.00396
   D24       -3.14010  -0.00000   0.00000   0.00133   0.00132  -3.13878
   D25        3.13149  -0.00005   0.00000  -0.00811  -0.00753   3.12397
   D26       -0.00662  -0.00003   0.00000  -0.00433  -0.00424  -0.01086
   D27        0.00039   0.00000   0.00000   0.00549   0.00512   0.00551
   D28        3.13887  -0.00002   0.00000   0.00211   0.00219   3.14106
   D29        2.86815   0.00046   0.00000   0.12635   0.12964   2.99779
   D30       -0.02342  -0.00034   0.00000   0.03598   0.03580   0.01238
   D31        0.01462   0.00032   0.00000  -0.00733  -0.00770   0.00692
   D32       -3.12323   0.00009   0.00000  -0.00082  -0.00137  -3.12460
         Item               Value     Threshold  Converged?
 Maximum Force            0.003868     0.000450     NO 
 RMS     Force            0.001013     0.000300     NO 
 Maximum Displacement     0.776320     0.001800     NO 
 RMS     Displacement     0.140788     0.001200     NO 
 Predicted change in Energy=-3.132823D-03
 GradGradGradGradGradGradGradGradGradGradGradGradGradGradGradGradGradGrad

                          Input orientation:                          
 ---------------------------------------------------------------------
 Center     Atomic      Atomic             Coordinates (Angstroms)
 Number     Number       Type             X           Y           Z
 ---------------------------------------------------------------------
      1          8           0        2.055141   -1.978645   -0.364514
      2          1           0        2.876942   -1.454202   -0.406312
      3          1           0        1.872427   -2.416970   -1.208913
      4          7           0       -0.536921    0.306348   -0.080881
      5          7           0       -0.375594   -1.007349   -0.138234
      6          6           0       -1.607293   -1.504444   -0.014907
      7          6           0       -2.484411   -0.419582    0.115017
      8          7           0       -1.770726    0.706366    0.073113
      9          1           0       -1.795946   -2.567160   -0.013632
     10          1           0       -3.556049   -0.400202    0.237868
     11          1           0        1.288451   -1.167336   -0.183794
     12          6           0        0.719259    1.183193   -0.125164
     13          8           0        1.713542    0.416714   -0.175136
     14          8           0        0.538732    2.370059   -0.113754
 ---------------------------------------------------------------------
                    Distance matrix (angstroms):
                    1          2          3          4          5
     1  O    0.000000
     2  H    0.975779   0.000000
     3  H    0.968774   1.606282   0.000000
     4  N    3.467049   3.854854   3.807082   0.000000
     5  N    2.627373   3.294015   2.861291   1.324808   0.000000
     6  C    3.709517   4.501565   3.790357   2.104523   1.333939
     7  C    4.823708   5.485101   4.972363   2.087599   2.203796
     8  N    4.694471   5.147691   4.967030   1.306140   2.219883
     9  H    3.911565   4.819622   3.861116   3.137948   2.113276
    10  H    5.860017   6.550516   5.968993   3.117041   3.259658
    11  H    1.130794   1.629451   1.718570   2.348258   1.672339
    12  C    3.440798   3.419136   3.932618   1.532581   2.448949
    13  O    2.426994   2.215236   3.020547   2.255138   2.528598
    14  O    4.612332   4.491970   5.088592   2.327448   3.499068
                    6          7          8          9         10
     6  C    0.000000
     7  C    1.401121   0.000000
     8  N    2.218589   1.333740   0.000000
     9  H    1.079332   2.258900   3.274773   0.000000
    10  H    2.254084   1.078830   2.106897   2.803020   0.000000
    11  H    2.920188   3.857838   3.596571   3.391455   4.922954
    12  C    3.556458   3.590275   2.542971   4.517061   4.573531
    13  O    3.839852   4.290267   3.505088   4.609348   5.348505
    14  O    4.430233   4.119931   2.852435   5.462315   4.956330
                   11         12         13         14
    11  H    0.000000
    12  C    2.419174   0.000000
    13  O    1.640119   1.256418   0.000000
    14  O    3.616649   1.200571   2.280242   0.000000
 Stoichiometry    C3H5N3O3
 Framework group  C1[X(C3H5N3O3)]
 Deg. of freedom    36
 Full point group                 C1      NOp   1
 Largest Abelian subgroup         C1      NOp   1
 Largest concise Abelian subgroup C1      NOp   1
                         Standard orientation:                         
 ---------------------------------------------------------------------
 Center     Atomic      Atomic             Coordinates (Angstroms)
 Number     Number       Type             X           Y           Z
 ---------------------------------------------------------------------
      1          8           0       -2.254999   -1.735457   -0.041555
      2          1           0       -3.037646   -1.152823   -0.053685
      3          1           0       -2.187400   -2.218916    0.795237
      4          7           0        0.507965    0.357792    0.027473
      5          7           0        0.248981   -0.941318    0.008614
      6          6           0        1.448441   -1.524293   -0.020219
      7          6           0        2.408830   -0.504108   -0.016241
      8          7           0        1.776180    0.669750    0.009728
      9          1           0        1.560420   -2.597312   -0.052630
     10          1           0        3.486007   -0.560461   -0.035946
     11          1           0       -1.418668   -0.977566   -0.111175
     12          6           0       -0.681109    1.324081   -0.007100
     13          8           0       -1.727381    0.633056   -0.087002
     14          8           0       -0.416564    2.493579    0.053415
 ---------------------------------------------------------------------
 Rotational constants (GHZ):           2.0960678           1.6158606           0.9152704
 Standard basis: 6-31+G(d,p) (6D, 7F)
 There are   196 symmetry adapted cartesian basis functions of A   symmetry.
 There are   196 symmetry adapted basis functions of A   symmetry.
   196 basis functions,   323 primitive gaussians,   196 cartesian basis functions
    34 alpha electrons       34 beta electrons
       nuclear repulsion energy       459.6828530515 Hartrees.
 NAtoms=   14 NActive=   14 NUniq=   14 SFac= 1.00D+00 NAtFMM=   60 NAOKFM=F Big=F
 Integral buffers will be    131072 words long.
 Raffenetti 2 integral format.
 Two-electron integral symmetry is turned on.
 One-electron integrals computed using PRISM.
 NBasis=   196 RedAO= T EigKep=  2.19D-05  NBF=   196
 NBsUse=   196 1.00D-06 EigRej= -1.00D+00 NBFU=   196
 Initial guess from the checkpoint file:  "/home/gau/soft/scratch/Gau-28622.chk"
 B after Tr=    -0.000000    0.000000   -0.000000
         Rot=    0.999548    0.000642    0.001059    0.030045 Ang=   3.45 deg.
 ExpMin= 4.38D-02 ExpMax= 5.48D+03 ExpMxC= 8.25D+02 IAcc=3 IRadAn=         5 AccDes= 0.00D+00
 Harris functional with IExCor= 1009 and IRadAn=       5 diagonalized for initial guess.
 HarFok:  IExCor= 1009 AccDes= 0.00D+00 IRadAn=         5 IDoV= 1 UseB2=F ITyADJ=14
 ICtDFT=  3500011 ScaDFX=  1.000000  1.000000  1.000000  1.000000
 FoFCou: FMM=F IPFlag=           0 FMFlag=      100000 FMFlg1=           0
         NFxFlg=           0 DoJE=T BraDBF=F KetDBF=T FulRan=T
         wScrn=  0.000000 ICntrl=       500 IOpCl=  0 I1Cent=   200000004 NGrid=           0
         NMat0=    1 NMatS0=      1 NMatT0=    0 NMatD0=    1 NMtDS0=    0 NMtDT0=    0
 Petite list used in FoFCou.
 Requested convergence on RMS density matrix=1.00D-08 within 128 cycles.
 Requested convergence on MAX density matrix=1.00D-06.
 Requested convergence on             energy=1.00D-06.
 No special actions if energy rises.
 SCF Done:  E(RM062X) =  -507.016338789     A.U. after   15 cycles
            NFock= 15  Conv=0.38D-08     -V/T= 2.0082
 Calling FoFJK, ICntrl=      2127 FMM=F ISym2X=0 I1Cent= 0 IOpClX= 0 NMat=1 NMatS=1 NMatT=0.
 ***** Axes restored to original set *****
 -------------------------------------------------------------------
 Center     Atomic                   Forces (Hartrees/Bohr)
 Number     Number              X              Y              Z
 -------------------------------------------------------------------
      1        8           0.000726596    0.003674979    0.006256711
      2        1          -0.000886077   -0.001568814   -0.003318469
      3        1           0.001351677    0.001451841   -0.000762471
      4        7           0.000635815   -0.000637101    0.000584039
      5        7          -0.003753144    0.001682062    0.001676916
      6        6           0.001127612   -0.001151656   -0.000040075
      7        6          -0.000365686   -0.000315438   -0.000010499
      8        7           0.000183631    0.000889030   -0.000477666
      9        1           0.000019951   -0.000003831   -0.000389929
     10        1          -0.000024084   -0.000042408   -0.000022011
     11        1          -0.000516061    0.000366179   -0.003720888
     12        6          -0.001118515   -0.000819090   -0.000938694
     13        8           0.002499409   -0.004387689    0.000712793
     14        8           0.000118874    0.000861935    0.000450243
 -------------------------------------------------------------------
 Cartesian Forces:  Max     0.006256711 RMS     0.001831529

 GradGradGradGradGradGradGradGradGradGradGradGradGradGradGradGradGradGrad
 Berny optimization.
 FormGI is forming the generalized inverse of G from B-inverse, IUseBI=4.
 Internal  Forces:  Max     0.003821196 RMS     0.001013848
 Search for a saddle point.
 Step number   4 out of a maximum of  100
 All quantities printed in internal units (Hartrees-Bohrs-Radians)
 Swapping is turned off.
[...]
 ! D5    D(8,4,5,6)              0.015          -DE/DX =    0.0                 !
 ! D6    D(8,4,5,11)          -177.979          -DE/DX =    0.0                 !
 ! D7    D(12,4,5,6)           178.9514         -DE/DX =    0.0                 !
 ! D8    D(12,4,5,11)            0.9574         -DE/DX =    0.0                 !
 ! D9    D(5,4,8,7)             -0.0767         -DE/DX =    0.0                 !
 ! D10   D(12,4,8,7)          -178.8951         -DE/DX =    0.0                 !
 ! D11   D(5,4,12,13)           -0.8063         -DE/DX =    0.0                 !
 ! D12   D(5,4,12,14)          179.0667         -DE/DX =    0.0                 !
 ! D13   D(8,4,12,13)          177.9832         -DE/DX =    0.0                 !
 ! D14   D(8,4,12,14)           -2.1438         -DE/DX =    0.0                 !
 ! D15   D(4,5,6,7)              0.0513         -DE/DX =    0.0                 !
 ! D16   D(4,5,6,9)           -179.6846         -DE/DX =    0.0                 !
 ! D17   D(11,5,6,7)           175.7922         -DE/DX =    0.0                 !
 ! D18   D(11,5,6,9)            -3.9436         -DE/DX =    0.0                 !
 ! D19   D(4,5,11,1)          -173.7487         -DE/DX =    0.0                 !
 ! D20   D(4,5,11,13)           -0.7374         -DE/DX =    0.0                 !
 ! D21   D(6,5,11,1)            10.4654         -DE/DX =    0.0                 !
 ! D22   D(6,5,11,13)         -176.5233         -DE/DX =    0.0                 !
 ! D23   D(5,6,7,8)             -0.0997         -DE/DX =    0.0                 !
 ! D24   D(5,6,7,10)          -179.9175         -DE/DX =    0.0                 !
 ! D25   D(9,6,7,8)            179.6039         -DE/DX =    0.0                 !
 ! D26   D(9,6,7,10)            -0.2139         -DE/DX =    0.0                 !
 ! D27   D(6,7,8,4)              0.1039         -DE/DX =    0.0                 !
 ! D28   D(10,7,8,4)           179.9411         -DE/DX =    0.0                 !
 ! D29   D(1,11,13,12)         175.4433         -DE/DX =    0.0                 !
 ! D30   D(5,11,13,12)           0.3302         -DE/DX =    0.0                 !
 ! D31   D(4,12,13,11)           0.1671         -DE/DX =    0.0                 !
 ! D32   D(14,12,13,11)       -179.6681         -DE/DX =    0.0                 !
 --------------------------------------------------------------------------------
 GradGradGradGradGradGradGradGradGradGradGradGradGradGradGradGradGradGrad


 ----------------------------------------------------------------------

 Electric dipole moment (input orientation):
 (Debye = 10**-18 statcoulomb cm , SI units = C m)
                  (au)            (Debye)         (10**-30 SI)
   Tot        0.376203D+01      0.956214D+01      0.318959D+02
   x          0.489578D+00      0.124438D+01      0.415081D+01
   y         -0.363613D+01     -0.924213D+01     -0.308284D+02
   z         -0.831714D+00     -0.211401D+01     -0.705156D+01

 Dipole polarizability, Alpha (input orientation).
 (esu units = cm**3 , SI units = C**2 m**2 J**-1)
 Alpha(0;0):
               (au)            (10**-24 esu)      (10**-40 SI)
   iso        0.695586D+02      0.103075D+02      0.114687D+02
   aniso      0.427730D+02      0.633830D+01      0.705231D+01
   xx         0.841785D+02      0.124740D+02      0.138792D+02
   yx         0.231475D+01      0.343011D+00      0.381651D+00
   yy         0.828185D+02      0.122724D+02      0.136549D+02
   zx        -0.405908D+01     -0.601494D+00     -0.669253D+00
   zy         0.214089D+01      0.317247D+00      0.352985D+00
   zz         0.416788D+02      0.617616D+01      0.687191D+01

 ----------------------------------------------------------------------

 Dipole orientation:
     8          3.41548858         -0.17791587          4.21982438
     1          4.91789223         -0.89787767          3.43198505
     1          2.76127286         -1.32487148          5.48822714
     7         -0.94888534         -0.12358653         -0.66227843
     7         -0.93271862          0.33049354          1.79662623
     6         -3.30519836          0.96438144          2.35431010
     6         -4.69486370          0.85315171          0.10132127
     7         -3.14147853          0.16230938         -1.76148660
     1         -3.87446081          1.45442763          4.25041866
     1         -6.66756321          1.23028878         -0.24902964
     1          2.09789168         -0.09529718          2.54435113
     6          1.55553566         -0.86742880         -1.91474969
     8          3.22855625         -0.86178665         -0.22751477
     8          1.47435904         -1.29937610         -4.14103929

 Electric dipole moment (dipole orientation):
 (Debye = 10**-18 statcoulomb cm , SI units = C m)
                  (au)            (Debye)         (10**-30 SI)
   Tot        0.376203D+01      0.956214D+01      0.318959D+02
   x          0.000000D+00      0.000000D+00      0.000000D+00
   y          0.000000D+00      0.000000D+00      0.000000D+00
   z          0.376203D+01      0.956214D+01      0.318959D+02

 Dipole polarizability, Alpha (dipole orientation).
 (esu units = cm**3 , SI units = C**2 m**2 J**-1)
 Alpha(0;0):
               (au)            (10**-24 esu)      (10**-40 SI)
   iso        0.695586D+02      0.103075D+02      0.114687D+02
   aniso      0.427730D+02      0.633830D+01      0.705231D+01
   xx         0.829302D+02      0.122890D+02      0.136733D+02
   yx        -0.954035D+01     -0.141373D+01     -0.157299D+01
   yy         0.443487D+02      0.657180D+01      0.731211D+01
   zx        -0.318916D+00     -0.472585D-01     -0.525821D-01
   zy         0.644048D+01      0.954381D+00      0.106189D+01
   zz         0.813970D+02      0.120618D+02      0.134205D+02

 ----------------------------------------------------------------------
 Unable to Open any file for archive entry.
 1\1\GINC-NODE01\Freq\RM062X\6-31+G(d,p)\C3H5N3O3\GAU\06-Dec-2023\0\\#N
  Geom=AllCheck Guess=TCheck SCRF=Check GenChk RM062X/6-31+G(d,p) Freq\
 \TS\\0,1\O,2.0826288699,-1.9500066644,-0.3494710377\H,2.8516300991,-1.
 3756438432,-0.5220747214\H,1.8911032844,-2.4918134246,-1.1295462017\N,
 -0.5340356725,0.302376225,-0.0510751645\N,-0.3810178498,-1.0108487452,
 -0.1053842007\C,-1.615215627,-1.5042203836,-0.009796447\C,-2.489485274
 7,-0.4138102283,0.1011928168\N,-1.7694952447,0.7095228308,0.0727552696
 \H,-1.8084145399,-2.5659765034,-0.0201836494\H,-3.563599252,-0.3890376
 445,0.1992236552\H,1.2751714382,-1.1751498841,-0.2019356706\C,0.727160
 904,1.1719718917,-0.1125310013\O,1.7160908008,0.3994998994,-0.19182346
 25\O,0.555031104,2.3599263345,-0.0785925549\\Version=ES64L-G16RevC.01\
 State=1-A\HF=-507.0168728\RMSD=2.441e-09\RMSF=5.028e-06\ZeroPoint=0.09
 63179\Thermal=0.1045994\ETot=-506.9122734\HTot=-506.9113292\GTot=-506.
 9542154\Dipole=0.4895779,-3.6361331,-0.8317138\DipoleDeriv=-1.0113387,
 0.4497421,0.0824535,0.5110992,-0.9783238,-0.0958747,0.081361,-0.096524
 3,-0.342598,0.4935727,-0.0276121,0.0174376,-0.0570981,0.4393577,0.0073
 343,0.0286567,-0.0112362,0.3274345,0.3498604,-0.0150567,-0.0125424,-0.
 0609853,0.4311652,0.035943,-0.019502,0.0300567,0.3458453,-0.8463267,-0
 .7026191,0.0531131,-0.6995589,-0.3883742,0.052083,0.0509246,0.044662,0
 .0572513,-0.774267,0.2952868,0.0827947,0.4021084,-0.1173206,-0.0416854
 ,0.0656524,-0.0397714,-0.1769428,-0.0929958,-0.306468,-0.0114297,0.045
 7178,0.2274054,-0.0040636,-0.0003137,0.029016,-0.0729702,0.1542744,-0.
 0773601,-0.0257413,-0.2863124,-0.1750499,0.0220814,-0.0317855,0.003664
 5,-0.0923039,0.0344541,0.3929865,-0.0038145,0.0834435,-0.2539579,-0.01
 29233,-0.0180161,-0.0366395,-0.1600582,0.0947357,0.0046092,0.0071271,-
 0.0249595,-0.0012441,-0.00361,0.0063797,-0.0052572,0.1651814,0.0035378
 ,-0.0138477,0.0140939,0.0130334,0.0948554,-0.0038513,0.0158833,-0.0006
 886,0.1639651,1.3671328,-0.4350929,-0.165745,-0.5538164,1.2073212,0.12
 49835,-0.162219,0.1241775,0.2911429,2.434998,0.1245275,-0.1561398,0.28
 7247,2.577154,0.0340353,-0.1271738,0.0305548,0.3816706,-1.512948,0.306
 6381,0.0936585,0.4690629,-1.4430017,-0.0904318,0.0950035,-0.0529789,-0
 .4833217,-0.6946898,0.0042662,0.0247344,-0.1289816,-1.6199867,-0.02402
 05,0.0151489,-0.0190353,-0.4042965\Polar=84.1785483,2.3147546,82.81849
 12,-4.0590848,2.1408894,41.6788264\Quadrupole=6.1825245,-4.5599672,-1.
 6225573,-5.682344,-3.9923739,3.6878707\PG=C01 [X(C3H5N3O3)]\NImag=1\\0
 .49958402,0.22556350,0.48150949,-0.00944782,0.20315395,0.43554460,-0.3
 1339594,-0.20872335,0.06037875,0.34027904,-0.21495832,-0.19658113,0.02
 333590,0.22089588,0.18979323,0.10113842,0.04650614,-0.06145020,-0.0712
 2307,-0.03138614,0.05338703,-0.07993952,-0.05478664,-0.05658550,-0.001
 25038,-0.01552130,-0.03215383,0.06633303,-0.06123011,-0.16782806,-0.20
 344796,0.00000079,-0.00983157,-0.02001965,0.06554675,0.18793603,-0.077
 82049,-0.24549097,-0.35017439,0.00398910,0.00898113,0.00781430,0.07326
 255,0.23589184,0.34567579,-0.00248201,0.00461276,0.00076651,0.00005522
 ,-0.00247884,-0.00027387,-0.00044124,-0.00003998,-0.00030308,0.7768599
 1,-0.00074850,-0.00090845,-0.00026815,0.00007685,-0.00007870,0.0001220
 4,0.00045311,-0.00111712,-0.00025703,0.01848531,0.71379206,0.00041175,
 -0.00030426,0.00036085,-0.00004930,0.00005711,0.00041089,-0.00032290,0
 .00004815,0.00006598,-0.05373232,0.01708110,0.12905626,-0.03310843,0.0
 1112840,0.00482490,-0.00090450,0.00357338,0.00058915,-0.00161959,-0.00
 147843,-0.00078903,-0.10771852,0.00088378,0.00160668,0.65303414,0.0059
 3683,0.00484643,0.00041117,0.00122744,-0.00070896,-0.00023364,-0.00159
 887,0.00043791,0.00021090,0.06537721,-0.30307351,-0.01403965,0.0156316
 8,0.55398807,0.00398310,-0.00075328,0.00491550,-0.00005259,-0.00033510
 ,0.00039436,-0.00174562,0.00136463,-0.00016854,0.00364626,-0.00590364,
 -0.07942525,-0.04776583,0.01134689,0.12129063,0.00086190,0.00213081,0.
 00020806,0.00007648,-0.00118024,-0.00015352,-0.00111723,0.00033726,0.0
 0013179,-0.06159537,-0.09284570,0.00443215,-0.35796660,-0.09255525,0.0
 2185808,0.62700046,0.00607025,-0.00329874,-0.00081438,0.00000863,-0.00
 058009,-0.00015889,0.00035424,0.00079500,0.00014016,-0.02996584,-0.096
 85550,-0.00106070,-0.08147508,-0.14430667,0.00568610,0.08300062,0.9091
 3884,0.00003268,-0.00021447,0.00025834,-0.00002291,0.00011292,-0.00007
 327,0.00012483,-0.00003362,-0.00004890,0.00615394,0.00444473,0.0138449
 1,0.02316436,0.00689909,-0.07337521,-0.04189618,0.01443172,0.14047139,
 -0.00161060,0.00147866,0.00027160,0.00002163,-0.00023811,-0.00000264,-
 0.00037080,-0.00029573,-0.00007338,-0.12377273,-0.01784124,0.01143093,
 -0.07596966,-0.01983977,0.00758827,-0.19697258,0.12091755,0.01519668,0
 .92907517,0.00160409,0.00130763,0.00011656,0.00027432,-0.00103330,-0.0
 0015796,-0.00046002,0.00018491,0.00006429,-0.09289820,-0.02772149,0.00
 753647,0.08100826,0.03382066,-0.00753905,0.07658795,-0.23422590,-0.011
 32805,0.01476084,0.59698599,0.00011512,-0.00009464,-0.00040153,0.00001
 837,-0.00002177,0.00000723,0.00008693,-0.00005488,-0.00000961,0.009050
 21,0.00055089,0.01201385,0.01131848,0.00244194,0.01715059,0.01365178,-
 0.01576491,-0.07167893,-0.07056563,0.01278270,0.14485312,-0.00483230,-
 0.00001338,0.00032500,-0.00007277,0.00139423,0.00020881,0.00081584,-0.
 00062818,-0.00042576,-0.30618584,0.11600880,0.02353327,-0.08420563,0.0
 5978170,0.01287047,0.05039675,-0.04643381,-0.00448622,-0.17952637,-0.1
 1564863,0.00624066,0.55562052,0.00277985,0.00117018,-0.00001507,0.0001
 3584,-0.00115133,-0.00016551,-0.00085789,0.00012983,0.00029640,0.04544
 953,-0.13994908,-0.00640956,0.01970872,-0.08331611,-0.00526383,0.04931
 315,-0.07957424,-0.00769064,-0.11435310,-0.31022494,0.00255791,0.01356
 396,0.59521523,0.00047271,0.00004959,-0.00033498,0.00005508,-0.0001761
 2,-0.00011244,0.00012664,-0.00005016,0.00006766,0.02226158,-0.01313188
 ,-0.07900633,0.01063957,-0.00860353,0.02673848,-0.00109375,0.00092422,
 0.02074656,0.00599246,0.00257488,-0.07317713,-0.03948199,0.01462923,0.
 11326847,0.00001078,0.00033377,0.00002674,-0.00006026,-0.00010921,-0.0
 0000259,-0.00024471,-0.00013598,0.00010748,-0.00852027,-0.00277576,0.0
 0139897,0.00022388,-0.03219255,-0.00150231,-0.06575159,-0.04277665,0.0
 0213256,0.01248967,0.01375674,-0.00083865,-0.00158135,0.00626538,0.000
 93252,0.06252470,-0.00022458,0.00015140,0.00003454,-0.00002451,-0.0000
 2725,-0.00000015,-0.00009143,-0.00001673,-0.00001208,0.00051725,0.0010
 8091,-0.00020502,-0.00025617,-0.00436329,0.00006704,-0.05135629,-0.360
 88513,-0.00410571,-0.00876102,-0.00545770,0.00066072,0.00024688,-0.002
 81459,-0.00025291,0.05928537,0.37291154,0.00001084,-0.00003350,0.00007
 529,0.00000731,0.00001403,0.00001602,0.00010233,0.00008459,0.00010199,
 0.00155500,0.00008252,0.00874315,-0.00078321,0.00264892,-0.00688071,0.
 00201606,-0.00444670,-0.03114133,-0.00147254,-0.00143500,-0.00057279,0
 .00071040,-0.00087546,0.00616741,-0.00204650,0.00385018,0.02446479,-0.
 00015599,0.00008964,0.00001606,0.00001556,-0.00002447,-0.00000008,0.00
 000803,-0.00004006,-0.00002279,0.00002275,-0.00195249,0.00072069,-0.00
 082775,0.00061025,0.00071760,-0.00385294,-0.00467853,0.00009619,-0.365
 58368,0.01104018,0.03055817,-0.01129434,0.00098372,0.00036015,-0.00042
 814,0.00043981,-0.00007507,0.38188387,0.00056646,-0.00009599,-0.000047
 89,0.00000424,-0.00013533,-0.00002390,-0.00003637,0.00006171,0.0000337
 1,-0.00685715,-0.00620021,0.00007411,0.00587709,-0.00395023,-0.0008173
 3,0.01895196,0.00888322,-0.00141419,0.01886946,-0.05849255,-0.00254338
 ,-0.02881235,0.00532563,0.00306133,-0.00046714,-0.00033848,0.00007265,
 -0.00674215,0.05284072,0.00001439,-0.00001387,-0.00007236,0.00000934,0
 .00000220,0.00000460,0.00002905,-0.00001184,0.00002806,0.00056776,-0.0
 0029091,0.00891992,0.00087848,-0.00039997,0.00661937,0.00080695,0.0007
 2052,-0.00137729,0.03091886,-0.00178698,-0.03404174,-0.00067427,0.0003
 3591,-0.00766008,-0.00009658,-0.00002500,-0.00138534,-0.03248014,0.001
 47126,0.02790352,-0.07055886,0.01630719,-0.00142531,-0.02433494,0.0085
 6681,0.00250230,0.01654491,-0.00362842,0.00205427,-0.01330304,0.010378
 07,0.00132024,0.02892586,0.02128720,0.00038943,-0.00293807,-0.01394433
 ,0.00013129,0.00373739,-0.00486167,-0.00063995,0.01182385,-0.00580029,
 -0.00144255,-0.00005205,0.00027127,0.00008028,0.00037606,-0.00152166,-
 0.00011912,0.05208474,0.01862901,-0.05087907,-0.01003392,-0.00741227,0
 .02285270,0.00514543,0.00172264,-0.00787573,-0.00301052,-0.00017704,-0
 .00014073,0.00010048,0.00332505,-0.01304879,-0.00051072,-0.00550799,0.
 00175898,0.00042577,-0.00212690,-0.00422095,0.00008424,0.00370572,-0.0
 0470290,-0.00059725,-0.00054052,-0.00027339,0.00005423,-0.00009949,-0.
 00017839,0.00000626,-0.04786386,0.01582328,-0.02153055,0.00311387,-0.0
 3820234,0.00827474,-0.00081996,0.00287143,0.01798259,-0.01529790,-0.00
 335192,0.00083862,-0.00086267,-0.00090049,-0.00319640,-0.00145250,-0.0
 1476135,0.00031308,0.00098933,-0.00171523,-0.00010549,0.00029552,0.001
 66907,-0.00074475,0.00008168,0.00153622,-0.00008093,-0.00000862,-0.000
 49538,0.00001249,0.00006691,0.00041137,-0.00298543,0.01125694,0.068322
 49,-0.00150151,-0.02523421,-0.00274369,-0.00504486,0.00883495,0.000929
 83,0.00409276,0.00080550,0.00052259,-0.06090289,0.00065660,0.00184679,
 -0.01415962,-0.02544927,-0.00086556,0.02182459,0.01287596,-0.00124162,
 0.00251971,0.02317410,0.00101946,-0.03806405,-0.00399178,0.00215796,0.
 00235955,0.00061060,-0.00012487,0.00050902,0.00137897,0.00013893,0.033
 44207,0.04939889,0.00070657,0.51531658,-0.00260855,0.00372180,-0.00006
 146,0.00187911,-0.00425044,-0.00011744,0.00041347,-0.00241377,-0.00098
 219,0.01605809,-0.07474242,-0.00185482,-0.01766993,-0.02580249,0.00111
 741,0.01212314,-0.00578795,-0.00133050,0.01307889,0.00934058,-0.001213
 46,-0.00206627,0.01712442,0.00159093,-0.00016422,0.00004889,-0.0000535
 8,0.00098206,0.00184619,-0.00014232,0.00600279,-0.02240908,-0.00131233
 ,-0.32941749,1.10554521,0.00025345,0.00065680,0.00212426,0.00006211,-0
 .00033360,-0.00093654,-0.00027201,0.00026512,0.00017200,0.00146003,-0.
 00194821,-0.04435181,-0.00061254,0.00158058,-0.00980128,-0.00103198,-0
 .00111418,0.00372093,0.00085776,-0.00185576,0.00539741,0.00216958,0.00
 187577,-0.01419522,-0.00000919,-0.00007383,0.00189307,0.00017810,-0.00
 006215,0.00185581,-0.00212681,-0.00407033,-0.00136360,-0.02697912,0.03
 946040,0.21702457,0.00697735,0.02033968,0.00246356,0.00313537,-0.00670
 393,-0.00124421,-0.00180397,0.00081831,-0.00040204,-0.09133464,0.00917
 793,0.00719432,-0.00534670,0.00047258,0.00040032,-0.00748602,0.0004246
 7,0.00059568,-0.00588937,-0.00553636,0.00032916,0.00304449,-0.01193363
 ,-0.00072792,-0.00037414,-0.00033934,0.00002511,-0.00063670,-0.0011215
 9,0.00002991,-0.02740433,-0.00152741,0.00053805,-0.35386979,0.20584670
 ,0.02256705,0.48306563,0.01570963,-0.06542978,-0.01125467,-0.00572989,
 -0.00082138,0.00012806,0.00467764,-0.00122928,0.00340280,0.00929603,0.
 00598388,-0.00061006,-0.02808732,-0.01587614,0.00073444,0.00557953,0.0
 0736341,-0.00046208,-0.00236066,0.00501595,0.00047367,-0.00702637,0.00
 315493,0.00058472,0.00051782,0.00013335,-0.00007707,-0.00022178,0.0007
 9036,0.00009710,0.01354380,0.05047616,0.00324755,0.18247890,-0.2543468
 2,-0.01482424,-0.26089257,0.33866014,0.00260880,-0.00637495,0.00819291
 ,-0.00143154,0.00042028,-0.00251555,-0.00082817,0.00141133,-0.00011682
 ,0.00745545,-0.00049279,0.01490925,-0.00002123,-0.00067151,0.00387669,
 0.00077795,0.00018498,0.00083891,0.00023488,0.00067357,-0.00085236,-0.
 00025799,0.00062461,0.00428042,0.00002317,0.00003321,-0.00024368,-0.00
 005229,0.00012711,-0.00094372,0.00157267,0.00009712,-0.01595926,0.0209
 6267,-0.01557712,-0.07947275,-0.03446918,0.02539110,0.04062823,0.00015
 111,0.00677318,0.00092113,0.00148033,-0.00205085,-0.00031471,-0.001007
 14,-0.00003172,-0.00023120,-0.00068134,-0.03995679,0.00020871,-0.00035
 687,0.00131083,0.00047837,-0.00247979,-0.00437769,0.00001873,0.0018522
 4,-0.00280161,-0.00034411,0.00406119,-0.00126345,-0.00025245,-0.000596
 08,-0.00031783,-0.00000514,-0.00003574,-0.00008978,-0.00002356,-0.0083
 4360,-0.01152584,-0.00002260,-0.10652156,0.09554221,0.00348358,-0.0020
 7718,0.07251523,0.00342480,0.11455443,0.00291045,-0.00768569,-0.001108
 63,-0.00261309,0.00255355,0.00036161,0.00018466,0.00076686,0.00073158,
 -0.02737913,-0.07006965,-0.00041336,-0.01216943,0.00135311,0.00080645,
 -0.00457896,-0.00242524,0.00026503,-0.00328886,-0.00527891,0.00014098,
 0.00592768,-0.00038705,-0.00060305,-0.00099706,-0.00014955,0.00011420,
 -0.00038668,-0.00035665,0.00003762,0.00126311,0.01281791,0.00070219,0.
 10387828,-0.74787412,-0.01955637,0.05097495,-0.07387479,-0.00584694,-0
 .11372591,0.89061021,-0.00024241,-0.00020039,-0.00083595,-0.00001541,0
 .00014912,0.00018214,0.00019312,-0.00014965,-0.00005563,0.00055390,0.0
 0087398,0.01535882,0.00014664,-0.00013869,0.00342673,-0.00002047,0.000
 28272,-0.00047089,-0.00027176,0.00005881,-0.00035718,0.00001278,0.0000
 1855,0.00168097,-0.00004467,0.00003765,-0.00074251,-0.00002908,0.00000
 176,-0.00026213,0.00068868,0.00105226,0.00193898,0.00367006,-0.0195235
 2,-0.08206686,0.00270018,-0.00683132,0.02737772,-0.00734155,0.02436871
 ,0.03482579\\0.00000235,0.00000722,0.00000302,-0.00000258,0.00000887,0
 .00000241,0.00000443,0.00000735,0.00000189,-0.00000065,0.00000078,-0.0
 0000190,0.00000457,-0.00000519,-0.00000058,0.00000077,-0.00000354,0.00
 000176,0.00000023,-0.00000715,-0.00000224,-0.00000404,-0.00000732,-0.0
 0000078,0.00000629,-0.00000508,-0.00000054,-0.00000067,-0.00001052,-0.
 00000109,0.00000914,0.00001095,-0.00000041,0.00000127,-0.00000113,0.00
 000167,-0.00001103,0.00000339,-0.00000250,-0.00001008,0.00000135,-0.00
 000071\\\@
 The archive entry for this job was punched.


 Any fool can criticize, condemn, and complain -- and most do.
 -- Dale Carnegie
 Job cpu time:       0 days  0 hours 30 minutes 55.2 seconds.
 Elapsed time:       0 days  0 hours  0 minutes 39.0 seconds.
 File lengths (MBytes):  RWF=     66 Int=      0 D2E=      0 Chk=      4 Scr=      1
 Normal termination of Gaussian 16 at Wed Dec  6 11:56:15 2023.
