 Entering Gaussian System, Link 0=/opt/soft/g16/g16
 Initial command:
 /opt/soft/g16/l1.exe "/scratch/gongke2021/TS/Gau-571.inp" -scrdir="/scratch/gongke2021/TS/"
 Entering Link 1 = /opt/soft/g16/l1.exe PID=       572.
  
 Copyright (c) 1988,1990,1992,1993,1995,1998,2003,2009,2016,
            Gaussian, Inc.  All Rights Reserved.
  
 This is part of the Gaussian(R) 16 program.  It is based on
 the Gaussian(R) 09 system (copyright 2009, Gaussian, Inc.),
 the Gaussian(R) 03 system (copyright 2003, Gaussian, Inc.),
 the Gaussian(R) 98 system (copyright 1998, Gaussian, Inc.),
 the Gaussian(R) 94 system (copyright 1995, Gaussian, Inc.),
 the Gaussian 92(TM) system (copyright 1992, Gaussian, Inc.),
 the Gaussian 90(TM) system (copyright 1990, Gaussian, Inc.),
 the Gaussian 88(TM) system (copyright 1988, Gaussian, Inc.),
 the Gaussian 86(TM) system (copyright 1986, Carnegie Mellon
 University), and the Gaussian 82(TM) system (copyright 1983,
 Carnegie Mellon University). Gaussian is a federally registered
 trademark of Gaussian, Inc.
  
 This software contains proprietary and confidential information,
 including trade secrets, belonging to Gaussian, Inc.
  
 This software is provided under written license and may be
 used, copied, transmitted, or stored only in accord with that
 written license.
  
 The following legend is applicable only to US Government
 contracts under FAR:
  
                    RESTRICTED RIGHTS LEGEND
  
 Use, reproduction and disclosure by the US Government is
 subject to restrictions as set forth in subparagraphs (a)
 and (c) of the Commercial Computer Software - Restricted
 Rights clause in FAR 52.227-19.
  
 Gaussian, Inc.
 340 Quinnipiac St., Bldg. 40, Wallingford CT 06492
  
  
 ---------------------------------------------------------------
 Warning -- This program may not be used in any manner that
 competes with the business of Gaussian, Inc. or will provide
 assistance to any competitor of Gaussian, Inc.  The licensee
 of this program is prohibited from giving any competitor of
 Gaussian, Inc. access to this program.  By using this program,
 the user acknowledges that Gaussian, Inc. is engaged in the
 business of creating and licensing software in the field of
 computational chemistry and represents and warrants to the
 licensee that it is not a competitor of Gaussian, Inc. and that
 it will not use this program in any manner prohibited above.
 ---------------------------------------------------------------
  

 Cite this work as:
 Gaussian 16, Revision A.03,
 M. J. Frisch, G. W. Trucks, H. B. Schlegel, G. E. Scuseria, 
 M. A. Robb, J. R. Cheeseman, G. Scalmani, V. Barone, 
 G. A. Petersson, H. Nakatsuji, X. Li, M. Caricato, A. V. Marenich, 
 J. Bloino, B. G. Janesko, R. Gomperts, B. Mennucci, H. P. Hratchian, 
 J. V. Ortiz, A. F. Izmaylov, J. L. Sonnenberg, D. Williams-Young, 
 F. Ding, F. Lipparini, F. Egidi, J. Goings, B. Peng, A. Petrone, 
 T. Henderson, D. Ranasinghe, V. G. Zakrzewski, J. Gao, N. Rega, 
 G. Zheng, W. Liang, M. Hada, M. Ehara, K. Toyota, R. Fukuda, 
 J. Hasegawa, M. Ishida, T. Nakajima, Y. Honda, O. Kitao, H. Nakai, 
 T. Vreven, K. Throssell, J. A. Montgomery, Jr., J. E. Peralta, 
 F. Ogliaro, M. J. Bearpark, J. J. Heyd, E. N. Brothers, K. N. Kudin, 
 V. N. Staroverov, T. A. Keith, R. Kobayashi, J. Normand, 
 K. Raghavachari, A. P. Rendell, J. C. Burant, S. S. Iyengar, 
 J. Tomasi, M. Cossi, J. M. Millam, M. Klene, C. Adamo, R. Cammi, 
 J. W. Ochterski, R. L. Martin, K. Morokuma, O. Farkas, 
 J. B. Foresman, and D. J. Fox, Gaussian, Inc., Wallingford CT, 2016.
 
 ******************************************
 Gaussian 16:  ES64L-G16RevA.03 25-Dec-2016
                27-May-2023 
 ******************************************
 %mem=10GB
 %nprocshared=30
 Will use up to   30 processors via shared memory.
 ----------------------------------------------------------------------
 # opt=(calcfc,ts,noeigentest) freq 6-31+g(d,p) integral=grid=ultrafine
  m062x
 ----------------------------------------------------------------------
 1/5=1,10=4,11=1,18=20,26=4,38=1/1,3;
 2/9=110,12=2,17=6,18=5,40=1/2;
 3/5=1,6=6,7=111,11=2,25=1,30=1,71=2,74=-55,75=-5,140=1/1,2,3;
 4//1;
 5/5=2,38=5/2;
 8/6=4,10=90,11=11/1;
 11/6=1,8=1,9=11,15=111,16=1/1,2,10;
 10/6=1,13=1/2;
 6/7=2,8=2,9=2,10=2,28=1/1;
 7/10=1,18=20,25=1/1,2,3,16;
 1/5=1,10=4,11=1,18=20,26=4/3(2);
 2/9=110/2;
 99//99;
 2/9=110/2;
 3/5=1,6=6,7=111,11=2,25=1,30=1,71=1,74=-55,75=-5/1,2,3;
 4/5=5,16=3,69=1/1;
 5/5=2,38=5/2;
 7//1,2,3,16;
 1/5=1,11=1,18=20,26=4/3(-5);
 2/9=110/2;
 6/7=2,8=2,9=2,10=2,19=2,28=1/1;
 99/9=1/99;
 --
 TS
 --
 Symbolic Z-matrix:
 Charge = -1 Multiplicity = 2
 N                     0.98948   0.45755   0.19668 
 N                     0.73196  -0.8449    0.63206 
 C                     1.82322  -1.58503   0.18486 
 C                     2.70081  -0.68282  -0.37301 
 N                     2.21202   0.57146  -0.38489 
 H                     1.89709  -2.64375   0.37271 
 H                     3.68718  -0.87696  -0.77247 
 H                    -0.67332  -1.47501   0.35779 
 C                    -0.07821   1.43454   0.1498 
 O                    -1.15839   0.9527    0.61601 
 O                     0.19021   2.54326  -0.29712 
 O                    -3.30834   0.10277  -0.37205 
 H                    -3.98393   0.33221   0.27145 
 H                    -2.24209   0.57812   0.06907 
 O                    -1.84858  -2.19146  -0.17992 
 H                    -1.63095  -2.36061  -1.1015 
 H                    -2.63764  -1.0854   -0.16451 
 
 Add virtual bond connecting atoms H14        and O12        Dist= 2.36D+00.
 Add virtual bond connecting atoms H14        and O10        Dist= 2.40D+00.
 Add virtual bond connecting atoms H17        and O15        Dist= 2.57D+00.
 Add virtual bond connecting atoms H17        and O12        Dist= 2.61D+00.
 Add virtual bond connecting atoms N2         and H8         Dist= 2.96D+00.
 Add virtual bond connecting atoms O15        and H8         Dist= 2.79D+00.

 GradGradGradGradGradGradGradGradGradGradGradGradGradGradGradGradGradGrad
 Berny optimization.
 Initialization pass.
                           ----------------------------
                           !    Initial Parameters    !
                           ! (Angstroms and Degrees)  !
 --------------------------                            --------------------------
 ! Name  Definition              Value          Derivative Info.                !
 --------------------------------------------------------------------------------
 ! R1    R(1,2)                  1.3972         calculate D2E/DX2 analytically  !
 ! R2    R(1,5)                  1.3586         calculate D2E/DX2 analytically  !
 ! R3    R(1,9)                  1.448          calculate D2E/DX2 analytically  !
 ! R4    R(2,3)                  1.3924         calculate D2E/DX2 analytically  !
 ! R5    R(2,8)                  1.5643         calculate D2E/DX2 analytically  !
 ! R6    R(3,4)                  1.3767         calculate D2E/DX2 analytically  !
 ! R7    R(3,6)                  1.0778         calculate D2E/DX2 analytically  !
 ! R8    R(4,5)                  1.3462         calculate D2E/DX2 analytically  !
 ! R9    R(4,7)                  1.0817         calculate D2E/DX2 analytically  !
 ! R10   R(8,15)                 1.4777         calculate D2E/DX2 analytically  !
 ! R11   R(9,10)                 1.2713         calculate D2E/DX2 analytically  !
 ! R12   R(9,11)                 1.2252         calculate D2E/DX2 analytically  !
 ! R13   R(10,14)                1.2704         calculate D2E/DX2 analytically  !
 ! R14   R(12,13)                0.9608         calculate D2E/DX2 analytically  !
 ! R15   R(12,14)                1.248          calculate D2E/DX2 analytically  !
 ! R16   R(12,17)                1.3801         calculate D2E/DX2 analytically  !
 ! R17   R(15,16)                0.9619         calculate D2E/DX2 analytically  !
 ! R18   R(15,17)                1.3588         calculate D2E/DX2 analytically  !
 ! A1    A(2,1,5)              112.1726         calculate D2E/DX2 analytically  !
 ! A2    A(2,1,9)              120.2081         calculate D2E/DX2 analytically  !
 ! A3    A(5,1,9)              126.3758         calculate D2E/DX2 analytically  !
 ! A4    A(1,2,3)              104.5351         calculate D2E/DX2 analytically  !
 ! A5    A(1,2,8)              119.1052         calculate D2E/DX2 analytically  !
 ! A6    A(3,2,8)              115.6993         calculate D2E/DX2 analytically  !
 ! A7    A(2,3,4)              106.3441         calculate D2E/DX2 analytically  !
 ! A8    A(2,3,6)              121.3253         calculate D2E/DX2 analytically  !
 ! A9    A(4,3,6)              132.1189         calculate D2E/DX2 analytically  !
 ! A10   A(3,4,5)              112.5013         calculate D2E/DX2 analytically  !
 ! A11   A(3,4,7)              127.8266         calculate D2E/DX2 analytically  !
 ! A12   A(5,4,7)              119.6712         calculate D2E/DX2 analytically  !
 ! A13   A(1,5,4)              104.1714         calculate D2E/DX2 analytically  !
 ! A14   A(1,9,10)             111.0325         calculate D2E/DX2 analytically  !
 ! A15   A(1,9,11)             117.4421         calculate D2E/DX2 analytically  !
 ! A16   A(10,9,11)            131.5207         calculate D2E/DX2 analytically  !
 ! A17   A(9,10,14)            132.7392         calculate D2E/DX2 analytically  !
 ! A18   A(13,12,14)           105.8466         calculate D2E/DX2 analytically  !
 ! A19   A(13,12,17)           116.5249         calculate D2E/DX2 analytically  !
 ! A20   A(14,12,17)            81.9266         calculate D2E/DX2 analytically  !
 ! A21   A(8,15,16)            104.7106         calculate D2E/DX2 analytically  !
 ! A22   A(8,15,17)             93.6157         calculate D2E/DX2 analytically  !
 ! A23   A(16,15,17)           106.5821         calculate D2E/DX2 analytically  !
 ! A24   L(2,8,15,10,-1)       187.1824         calculate D2E/DX2 analytically  !
 ! A25   L(10,14,12,8,-1)      175.464          calculate D2E/DX2 analytically  !
 ! A26   L(12,17,15,1,-1)      174.7463         calculate D2E/DX2 analytically  !
 ! A27   L(2,8,15,10,-2)       168.3847         calculate D2E/DX2 analytically  !
 ! A28   L(10,14,12,8,-2)      174.9539         calculate D2E/DX2 analytically  !
 ! A29   L(12,17,15,1,-2)      189.9101         calculate D2E/DX2 analytically  !
 ! D1    D(5,1,2,3)             -5.0749         calculate D2E/DX2 analytically  !
 ! D2    D(5,1,2,8)           -136.1517         calculate D2E/DX2 analytically  !
 ! D3    D(9,1,2,3)            162.9784         calculate D2E/DX2 analytically  !
 ! D4    D(9,1,2,8)             31.9016         calculate D2E/DX2 analytically  !
 ! D5    D(2,1,5,4)              2.8776         calculate D2E/DX2 analytically  !
 ! D6    D(9,1,5,4)           -164.285          calculate D2E/DX2 analytically  !
 ! D7    D(2,1,9,10)             3.9324         calculate D2E/DX2 analytically  !
 ! D8    D(2,1,9,11)          -176.7622         calculate D2E/DX2 analytically  !
 ! D9    D(5,1,9,10)           170.1587         calculate D2E/DX2 analytically  !
 ! D10   D(5,1,9,11)           -10.5359         calculate D2E/DX2 analytically  !
 ! D11   D(1,2,3,4)              5.061          calculate D2E/DX2 analytically  !
 ! D12   D(1,2,3,6)           -179.6215         calculate D2E/DX2 analytically  !
 ! D13   D(8,2,3,4)            138.0953         calculate D2E/DX2 analytically  !
 ! D14   D(8,2,3,6)            -46.5872         calculate D2E/DX2 analytically  !
 ! D15   D(1,2,15,16)           73.4413         calculate D2E/DX2 analytically  !
 ! D16   D(1,2,15,17)          -34.6008         calculate D2E/DX2 analytically  !
 ! D17   D(3,2,15,16)          -47.4575         calculate D2E/DX2 analytically  !
 ! D18   D(3,2,15,17)         -155.4996         calculate D2E/DX2 analytically  !
 ! D19   D(2,3,4,5)             -3.6873         calculate D2E/DX2 analytically  !
 ! D20   D(2,3,4,7)            175.9683         calculate D2E/DX2 analytically  !
 ! D21   D(6,3,4,5)           -178.2928         calculate D2E/DX2 analytically  !
 ! D22   D(6,3,4,7)              1.3627         calculate D2E/DX2 analytically  !
 ! D23   D(3,4,5,1)              0.5602         calculate D2E/DX2 analytically  !
 ! D24   D(7,4,5,1)           -179.1267         calculate D2E/DX2 analytically  !
 ! D25   D(1,9,10,14)         -107.0            calculate D2E/DX2 analytically  !
 ! D26   D(11,9,10,14)          73.8233         calculate D2E/DX2 analytically  !
 ! D27   D(9,10,12,13)        -146.9097         calculate D2E/DX2 analytically  !
 ! D28   D(9,10,12,17)          98.2306         calculate D2E/DX2 analytically  !
 ! D29   D(13,12,15,8)        -102.0397         calculate D2E/DX2 analytically  !
 ! D30   D(13,12,15,16)        152.3873         calculate D2E/DX2 analytically  !
 ! D31   D(14,12,15,8)           0.8919         calculate D2E/DX2 analytically  !
 ! D32   D(14,12,15,16)       -104.6812         calculate D2E/DX2 analytically  !
 --------------------------------------------------------------------------------
 Trust Radius=3.00D-01 FncErr=1.00D-07 GrdErr=1.00D-06 EigMax=2.50D+02 EigMin=1.00D-04
 Number of steps in this run=     89 maximum allowed number of steps=    102.
 Search for a saddle point of order  1.
 GradGradGradGradGradGradGradGradGradGradGradGradGradGradGradGradGradGrad

                          Input orientation:                          
 ---------------------------------------------------------------------
 Center     Atomic      Atomic             Coordinates (Angstroms)
 Number     Number       Type             X           Y           Z
 ---------------------------------------------------------------------
      1          7           0        0.989476    0.457547    0.196681
      2          7           0        0.731955   -0.844902    0.632061
      3          6           0        1.823222   -1.585030    0.184857
      4          6           0        2.700814   -0.682824   -0.373011
      5          7           0        2.212017    0.571464   -0.384894
      6          1           0        1.897091   -2.643753    0.372711
      7          1           0        3.687183   -0.876955   -0.772465
      8          1           0       -0.673323   -1.475008    0.357787
      9          6           0       -0.078210    1.434538    0.149802
     10          8           0       -1.158392    0.952699    0.616006
     11          8           0        0.190214    2.543258   -0.297119
     12          8           0       -3.308336    0.102767   -0.372054
     13          1           0       -3.983934    0.332210    0.271454
     14          1           0       -2.242092    0.578115    0.069067
     15          8           0       -1.848580   -2.191460   -0.179922
     16          1           0       -1.630953   -2.360605   -1.101499
     17          1           0       -2.637639   -1.085401   -0.164513
 ---------------------------------------------------------------------
                    Distance matrix (angstroms):
                    1          2          3          4          5
     1  N    0.000000
     2  N    1.397228   0.000000
     3  C    2.206217   1.392352   0.000000
     4  C    2.133934   2.216494   1.376721   0.000000
     5  N    1.358607   2.287110   2.264121   1.346218   0.000000
     6  H    3.236173   2.158858   1.077794   2.246623   3.318247
     7  H    3.161924   3.272169   2.211829   1.081746   2.103389
     8  H    2.554530   1.564310   2.504944   3.542092   3.614527
     9  C    1.447986   2.466736   3.568538   3.532638   2.505182
    10  O    2.243735   2.608647   3.939033   4.306572   3.536495
    11  O    2.287542   3.554784   4.465622   4.088579   2.825485
    12  O    4.349772   4.269693   5.430626   6.060284   5.540229
    13  H    4.975551   4.873935   6.116075   6.792016   6.235210
    14  H    3.236334   3.344682   4.606451   5.120325   4.477188
    15  O    3.900465   3.021870   3.739378   4.796900   4.915711
    16  H    4.061268   3.299382   3.766637   4.702111   4.886611
    17  H    3.958170   3.470811   4.502329   5.357669   5.129613
                    6          7          8          9         10
     6  H    0.000000
     7  H    2.763591   0.000000
     8  H    2.823688   4.544133   0.000000
     9  C    4.536955   4.513509   2.977058   0.000000
    10  O    4.725424   5.362377   2.489122   1.271341   0.000000
    11  O    5.501562   4.914530   4.161857   1.225173   2.276491
    12  O    5.932497   7.075130   3.156792   3.532656   2.514141
    13  H    6.591894   7.835680   3.772749   4.060124   2.913316
    14  H    5.254091   6.162931   2.599945   2.328597   1.270378
    15  O    3.813138   5.720463   1.477723   4.048554   3.315961
    16  H    3.834131   5.531008   1.957256   4.287176   3.761798
    17  H    4.825023   6.357391   2.069572   3.605491   2.636519
                   11         12         13         14         15
    11  O    0.000000
    12  O    4.266317   0.000000
    13  H    4.757680   0.960822   0.000000
    14  H    3.148332   1.247966   1.770718   0.000000
    15  O    5.156352   2.726037   3.336523   2.808451   0.000000
    16  H    5.292594   3.068209   3.830505   3.221769   0.961913
    17  H    4.602337   1.380091   2.003048   1.725777   1.358756
                   16         17
    16  H    0.000000
    17  H    1.875501   0.000000
 Stoichiometry    C3H7N3O4(1-,2)
 Framework group  C1[X(C3H7N3O4)]
 Deg. of freedom    45
 Full point group                 C1      NOp   1
 Largest Abelian subgroup         C1      NOp   1
 Largest concise Abelian subgroup C1      NOp   1
                         Standard orientation:                         
 ---------------------------------------------------------------------
 Center     Atomic      Atomic             Coordinates (Angstroms)
 Number     Number       Type             X           Y           Z
 ---------------------------------------------------------------------
      1          7           0        0.994562    0.455945    0.197974
      2          7           0        0.734442   -0.846196    0.632730
      3          6           0        1.825495   -1.587785    0.187428
      4          6           0        2.705353   -0.686732   -0.368733
      5          7           0        2.218318    0.568234   -0.381358
      6          1           0        1.897553   -2.646631    0.375292
      7          1           0        3.692178   -0.882185   -0.766411
      8          1           0       -0.671206   -1.474320    0.355821
      9          6           0       -0.071681    1.434421    0.149265
     10          8           0       -1.153378    0.954027    0.613443
     11          8           0        0.199094    2.542820   -0.297035
     12          8           0       -3.302694    0.107192   -0.378634
     13          1           0       -3.979145    0.337497    0.263668
     14          1           0       -2.236598    0.581010    0.064486
     15          8           0       -1.846474   -2.189080   -0.184113
     16          1           0       -1.627402   -2.358420   -1.105312
     17          1           0       -2.634024   -1.081929   -0.170012
 ---------------------------------------------------------------------
 Rotational constants (GHZ):           1.6161640           0.9352484           0.6261068
 Standard basis: 6-31+G(d,p) (6D, 7F)
 There are   225 symmetry adapted cartesian basis functions of A   symmetry.
 There are   225 symmetry adapted basis functions of A   symmetry.
   225 basis functions,   369 primitive gaussians,   225 cartesian basis functions
    40 alpha electrons       39 beta electrons
       nuclear repulsion energy       548.5305088077 Hartrees.
 NAtoms=   17 NActive=   17 NUniq=   17 SFac= 1.00D+00 NAtFMM=   60 NAOKFM=F Big=F
 Integral buffers will be    131072 words long.
 Raffenetti 2 integral format.
 Two-electron integral symmetry is turned on.
 One-electron integrals computed using PRISM.
 NBasis=   225 RedAO= T EigKep=  3.10D-05  NBF=   225
 NBsUse=   225 1.00D-06 EigRej= -1.00D+00 NBFU=   225
 ExpMin= 4.38D-02 ExpMax= 5.48D+03 ExpMxC= 8.25D+02 IAcc=3 IRadAn=         5 AccDes= 0.00D+00
 Harris functional with IExCor= 1009 and IRadAn=       5 diagonalized for initial guess.
 HarFok:  IExCor= 1009 AccDes= 0.00D+00 IRadAn=         5 IDoV= 1 UseB2=F ITyADJ=14
 ICtDFT=  3500011 ScaDFX=  1.000000  1.000000  1.000000  1.000000
 FoFCou: FMM=F IPFlag=           0 FMFlag=      100000 FMFlg1=           0
         NFxFlg=           0 DoJE=T BraDBF=F KetDBF=T FulRan=T
         wScrn=  0.000000 ICntrl=       500 IOpCl=  0 I1Cent=   200000004 NGrid=           0
         NMat0=    1 NMatS0=      1 NMatT0=    0 NMatD0=    1 NMtDS0=    0 NMtDT0=    0
 Petite list used in FoFCou.
 Initial guess <Sx>= 0.0000 <Sy>= 0.0000 <Sz>= 0.5000 <S**2>= 0.7500 S= 0.5000
 Requested convergence on RMS density matrix=1.00D-08 within 128 cycles.
 Requested convergence on MAX density matrix=1.00D-06.
 Requested convergence on             energy=1.00D-06.
 No special actions if energy rises.
 SCF Done:  E(UM062X) =  -583.403040031     A.U. after   20 cycles
            NFock= 20  Conv=0.46D-08     -V/T= 2.0093
 <Sx>= 0.0000 <Sy>= 0.0000 <Sz>= 0.5000 <S**2>= 0.7640 S= 0.5070
 <L.S>=  0.00000000000    
 Annihilation of the first spin contaminant:
 S**2 before annihilation     0.7640,   after     0.7501
 DoSCS=F DFT=T ScalE2(SS,OS)=  1.000000  1.000000
 Range of M.O.s used for correlation:     1   225
 NBasis=   225 NAE=    40 NBE=    39 NFC=     0 NFV=     0
 NROrb=    225 NOA=    40 NOB=    39 NVA=   185 NVB=   186

 **** Warning!!: The largest alpha MO coefficient is  0.52567723D+02


 **** Warning!!: The largest beta MO coefficient is  0.52259016D+02

 Symmetrizing basis deriv contribution to polar:
 IMax=3 JMax=2 DiffMx= 0.00D+00
 G2DrvN: will do    18 centers at a time, making    1 passes.
 Calling FoFCou, ICntrl=  3107 FMM=F I1Cent=   0 AccDes= 0.00D+00.
 End of G2Drv F.D. properties file   721 does not exist.
 End of G2Drv F.D. properties file   722 does not exist.
 End of G2Drv F.D. properties file   788 does not exist.
          IDoAtm=11111111111111111
          Differentiating once with respect to nuclear coordinates.
 Keep R1 and R2 ints in memory in canonical form, NReq=678009681.
          There are    54 degrees of freedom in the 1st order CPHF.  IDoFFX=6 NUNeed=     0.
     48 vectors produced by pass  0 Test12= 2.71D-14 1.85D-09 XBig12= 3.15D-01 1.03D-01.
 AX will form    48 AO Fock derivatives at one time.
     48 vectors produced by pass  1 Test12= 2.71D-14 1.85D-09 XBig12= 5.59D-02 6.07D-02.
     48 vectors produced by pass  2 Test12= 2.71D-14 1.85D-09 XBig12= 2.75D-03 8.67D-03.
     48 vectors produced by pass  3 Test12= 2.71D-14 1.85D-09 XBig12= 4.63D-05 1.17D-03.
     48 vectors produced by pass  4 Test12= 2.71D-14 1.85D-09 XBig12= 5.76D-07 7.99D-05.
     48 vectors produced by pass  5 Test12= 2.71D-14 1.85D-09 XBig12= 5.44D-09 7.05D-06.
     48 vectors produced by pass  6 Test12= 2.71D-14 1.85D-09 XBig12= 5.14D-11 6.53D-07.
     33 vectors produced by pass  7 Test12= 2.71D-14 1.85D-09 XBig12= 4.83D-13 7.45D-08.
      7 vectors produced by pass  8 Test12= 2.71D-14 1.85D-09 XBig12= 3.87D-15 5.28D-09.
 InvSVY:  IOpt=1 It=  1 EMax= 4.44D-16
 Solved reduced A of dimension   376 with    54 vectors.
 End of Minotr F.D. properties file   721 does not exist.
 End of Minotr F.D. properties file   722 does not exist.
 End of Minotr F.D. properties file   788 does not exist.

 **********************************************************************

            Population analysis using the SCF density.

 **********************************************************************

 Orbital symmetries:
 Alpha Orbitals:
       Occupied  (A) (A) (A) (A) (A) (A) (A) (A) (A) (A) (A) (A)
                 (A) (A) (A) (A) (A) (A) (A) (A) (A) (A) (A) (A)
                 (A) (A) (A) (A) (A) (A) (A) (A) (A) (A) (A) (A)
                 (A) (A) (A) (A)
       Virtual   (A) (A) (A) (A) (A) (A) (A) (A) (A) (A) (A) (A)
                 (A) (A) (A) (A) (A) (A) (A) (A) (A) (A) (A) (A)
                 (A) (A) (A) (A) (A) (A) (A) (A) (A) (A) (A) (A)
                 (A) (A) (A) (A) (A) (A) (A) (A) (A) (A) (A) (A)
                 (A) (A) (A) (A) (A) (A) (A) (A) (A) (A) (A) (A)
                 (A) (A) (A) (A) (A) (A) (A) (A) (A) (A) (A) (A)
                 (A) (A) (A) (A) (A) (A) (A) (A) (A) (A) (A) (A)
                 (A) (A) (A) (A) (A) (A) (A) (A) (A) (A) (A) (A)
                 (A) (A) (A) (A) (A) (A) (A) (A) (A) (A) (A) (A)
                 (A) (A) (A) (A) (A) (A) (A) (A) (A) (A) (A) (A)
                 (A) (A) (A) (A) (A) (A) (A) (A) (A) (A) (A) (A)
                 (A) (A) (A) (A) (A) (A) (A) (A) (A) (A) (A) (A)
                 (A) (A) (A) (A) (A) (A) (A) (A) (A) (A) (A) (A)
                 (A) (A) (A) (A) (A) (A) (A) (A) (A) (A) (A) (A)
                 (A) (A) (A) (A) (A) (A) (A) (A) (A) (A) (A) (A)
                 (A) (A) (A) (A) (A)
 Beta  Orbitals:
       Occupied  (A) (A) (A) (A) (A) (A) (A) (A) (A) (A) (A) (A)
                 (A) (A) (A) (A) (A) (A) (A) (A) (A) (A) (A) (A)
                 (A) (A) (A) (A) (A) (A) (A) (A) (A) (A) (A) (A)
                 (A) (A) (A)
       Virtual   (A) (A) (A) (A) (A) (A) (A) (A) (A) (A) (A) (A)
                 (A) (A) (A) (A) (A) (A) (A) (A) (A) (A) (A) (A)
                 (A) (A) (A) (A) (A) (A) (A) (A) (A) (A) (A) (A)
                 (A) (A) (A) (A) (A) (A) (A) (A) (A) (A) (A) (A)
                 (A) (A) (A) (A) (A) (A) (A) (A) (A) (A) (A) (A)
                 (A) (A) (A) (A) (A) (A) (A) (A) (A) (A) (A) (A)
                 (A) (A) (A) (A) (A) (A) (A) (A) (A) (A) (A) (A)
                 (A) (A) (A) (A) (A) (A) (A) (A) (A) (A) (A) (A)
                 (A) (A) (A) (A) (A) (A) (A) (A) (A) (A) (A) (A)
                 (A) (A) (A) (A) (A) (A) (A) (A) (A) (A) (A) (A)
                 (A) (A) (A) (A) (A) (A) (A) (A) (A) (A) (A) (A)
                 (A) (A) (A) (A) (A) (A) (A) (A) (A) (A) (A) (A)
                 (A) (A) (A) (A) (A) (A) (A) (A) (A) (A) (A) (A)
                 (A) (A) (A) (A) (A) (A) (A) (A) (A) (A) (A) (A)
                 (A) (A) (A) (A) (A) (A) (A) (A) (A) (A) (A) (A)
                 (A) (A) (A) (A) (A) (A)
 The electronic state is 2-A.
 Alpha  occ. eigenvalues --  -19.53902 -19.53850 -19.47855 -19.45018 -14.68901
 Alpha  occ. eigenvalues --  -14.64969 -14.61893 -10.53639 -10.42385 -10.42272
 Alpha  occ. eigenvalues --   -1.05938  -1.00881  -0.99683  -0.97241  -0.94689
 Alpha  occ. eigenvalues --   -0.81363  -0.76542  -0.59595  -0.53860  -0.51247
 Alpha  occ. eigenvalues --   -0.47977  -0.45670  -0.42782  -0.41145  -0.38812
 Alpha  occ. eigenvalues --   -0.37517  -0.35905  -0.35588  -0.33835  -0.32299
 Alpha  occ. eigenvalues --   -0.30837  -0.26754  -0.25412  -0.22448  -0.21846
 Alpha  occ. eigenvalues --   -0.20693  -0.20264  -0.18311  -0.18280  -0.00684
 Alpha virt. eigenvalues --    0.13250   0.13992   0.15357   0.17365   0.17769
 Alpha virt. eigenvalues --    0.18522   0.19027   0.20333   0.20821   0.21154
 Alpha virt. eigenvalues --    0.22749   0.23551   0.24525   0.25819   0.26773
 Alpha virt. eigenvalues --    0.27173   0.28350   0.29010   0.30702   0.31521
 Alpha virt. eigenvalues --    0.32553   0.32837   0.34259   0.35048   0.35672
 Alpha virt. eigenvalues --    0.36404   0.36697   0.37550   0.37991   0.39085
 Alpha virt. eigenvalues --    0.39377   0.40042   0.40653   0.40728   0.41460
 Alpha virt. eigenvalues --    0.42820   0.44296   0.44851   0.45312   0.45887
 Alpha virt. eigenvalues --    0.46515   0.47136   0.47760   0.48689   0.49823
 Alpha virt. eigenvalues --    0.50995   0.51889   0.53761   0.54643   0.56672
 Alpha virt. eigenvalues --    0.58172   0.58719   0.61431   0.63129   0.66098
 Alpha virt. eigenvalues --    0.69589   0.83118   0.85233   0.89754   0.92726
 Alpha virt. eigenvalues --    0.99536   0.99561   1.03945   1.05044   1.06696
 Alpha virt. eigenvalues --    1.08322   1.09649   1.12985   1.13151   1.14457
 Alpha virt. eigenvalues --    1.16095   1.16478   1.19050   1.21712   1.22292
 Alpha virt. eigenvalues --    1.23751   1.25504   1.27517   1.29259   1.31377
 Alpha virt. eigenvalues --    1.32326   1.33537   1.33961   1.34452   1.38600
 Alpha virt. eigenvalues --    1.39091   1.42177   1.43335   1.43980   1.45926
 Alpha virt. eigenvalues --    1.48265   1.50556   1.50827   1.51444   1.53479
 Alpha virt. eigenvalues --    1.54690   1.55355   1.57323   1.58032   1.59448
 Alpha virt. eigenvalues --    1.60893   1.63582   1.64485   1.67603   1.69685
 Alpha virt. eigenvalues --    1.71931   1.72362   1.74525   1.77349   1.78476
 Alpha virt. eigenvalues --    1.79406   1.81963   1.83059   1.89586   1.93202
 Alpha virt. eigenvalues --    1.96244   2.00712   2.01817   2.03594   2.04941
 Alpha virt. eigenvalues --    2.07712   2.09230   2.14413   2.14763   2.17975
 Alpha virt. eigenvalues --    2.19817   2.21979   2.24540   2.25891   2.29865
 Alpha virt. eigenvalues --    2.32050   2.35721   2.39749   2.40509   2.42236
 Alpha virt. eigenvalues --    2.43757   2.44806   2.47272   2.49378   2.51381
 Alpha virt. eigenvalues --    2.52453   2.56376   2.58943   2.62017   2.63342
 Alpha virt. eigenvalues --    2.66866   2.69316   2.71157   2.72166   2.75664
 Alpha virt. eigenvalues --    2.80968   2.83255   2.83971   2.87276   2.88563
 Alpha virt. eigenvalues --    2.92253   2.97203   2.97997   3.00593   3.03938
 Alpha virt. eigenvalues --    3.07198   3.09519   3.11694   3.22832   3.26351
 Alpha virt. eigenvalues --    3.28451   3.33160   3.41528   3.42619   3.44753
 Alpha virt. eigenvalues --    3.47855   3.61360   3.78992   3.86470   3.92597
 Alpha virt. eigenvalues --    4.19404   4.29147   4.42267   4.45614   4.50617
 Alpha virt. eigenvalues --    4.55414   4.57468   4.74497   4.81548   4.92330
  Beta  occ. eigenvalues --  -19.53898 -19.53786 -19.47838 -19.44882 -14.68580
  Beta  occ. eigenvalues --  -14.64535 -14.61420 -10.53622 -10.42459 -10.42146
  Beta  occ. eigenvalues --   -1.05385  -1.00360  -0.99366  -0.97071  -0.94424
  Beta  occ. eigenvalues --   -0.79918  -0.75674  -0.58812  -0.53284  -0.51060
  Beta  occ. eigenvalues --   -0.47225  -0.45431  -0.42583  -0.39747  -0.38021
  Beta  occ. eigenvalues --   -0.37216  -0.35591  -0.35069  -0.33190  -0.31583
  Beta  occ. eigenvalues --   -0.30425  -0.26690  -0.24380  -0.22140  -0.20336
  Beta  occ. eigenvalues --   -0.19572  -0.17939  -0.16502  -0.15764
  Beta virt. eigenvalues --    0.12561   0.13898   0.14558   0.14971   0.16751
  Beta virt. eigenvalues --    0.17384   0.18241   0.19045   0.19891   0.19961
  Beta virt. eigenvalues --    0.21090   0.22768   0.23580   0.23980   0.25619
  Beta virt. eigenvalues --    0.26593   0.27862   0.28449   0.29290   0.30471
  Beta virt. eigenvalues --    0.31725   0.32576   0.32897   0.34226   0.35045
  Beta virt. eigenvalues --    0.35619   0.36463   0.36668   0.37511   0.37902
  Beta virt. eigenvalues --    0.39089   0.39520   0.39716   0.40536   0.40692
  Beta virt. eigenvalues --    0.41736   0.42857   0.44110   0.44796   0.45304
  Beta virt. eigenvalues --    0.45875   0.46501   0.46972   0.47969   0.48869
  Beta virt. eigenvalues --    0.49757   0.50656   0.51854   0.53723   0.54612
  Beta virt. eigenvalues --    0.56722   0.58100   0.58850   0.61448   0.63446
  Beta virt. eigenvalues --    0.66190   0.69899   0.83411   0.85428   0.89149
  Beta virt. eigenvalues --    0.93670   0.99645   0.99790   1.04076   1.05187
  Beta virt. eigenvalues --    1.06784   1.08730   1.09732   1.13420   1.13485
  Beta virt. eigenvalues --    1.15461   1.16744   1.17262   1.20547   1.22055
  Beta virt. eigenvalues --    1.22731   1.24024   1.25705   1.27543   1.29516
  Beta virt. eigenvalues --    1.31673   1.32433   1.33704   1.34162   1.34644
  Beta virt. eigenvalues --    1.38873   1.39339   1.42271   1.43474   1.44070
  Beta virt. eigenvalues --    1.46126   1.48502   1.50976   1.51090   1.51913
  Beta virt. eigenvalues --    1.53611   1.54925   1.55592   1.57569   1.58557
  Beta virt. eigenvalues --    1.59792   1.61561   1.63694   1.64795   1.68170
  Beta virt. eigenvalues --    1.69801   1.72347   1.72661   1.74592   1.77493
  Beta virt. eigenvalues --    1.78971   1.79545   1.82088   1.83169   1.89655
  Beta virt. eigenvalues --    1.93354   1.96462   2.01027   2.02044   2.03918
  Beta virt. eigenvalues --    2.05108   2.07952   2.09579   2.14806   2.14910
  Beta virt. eigenvalues --    2.18274   2.20074   2.22248   2.24826   2.26213
  Beta virt. eigenvalues --    2.30281   2.32456   2.36068   2.40394   2.40920
  Beta virt. eigenvalues --    2.42531   2.44041   2.45222   2.47613   2.49823
  Beta virt. eigenvalues --    2.51579   2.52548   2.56670   2.59153   2.62223
  Beta virt. eigenvalues --    2.63636   2.67140   2.69575   2.71479   2.72678
  Beta virt. eigenvalues --    2.76246   2.80985   2.83735   2.84348   2.87532
  Beta virt. eigenvalues --    2.88824   2.92728   2.97347   2.98216   3.00658
  Beta virt. eigenvalues --    3.04377   3.07425   3.10080   3.12186   3.23120
  Beta virt. eigenvalues --    3.26823   3.28757   3.33496   3.41731   3.42789
  Beta virt. eigenvalues --    3.44973   3.48097   3.61420   3.78999   3.86827
  Beta virt. eigenvalues --    3.92631   4.19762   4.29208   4.42292   4.45758
  Beta virt. eigenvalues --    4.50634   4.55524   4.57716   4.74939   4.82032
  Beta virt. eigenvalues --    4.92329
          Condensed to atoms (all electrons):
               1          2          3          4          5          6
     1  N    8.754772  -0.874155   0.324381  -0.269141  -0.451516  -0.005842
     2  N   -0.874155   8.547719  -0.598222   0.476299  -0.520370  -0.031996
     3  C    0.324381  -0.598222   6.576603  -0.519662   0.247031   0.365281
     4  C   -0.269141   0.476299  -0.519662   6.068637  -0.025833   0.000761
     5  N   -0.451516  -0.520370   0.247031  -0.025833   8.201030  -0.002153
     6  H   -0.005842  -0.031996   0.365281   0.000761  -0.002153   0.540850
     7  H   -0.018231   0.001513  -0.027743   0.388024  -0.038504   0.000376
     8  H   -0.065588   0.258876  -0.055844   0.027664   0.003462  -0.000893
     9  C    0.067948   0.096256  -0.077808   0.029999  -0.057126   0.000694
    10  O   -0.249895   0.056872  -0.051363   0.028589  -0.174724  -0.000031
    11  O   -0.049252  -0.036362   0.013579  -0.017422  -0.015231  -0.000009
    12  O    0.015980  -0.010730   0.007367  -0.003558   0.001964  -0.000006
    13  H   -0.000313   0.000397  -0.000179   0.000116  -0.000061   0.000000
    14  H    0.013257   0.001963  -0.001619   0.001059   0.003782  -0.000000
    15  O   -0.005794  -0.076584   0.013613  -0.002214   0.005807   0.000731
    16  H   -0.001736   0.004828   0.001249   0.000391  -0.000012  -0.000058
    17  H    0.000893  -0.002273  -0.002332   0.000817  -0.000992   0.000002
               7          8          9         10         11         12
     1  N   -0.018231  -0.065588   0.067948  -0.249895  -0.049252   0.015980
     2  N    0.001513   0.258876   0.096256   0.056872  -0.036362  -0.010730
     3  C   -0.027743  -0.055844  -0.077808  -0.051363   0.013579   0.007367
     4  C    0.388024   0.027664   0.029999   0.028589  -0.017422  -0.003558
     5  N   -0.038504   0.003462  -0.057126  -0.174724  -0.015231   0.001964
     6  H    0.000376  -0.000893   0.000694  -0.000031  -0.000009  -0.000006
     7  H    0.574524  -0.000030   0.001156  -0.000007  -0.000040  -0.000000
     8  H   -0.000030   0.357877   0.012424  -0.001693   0.000266   0.001012
     9  C    0.001156   0.012424   4.426159   0.325875   0.504182  -0.005693
    10  O   -0.000007  -0.001693   0.325875   8.973787  -0.150559  -0.098553
    11  O   -0.000040   0.000266   0.504182  -0.150559   8.296543   0.003294
    12  O   -0.000000   0.001012  -0.005693  -0.098553   0.003294   8.577910
    13  H   -0.000000  -0.000018  -0.000589   0.003316   0.000010   0.270477
    14  H   -0.000000   0.001734  -0.010662   0.105710   0.002163   0.115648
    15  O    0.000034   0.052108  -0.007857   0.013537  -0.000948  -0.116243
    16  H   -0.000001  -0.006218  -0.000802  -0.002065   0.000052   0.008409
    17  H   -0.000000  -0.003103   0.000240   0.008135   0.000069   0.120670
              13         14         15         16         17
     1  N   -0.000313   0.013257  -0.005794  -0.001736   0.000893
     2  N    0.000397   0.001963  -0.076584   0.004828  -0.002273
     3  C   -0.000179  -0.001619   0.013613   0.001249  -0.002332
     4  C    0.000116   0.001059  -0.002214   0.000391   0.000817
     5  N   -0.000061   0.003782   0.005807  -0.000012  -0.000992
     6  H    0.000000  -0.000000   0.000731  -0.000058   0.000002
     7  H   -0.000000  -0.000000   0.000034  -0.000001  -0.000000
     8  H   -0.000018   0.001734   0.052108  -0.006218  -0.003103
     9  C   -0.000589  -0.010662  -0.007857  -0.000802   0.000240
    10  O    0.003316   0.105710   0.013537  -0.002065   0.008135
    11  O    0.000010   0.002163  -0.000948   0.000052   0.000069
    12  O    0.270477   0.115648  -0.116243   0.008409   0.120670
    13  H    0.353831  -0.010302   0.005900  -0.000053  -0.009873
    14  H   -0.010302   0.243180   0.004053  -0.000118  -0.008171
    15  O    0.005900   0.004053   8.597784   0.268925   0.145413
    16  H   -0.000053  -0.000118   0.268925   0.355032  -0.014464
    17  H   -0.009873  -0.008171   0.145413  -0.014464   0.263369
          Atomic-Atomic Spin Densities.
               1          2          3          4          5          6
     1  N    0.555334  -0.285165   0.256747  -0.092501  -0.325212  -0.003279
     2  N   -0.285165   0.544004  -0.314217   0.022155   0.221906   0.002517
     3  C    0.256747  -0.314217   0.538904  -0.021325  -0.181360  -0.006845
     4  C   -0.092501   0.022155  -0.021325  -0.061785   0.005275   0.007162
     5  N   -0.325212   0.221906  -0.181360   0.005275   0.639593   0.000798
     6  H   -0.003279   0.002517  -0.006845   0.007162   0.000798  -0.010497
     7  H    0.002377   0.000134   0.000889   0.001569  -0.003910   0.000015
     8  H   -0.062294   0.090175  -0.043145   0.019872   0.007019   0.000468
     9  C    0.051380  -0.004675  -0.015878   0.006634   0.001538   0.000099
    10  O   -0.015964   0.005894   0.000549  -0.001856   0.007486   0.000016
    11  O   -0.010873  -0.004532   0.001664  -0.003405   0.004324  -0.000005
    12  O    0.005695  -0.006648   0.001945  -0.000612  -0.001103  -0.000002
    13  H   -0.000101   0.000158  -0.000031   0.000006   0.000011   0.000000
    14  H   -0.006788   0.008005  -0.002351   0.000907   0.000804   0.000001
    15  O    0.027571  -0.039346   0.020451  -0.007751  -0.004264  -0.000293
    16  H   -0.001708   0.003126  -0.001969   0.000698   0.000161   0.000011
    17  H   -0.000919   0.001314  -0.000394   0.000091   0.000078   0.000000
               7          8          9         10         11         12
     1  N    0.002377  -0.062294   0.051380  -0.015964  -0.010873   0.005695
     2  N    0.000134   0.090175  -0.004675   0.005894  -0.004532  -0.006648
     3  C    0.000889  -0.043145  -0.015878   0.000549   0.001664   0.001945
     4  C    0.001569   0.019872   0.006634  -0.001856  -0.003405  -0.000612
     5  N   -0.003910   0.007019   0.001538   0.007486   0.004324  -0.001103
     6  H    0.000015   0.000468   0.000099   0.000016  -0.000005  -0.000002
     7  H    0.002664   0.000001  -0.000078   0.000005   0.000001  -0.000000
     8  H    0.000001   0.073309   0.005662  -0.001942  -0.000644  -0.002074
     9  C   -0.000078   0.005662   0.033450  -0.004505  -0.027779  -0.001975
    10  O    0.000005  -0.001942  -0.004505   0.008597   0.004205   0.001434
    11  O    0.000001  -0.000644  -0.027779   0.004205   0.101944   0.000257
    12  O   -0.000000  -0.002074  -0.001975   0.001434   0.000257   0.005653
    13  H    0.000000   0.000028   0.000162  -0.000180  -0.000006  -0.000323
    14  H    0.000000   0.001810   0.001503  -0.000056  -0.000667  -0.005065
    15  O   -0.000003  -0.030850  -0.003518   0.001777   0.000303   0.002272
    16  H    0.000000   0.000585   0.000353  -0.000061  -0.000006  -0.000135
    17  H    0.000000   0.000602   0.000314   0.000137  -0.000019  -0.000676
              13         14         15         16         17
     1  N   -0.000101  -0.006788   0.027571  -0.001708  -0.000919
     2  N    0.000158   0.008005  -0.039346   0.003126   0.001314
     3  C   -0.000031  -0.002351   0.020451  -0.001969  -0.000394
     4  C    0.000006   0.000907  -0.007751   0.000698   0.000091
     5  N    0.000011   0.000804  -0.004264   0.000161   0.000078
     6  H    0.000000   0.000001  -0.000293   0.000011   0.000000
     7  H    0.000000   0.000000  -0.000003   0.000000   0.000000
     8  H    0.000028   0.001810  -0.030850   0.000585   0.000602
     9  C    0.000162   0.001503  -0.003518   0.000353   0.000314
    10  O   -0.000180  -0.000056   0.001777  -0.000061   0.000137
    11  O   -0.000006  -0.000667   0.000303  -0.000006  -0.000019
    12  O   -0.000323  -0.005065   0.002272  -0.000135  -0.000676
    13  H    0.000142   0.000311  -0.000030   0.000002   0.000080
    14  H    0.000311   0.005991  -0.001540   0.000041   0.000393
    15  O   -0.000030  -0.001540   0.046066  -0.000191  -0.000775
    16  H    0.000002   0.000041  -0.000191  -0.000301   0.000105
    17  H    0.000080   0.000393  -0.000775   0.000105   0.000493
 Mulliken charges and spin densities:
               1          2
     1  N   -0.185766   0.094301
     2  N   -0.294032   0.244807
     3  C   -0.214332   0.233635
     4  C   -0.184526  -0.124869
     5  N   -0.176555   0.373143
     6  H    0.132293  -0.009834
     7  H    0.118928   0.003664
     8  H    0.417963   0.058582
     9  C    0.695603   0.042687
    10  O   -0.786930   0.005538
    11  O   -0.550334   0.064761
    12  O   -0.887947  -0.001356
    13  H    0.387339   0.000230
    14  H    0.538322   0.003298
    15  O   -0.898266   0.009878
    16  H    0.386641   0.000711
    17  H    0.501597   0.000824
 Sum of Mulliken charges =  -1.00000   1.00000
 Mulliken charges and spin densities with hydrogens summed into heavy atoms:
               1          2
     1  N   -0.185766   0.094301
     2  N   -0.294032   0.244807
     3  C   -0.082039   0.223801
     4  C   -0.065598  -0.121205
     5  N   -0.176555   0.373143
     9  C    0.695603   0.042687
    10  O   -0.786930   0.005538
    11  O   -0.550334   0.064761
    12  O    0.037714   0.002172
    15  O    0.407936   0.069995
 APT charges:
               1
     1  N   -0.617257
     2  N   -0.299325
     3  C   -0.642798
     4  C   -0.446360
     5  N   -0.167980
     6  H    0.583839
     7  H    0.727637
     8  H    0.409435
     9  C    0.171002
    10  O   -0.573390
    11  O   -0.234706
    12  O   -1.231898
    13  H    0.883923
    14  H    0.428847
    15  O   -0.888341
    16  H    0.496258
    17  H    0.401113
 Sum of APT charges =  -1.00000
 APT charges with hydrogens summed into heavy atoms:
               1
     1  N   -0.617257
     2  N   -0.299325
     3  C   -0.058959
     4  C    0.281277
     5  N   -0.167980
     9  C    0.171002
    10  O   -0.573390
    11  O   -0.234706
    12  O    0.080873
    15  O    0.418465
 Electronic spatial extent (au):  <R**2>=           1768.6583
 Charge=             -1.0000 electrons
 Dipole moment (field-independent basis, Debye):
    X=             -2.3118    Y=             -4.8012    Z=             -0.1257  Tot=              5.3302
 Quadrupole moment (field-independent basis, Debye-Ang):
   XX=            -73.3814   YY=            -83.7288   ZZ=            -65.8079
   XY=             -7.1753   XZ=             -2.1748   YZ=              6.2027
 Traceless Quadrupole moment (field-independent basis, Debye-Ang):
   XX=              0.9247   YY=             -9.4227   ZZ=              8.4981
   XY=             -7.1753   XZ=             -2.1748   YZ=              6.2027
 Octapole moment (field-independent basis, Debye-Ang**2):
  XXX=            -50.9166  YYY=            -29.2238  ZZZ=             -4.3919  XYY=             -2.4555
  XXY=              3.6208  XXZ=             17.7224  XZZ=            -13.5705  YZZ=             -2.3015
  YYZ=             -0.7351  XYZ=             -1.4396
 Hexadecapole moment (field-independent basis, Debye-Ang**3):
 XXXX=          -1334.3808 YYYY=           -935.7731 ZZZZ=           -133.7562 XXXY=            -59.3492
 XXXZ=            -98.6648 YYYX=            -37.3609 YYYZ=             35.3103 ZZZX=              6.6588
 ZZZY=             13.5366 XXYY=           -409.1511 XXZZ=           -272.1168 YYZZ=           -149.3593
 XXYZ=             23.8688 YYXZ=             20.7232 ZZXY=             19.5824
 N-N= 5.485305088077D+02 E-N=-2.477589213363D+03  KE= 5.780026060214D+02
  Exact polarizability:   0.000   0.000   0.000   0.000   0.000   0.000
 Approx polarizability: 134.053   3.390 136.128  -9.451  -8.122  82.183
                          Isotropic Fermi Contact Couplings
        Atom                 a.u.       MegaHertz       Gauss      10(-4) cm-1
     1  N(14)              0.04647      15.01541       5.35787       5.00860
     2  N(14)              0.11942      38.58617      13.76850      12.87096
     3  C(13)              0.02714      30.51380      10.88808      10.17831
     4  C(13)             -0.02722     -30.60394     -10.92025     -10.20838
     5  N(14)              0.08662      27.98799       9.98681       9.33579
     6  H(1)              -0.00310     -13.86774      -4.94836      -4.62578
     7  H(1)               0.00070       3.14274       1.12141       1.04831
     8  H(1)               0.02447     109.36235      39.02321      36.47935
     9  C(13)              0.00194       2.18004       0.77789       0.72718
    10  O(17)              0.00157      -0.94885      -0.33857      -0.31650
    11  O(17)              0.01572      -9.53135      -3.40102      -3.17932
    12  O(17)              0.00497      -3.00996      -1.07403      -1.00402
    13  H(1)               0.00004       0.17738       0.06329       0.05917
    14  H(1)               0.00055       2.43973       0.87055       0.81380
    15  O(17)              0.04049     -24.54404      -8.75792      -8.18701
    16  H(1)              -0.00024      -1.09332      -0.39012      -0.36469
    17  H(1)              -0.00019      -0.84854      -0.30278      -0.28304
 --------------------------------------------------------
       Center         ----  Spin Dipole Couplings  ----
                      3XX-RR        3YY-RR        3ZZ-RR
 --------------------------------------------------------
     1   Atom       -0.167170     -0.212114      0.379284
     2   Atom       -0.294412     -0.285750      0.580162
     3   Atom       -0.069245     -0.076290      0.145535
     4   Atom        0.017523      0.048256     -0.065779
     5   Atom       -0.221135     -0.338920      0.560054
     6   Atom       -0.014672      0.019075     -0.004403
     7   Atom        0.000593      0.004119     -0.004712
     8   Atom        0.014310     -0.003099     -0.011210
     9   Atom       -0.029593     -0.000916      0.030508
    10   Atom       -0.020651     -0.020881      0.041532
    11   Atom       -0.117887     -0.077200      0.195087
    12   Atom        0.005161     -0.003502     -0.001659
    13   Atom        0.002070     -0.000910     -0.001160
    14   Atom        0.005738     -0.001904     -0.003833
    15   Atom        0.032785      0.002823     -0.035608
    16   Atom       -0.000554     -0.002395      0.002950
    17   Atom        0.004463     -0.000950     -0.003512
 --------------------------------------------------------
                        XY            XZ            YZ
 --------------------------------------------------------
     1   Atom        0.040568      0.210107      0.125874
     2   Atom        0.016726      0.170492      0.105620
     3   Atom        0.016132      0.082467      0.062174
     4   Atom       -0.011479     -0.046167     -0.017718
     5   Atom        0.064366      0.374355      0.157513
     6   Atom       -0.001874      0.004425     -0.002251
     7   Atom       -0.001377     -0.002757     -0.001064
     8   Atom        0.012334     -0.001992     -0.001518
     9   Atom       -0.008972     -0.003958      0.036906
    10   Atom       -0.005011     -0.009953      0.011786
    11   Atom        0.021994      0.056855      0.133988
    12   Atom       -0.001357      0.001907     -0.000665
    13   Atom       -0.000379     -0.000057      0.000047
    14   Atom       -0.001203      0.000565     -0.000298
    15   Atom        0.054686      0.018369      0.014043
    16   Atom        0.003263      0.002149      0.003907
    17   Atom       -0.000295      0.001273      0.000162
 --------------------------------------------------------


 ---------------------------------------------------------------------------------
              Anisotropic Spin Dipole Couplings in Principal Axis System
 ---------------------------------------------------------------------------------

       Atom             a.u.   MegaHertz   Gauss  10(-4) cm-1        Axes

              Baa    -0.2402    -9.265    -3.306    -3.090  0.7129  0.5996 -0.3636
     1 N(14)  Bbb    -0.2359    -9.099    -3.247    -3.035 -0.6262  0.7777  0.0547
              Bcc     0.4761    18.363     6.553     6.125  0.3156  0.1887  0.9299
 
              Baa    -0.3268   -12.604    -4.497    -4.204  0.9749  0.1061 -0.1956
     2 N(14)  Bbb    -0.2980   -11.492    -4.101    -3.833 -0.1264  0.9875 -0.0942
              Bcc     0.6248    24.096     8.598     8.038  0.1832  0.1166  0.9761
 
              Baa    -0.0999   -13.400    -4.782    -4.470  0.7877  0.4799 -0.3863
     3 C(13)  Bbb    -0.0892   -11.964    -4.269    -3.991 -0.5330  0.8453 -0.0367
              Bcc     0.1890    25.364     9.051     8.461  0.3090  0.2348  0.9216
 
              Baa    -0.0895   -12.006    -4.284    -4.005  0.4052  0.1498  0.9019
     4 C(13)  Bbb     0.0373     5.006     1.786     1.670  0.8752  0.2215 -0.4300
              Bcc     0.0522     7.000     2.498     2.335 -0.2642  0.9636 -0.0413
 
              Baa    -0.3717   -14.337    -5.116    -4.782  0.9248 -0.1621 -0.3441
     5 N(14)  Bbb    -0.3657   -14.103    -5.032    -4.704  0.0948  0.9743 -0.2041
              Bcc     0.7374    28.439    10.148     9.486  0.3684  0.1562  0.9165
 
              Baa    -0.0163    -8.720    -3.111    -2.909  0.9390  0.0279 -0.3428
     6 H(1)   Bbb    -0.0031    -1.655    -0.591    -0.552  0.3371  0.1232  0.9334
              Bcc     0.0194    10.375     3.702     3.461 -0.0683  0.9920 -0.1063
 
              Baa    -0.0061    -3.261    -1.164    -1.088  0.4020  0.1480  0.9036
     7 H(1)   Bbb     0.0015     0.810     0.289     0.270  0.8593  0.2799 -0.4281
              Bcc     0.0046     2.451     0.875     0.818 -0.3163  0.9485 -0.0147
 
              Baa    -0.0115    -6.132    -2.188    -2.045 -0.0303  0.2209  0.9748
     8 H(1)   Bbb    -0.0094    -5.015    -1.789    -1.673 -0.4651  0.8602 -0.2094
              Bcc     0.0209    11.147     3.977     3.718  0.8847  0.4597 -0.0766
 
              Baa    -0.0337    -4.523    -1.614    -1.509  0.8429  0.4873 -0.2281
     9 C(13)  Bbb    -0.0220    -2.952    -1.053    -0.985 -0.5293  0.6748 -0.5142
              Bcc     0.0557     7.476     2.667     2.494 -0.0967  0.5542  0.8268
 
              Baa    -0.0258     1.869     0.667     0.623  0.6612  0.7494 -0.0334
    10 O(17)  Bbb    -0.0196     1.417     0.506     0.473  0.7329 -0.6358  0.2420
              Bcc     0.0454    -3.286    -1.173    -1.096 -0.1601  0.1845  0.9697
 
              Baa    -0.1324     9.578     3.418     3.195  0.2428  0.8823 -0.4032
    11 O(17)  Bbb    -0.1274     9.220     3.290     3.076  0.9569 -0.2861 -0.0498
              Bcc     0.2598   -18.799    -6.708    -6.271  0.1593  0.3737  0.9138
 
              Baa    -0.0038     0.274     0.098     0.091  0.1022  0.9719  0.2119
    12 O(17)  Bbb    -0.0021     0.152     0.054     0.051 -0.2807 -0.1762  0.9435
              Bcc     0.0059    -0.426    -0.152    -0.142  0.9543 -0.1559  0.2548
 
              Baa    -0.0012    -0.624    -0.223    -0.208 -0.0044 -0.1855  0.9826
    13 H(1)   Bbb    -0.0009    -0.507    -0.181    -0.169  0.1257  0.9748  0.1846
              Bcc     0.0021     1.130     0.403     0.377  0.9921 -0.1243 -0.0190
 
              Baa    -0.0039    -2.078    -0.741    -0.693 -0.0428  0.1224  0.9916
    14 H(1)   Bbb    -0.0021    -1.102    -0.393    -0.368  0.1595  0.9806 -0.1142
              Bcc     0.0060     3.180     1.135     1.061  0.9863 -0.1532  0.0615
 
              Baa    -0.0403     2.914     1.040     0.972 -0.1472 -0.1326  0.9802
    15 O(17)  Bbb    -0.0389     2.815     1.004     0.939 -0.6090  0.7930  0.0159
              Bcc     0.0792    -5.728    -2.044    -1.911  0.7794  0.5946  0.1975
 
              Baa    -0.0054    -2.885    -1.029    -0.962 -0.4460  0.8493 -0.2824
    16 H(1)   Bbb    -0.0013    -0.689    -0.246    -0.230  0.7787  0.2126 -0.5903
              Bcc     0.0067     3.575     1.276     1.192  0.4413  0.4831  0.7562
 
              Baa    -0.0037    -1.988    -0.709    -0.663 -0.1558 -0.0740  0.9850
    17 H(1)   Bbb    -0.0009    -0.506    -0.180    -0.169  0.0354  0.9961  0.0805
              Bcc     0.0047     2.494     0.890     0.832  0.9872 -0.0474  0.1525
 

 ---------------------------------------------------------------------------------

 Calling FoFJK, ICntrl=    100147 FMM=F ISym2X=0 I1Cent= 0 IOpClX= 1 NMat=1 NMatS=1 NMatT=0.
 ***** Axes restored to original set *****
 -------------------------------------------------------------------
 Center     Atomic                   Forces (Hartrees/Bohr)
 Number     Number              X              Y              Z
 -------------------------------------------------------------------
      1        7          -0.018228804   -0.009209872    0.005403935
      2        7          -0.053342310   -0.036231317   -0.008234085
      3        6          -0.007731417    0.015832911    0.005610252
      4        6           0.004327085   -0.000012899   -0.002528311
      5        7           0.005173332    0.006184711   -0.005309364
      6        1          -0.000200170   -0.000495502    0.000355425
      7        1           0.000469007    0.000888934   -0.000983754
      8        1           0.028302312    0.007741183   -0.008698329
      9        6           0.045223520   -0.003990855   -0.018697693
     10        8          -0.047579541   -0.013651803    0.006056647
     11        8          -0.008477933   -0.000505722    0.003310558
     12        8           0.052969969   -0.025824835    0.014609204
     13        1          -0.000973993   -0.003733040    0.004039707
     14        1           0.000019094    0.011927498   -0.004068973
     15        8          -0.004727768    0.066246071    0.025193974
     16        1           0.001687508    0.002321543   -0.003597708
     17        1           0.003090108   -0.017487005   -0.012461483
 -------------------------------------------------------------------
 Cartesian Forces:  Max     0.066246071 RMS     0.020032212
 FormGI is forming the generalized inverse of G from B-inverse, IUseBI=4.

 GradGradGradGradGradGradGradGradGradGradGradGradGradGradGradGradGradGrad
 Berny optimization.
 Internal  Forces:  Max     0.058696100 RMS     0.012911098
 Search for a saddle point.
 Step number   1 out of a maximum of   89
 All quantities printed in internal units (Hartrees-Bohrs-Radians)
 Swapping is turned off.
 Second derivative matrix not updated -- analytic derivatives used.
 ITU=  0
     Eigenvalues ---   -0.08373  -0.03611  -0.01032  -0.00243  -0.00023
     Eigenvalues ---    0.00174   0.00529   0.00797   0.00883   0.01131
     Eigenvalues ---    0.01347   0.01593   0.01806   0.02357   0.02408
     Eigenvalues ---    0.02833   0.03366   0.03950   0.04304   0.04798
     Eigenvalues ---    0.05012   0.05233   0.06658   0.07224   0.08188
     Eigenvalues ---    0.09573   0.10773   0.11959   0.16646   0.19098
     Eigenvalues ---    0.19547   0.22952   0.25718   0.27855   0.30598
     Eigenvalues ---    0.34522   0.37637   0.38679   0.41634   0.45450
     Eigenvalues ---    0.51830   0.56083   0.56458   0.59286   0.82661
 Eigenvectors required to have negative eigenvalues:
                          R16       R18       R10       R5        R13
   1                    0.47113  -0.46987   0.44916  -0.36495   0.31404
                          R15       A17       R3        A19       R11
   1                   -0.30873   0.06689   0.05732   0.05310  -0.04464
 RFO step:  Lambda0=7.018705040D-04 Lambda=-9.17002628D-02.
 Linear search not attempted -- option 19 set.
 Maximum step size (   0.300) exceeded in Quadratic search.
    -- Step size scaled by   0.259
 Iteration  1 RMS(Cart)=  0.04787666 RMS(Int)=  0.00257148
 Iteration  2 RMS(Cart)=  0.00408858 RMS(Int)=  0.00013389
 Iteration  3 RMS(Cart)=  0.00000270 RMS(Int)=  0.00013388
 Iteration  4 RMS(Cart)=  0.00000000 RMS(Int)=  0.00013388
 Variable       Old X    -DE/DX   Delta X   Delta X   Delta X     New X
                                 (Linear)    (Quad)   (Total)
    R1        2.64038  -0.00450   0.00000   0.00372   0.00382   2.64420
    R2        2.56740   0.00582   0.00000   0.00399   0.00397   2.57137
    R3        2.73630  -0.01685   0.00000  -0.02724  -0.02736   2.70894
    R4        2.63116  -0.00912   0.00000  -0.00271  -0.00270   2.62847
    R5        2.95612  -0.05870   0.00000  -0.22260  -0.22246   2.73366
    R6        2.60163   0.00500   0.00000  -0.00055  -0.00054   2.60108
    R7        2.03674   0.00053   0.00000   0.00034   0.00034   2.03708
    R8        2.54398  -0.00258   0.00000   0.00257   0.00256   2.54654
    R9        2.04420   0.00063   0.00000  -0.00010  -0.00010   2.04410
   R10        2.79249  -0.03428   0.00000  -0.03497  -0.03489   2.75760
   R11        2.40249   0.02063   0.00000   0.02077   0.02055   2.42304
   R12        2.31524  -0.00352   0.00000  -0.00326  -0.00326   2.31198
   R13        2.40067  -0.03163   0.00000  -0.12995  -0.13002   2.27065
   R14        1.81569   0.00250   0.00000   0.00019   0.00019   1.81588
   R15        2.35831  -0.02921   0.00000   0.07122   0.07113   2.42944
   R16        2.60799  -0.03869   0.00000  -0.08412  -0.08406   2.52393
   R17        1.81775   0.00342   0.00000   0.00048   0.00048   1.81823
   R18        2.56768  -0.05438   0.00000  -0.04896  -0.04886   2.51881
    A1        1.95778   0.00755   0.00000   0.00269   0.00273   1.96051
    A2        2.09803  -0.00067   0.00000  -0.00014  -0.00016   2.09787
    A3        2.20567  -0.00681   0.00000  -0.00195  -0.00200   2.20368
    A4        1.82448  -0.00591   0.00000  -0.00399  -0.00406   1.82042
    A5        2.07878  -0.00213   0.00000  -0.00726  -0.00719   2.07159
    A6        2.01933   0.00693   0.00000   0.00982   0.00992   2.02926
    A7        1.85605   0.00710   0.00000   0.00503   0.00506   1.86112
    A8        2.11753  -0.00395   0.00000  -0.00226  -0.00228   2.11525
    A9        2.30591  -0.00300   0.00000  -0.00261  -0.00264   2.30327
   A10        1.96352  -0.00285   0.00000  -0.00065  -0.00063   1.96289
   A11        2.23100   0.00258   0.00000   0.00114   0.00113   2.23213
   A12        2.08866   0.00027   0.00000  -0.00050  -0.00050   2.08815
   A13        1.81813  -0.00572   0.00000  -0.00302  -0.00304   1.81510
   A14        1.93788  -0.00560   0.00000  -0.00980  -0.01016   1.92773
   A15        2.04975   0.01249   0.00000   0.02099   0.02116   2.07091
   A16        2.29547  -0.00691   0.00000  -0.01128  -0.01111   2.28436
   A17        2.31674  -0.00923   0.00000  -0.04476  -0.04490   2.27184
   A18        1.84737  -0.00305   0.00000  -0.00138  -0.00155   1.84582
   A19        2.03374  -0.00265   0.00000  -0.00316  -0.00310   2.03065
   A20        1.42989   0.00763   0.00000   0.00090   0.00075   1.43064
   A21        1.82755  -0.00469   0.00000  -0.00808  -0.00824   1.81931
   A22        1.63390   0.01499   0.00000   0.04345   0.04381   1.67772
   A23        1.86021  -0.00364   0.00000  -0.00737  -0.00721   1.85300
   A24        3.26695   0.00136   0.00000   0.00826   0.00838   3.27533
   A25        3.06242  -0.01212   0.00000  -0.03393  -0.03400   3.02843
   A26        3.04990  -0.00500   0.00000  -0.01155  -0.01144   3.03846
   A27        2.93887   0.00330   0.00000  -0.00180  -0.00184   2.93702
   A28        3.05352  -0.00699   0.00000  -0.01607  -0.01639   3.03713
   A29        3.31456   0.00018   0.00000   0.00505   0.00490   3.31946
    D1       -0.08857   0.00162   0.00000  -0.00005  -0.00007  -0.08865
    D2       -2.37630  -0.00071   0.00000  -0.00405  -0.00422  -2.38052
    D3        2.84451   0.00112   0.00000   0.00252   0.00245   2.84696
    D4        0.55679  -0.00120   0.00000  -0.00149  -0.00170   0.55509
    D5        0.05022  -0.00116   0.00000   0.00115   0.00117   0.05139
    D6       -2.86731  -0.00168   0.00000  -0.00192  -0.00186  -2.86917
    D7        0.06863   0.00061   0.00000   0.01253   0.01240   0.08103
    D8       -3.08508  -0.00063   0.00000   0.00559   0.00555  -3.07953
    D9        2.96983   0.00202   0.00000   0.01612   0.01595   2.98578
   D10       -0.18389   0.00078   0.00000   0.00919   0.00910  -0.17479
   D11        0.08833  -0.00138   0.00000  -0.00093  -0.00092   0.08741
   D12       -3.13499   0.00020   0.00000   0.00065   0.00064  -3.13435
   D13        2.41022  -0.00405   0.00000  -0.00658  -0.00649   2.40373
   D14       -0.81310  -0.00247   0.00000  -0.00500  -0.00493  -0.81803
   D15        1.28179  -0.00209   0.00000  -0.00453  -0.00471   1.27708
   D16       -0.60390  -0.00065   0.00000  -0.00412  -0.00445  -0.60834
   D17       -0.82829   0.00156   0.00000   0.00352   0.00352  -0.82477
   D18       -2.71398   0.00300   0.00000   0.00394   0.00378  -2.71020
   D19       -0.06436   0.00047   0.00000   0.00157   0.00157  -0.06279
   D20        3.07123   0.00120   0.00000   0.00078   0.00077   3.07199
   D21       -3.11180  -0.00138   0.00000  -0.00035  -0.00032  -3.11211
   D22        0.02378  -0.00065   0.00000  -0.00113  -0.00111   0.02267
   D23        0.00978   0.00030   0.00000  -0.00179  -0.00180   0.00798
   D24       -3.12635  -0.00037   0.00000  -0.00109  -0.00108  -3.12743
   D25       -1.86750   0.00017   0.00000  -0.00643  -0.00627  -1.87377
   D26        1.28846   0.00146   0.00000   0.00149   0.00138   1.28984
   D27       -2.56406  -0.00615   0.00000  -0.01855  -0.01860  -2.58266
   D28        1.71445  -0.00386   0.00000  -0.01193  -0.01220   1.70225
   D29       -1.78093  -0.00247   0.00000  -0.00493  -0.00510  -1.78602
   D30        2.65966  -0.00009   0.00000  -0.00460  -0.00458   2.65508
   D31        0.01557  -0.00265   0.00000  -0.00834  -0.00875   0.00681
   D32       -1.82703  -0.00027   0.00000  -0.00802  -0.00824  -1.83527
         Item               Value     Threshold  Converged?
 Maximum Force            0.058696     0.000450     NO 
 RMS     Force            0.012911     0.000300     NO 
 Maximum Displacement     0.147594     0.001800     NO 
 RMS     Displacement     0.051393     0.001200     NO 
 Predicted change in Energy=-2.579199D-02
 GradGradGradGradGradGradGradGradGradGradGradGradGradGradGradGradGradGrad

                          Input orientation:                          
 ---------------------------------------------------------------------
 Center     Atomic      Atomic             Coordinates (Angstroms)
 Number     Number       Type             X           Y           Z
 ---------------------------------------------------------------------
      1          7           0        0.954580    0.445841    0.190529
      2          7           0        0.689842   -0.856538    0.628269
      3          6           0        1.778344   -1.597553    0.180239
      4          6           0        2.660754   -0.702098   -0.380194
      5          7           0        2.179030    0.556369   -0.392596
      6          1           0        1.848065   -2.656742    0.368090
      7          1           0        3.645500   -0.901966   -0.780676
      8          1           0       -0.617370   -1.422053    0.375255
      9          6           0       -0.096846    1.419209    0.145738
     10          8           0       -1.178109    0.933522    0.634671
     11          8           0        0.150710    2.529957   -0.303458
     12          8           0       -3.267569    0.068972   -0.383979
     13          1           0       -3.959190    0.282805    0.247929
     14          1           0       -2.191089    0.590940    0.086683
     15          8           0       -1.780528   -2.119260   -0.163639
     16          1           0       -1.553092   -2.282501   -1.084176
     17          1           0       -2.592520   -1.062243   -0.163736
 ---------------------------------------------------------------------
                    Distance matrix (angstroms):
                    1          2          3          4          5
     1  N    0.000000
     2  N    1.399248   0.000000
     3  C    2.203215   1.390925   0.000000
     4  C    2.134132   2.219311   1.376435   0.000000
     5  N    1.360709   2.292630   2.264525   1.347573   0.000000
     6  H    3.233553   2.156364   1.077975   2.245222   3.318473
     7  H    3.162416   3.274615   2.212119   1.081692   2.104253
     8  H    2.448301   1.446591   2.410036   3.440223   3.510499
     9  C    1.433508   2.455756   3.552236   3.518651   2.492771
    10  O    2.232366   2.587199   3.918350   4.294424   3.530993
    11  O    2.287743   3.553467   4.463126   4.092968   2.831444
    12  O    4.277690   4.188355   5.343864   5.978258   5.468370
    13  H    4.916809   4.801694   6.038181   6.722219   6.177610
    14  H    3.150726   3.269292   4.533724   5.042847   4.396459
    15  O    3.766429   2.885188   3.613308   4.666929   4.784298
    16  H    3.918819   3.161739   3.628549   4.555191   4.739853
    17  H    3.870625   3.382822   4.416936   5.270052   5.043806
                    6          7          8          9         10
     6  H    0.000000
     7  H    2.762186   0.000000
     8  H    2.757332   4.447328   0.000000
     9  C    4.521669   4.500138   2.897653   0.000000
    10  O    4.703062   5.351582   2.435254   1.282216   0.000000
    11  O    5.498530   4.921320   4.082766   1.223447   2.279134
    12  O    5.845069   6.992182   3.134190   3.486721   2.480108
    13  H    6.509961   7.764858   3.753734   4.027352   2.882258
    14  H    5.190510   6.086613   2.571383   2.252859   1.201575
    15  O    3.706523   5.595026   1.459260   3.930809   3.212426
    16  H    3.717123   5.387332   1.935430   4.163652   3.665768
    17  H    4.748059   6.270502   2.078748   3.532954   2.573148
                   11         12         13         14         15
    11  O    0.000000
    12  O    4.212785   0.000000
    13  H    4.716460   0.960923   0.000000
    14  H    3.065293   1.285606   1.801979   0.000000
    15  O    5.036312   2.654844   3.268925   2.752527   0.000000
    16  H    5.164515   2.993181   3.760932   3.167747   0.962167
    17  H    4.522028   1.335607   1.961227   1.719555   1.332897
                   16         17
    16  H    0.000000
    17  H    1.848419   0.000000
 Stoichiometry    C3H7N3O4(1-,2)
 Framework group  C1[X(C3H7N3O4)]
 Deg. of freedom    45
 Full point group                 C1      NOp   1
 Largest Abelian subgroup         C1      NOp   1
 Largest concise Abelian subgroup C1      NOp   1
                         Standard orientation:                         
 ---------------------------------------------------------------------
 Center     Atomic      Atomic             Coordinates (Angstroms)
 Number     Number       Type             X           Y           Z
 ---------------------------------------------------------------------
      1          7           0        0.959506    0.470352    0.197471
      2          7           0        0.719512   -0.838783    0.629286
      3          6           0        1.825405   -1.555531    0.184378
      4          6           0        2.691981   -0.640025   -0.368314
      5          7           0        2.184398    0.608254   -0.378855
      6          1           0        1.916053   -2.613719    0.368905
      7          1           0        3.682702   -0.818059   -0.764334
      8          1           0       -0.574400   -1.430283    0.367475
      9          6           0       -0.111585    1.421935    0.150571
     10          8           0       -1.185077    0.912255    0.632151
     11          8           0        0.115253    2.539167   -0.293457
     12          8           0       -3.250926    0.008364   -0.400413
     13          1           0       -3.950071    0.205589    0.228611
     14          1           0       -2.187915    0.550777    0.077685
     15          8           0       -1.720093   -2.149443   -0.179916
     16          1           0       -1.484586   -2.304646   -1.099814
     17          1           0       -2.553765   -1.109440   -0.180580
 ---------------------------------------------------------------------
 Rotational constants (GHZ):           1.6501569           0.9655567           0.6455609
 Standard basis: 6-31+G(d,p) (6D, 7F)
 There are   225 symmetry adapted cartesian basis functions of A   symmetry.
 There are   225 symmetry adapted basis functions of A   symmetry.
   225 basis functions,   369 primitive gaussians,   225 cartesian basis functions
    40 alpha electrons       39 beta electrons
       nuclear repulsion energy       553.4872022606 Hartrees.
 NAtoms=   17 NActive=   17 NUniq=   17 SFac= 1.00D+00 NAtFMM=   60 NAOKFM=F Big=F
 Integral buffers will be    131072 words long.
 Raffenetti 2 integral format.
 Two-electron integral symmetry is turned on.
 One-electron integrals computed using PRISM.
 NBasis=   225 RedAO= T EigKep=  3.05D-05  NBF=   225
 NBsUse=   225 1.00D-06 EigRej= -1.00D+00 NBFU=   225
 Initial guess from the checkpoint file:  "/scratch/gongke2021/TS/Gau-572.chk"
 B after Tr=    -0.000000    0.000000    0.000000
         Rot=    0.999927   -0.001166    0.001541   -0.011943 Ang=  -1.39 deg.
 Initial guess <Sx>= 0.0000 <Sy>= 0.0000 <Sz>= 0.5000 <S**2>= 0.7639 S= 0.5069
 ExpMin= 4.38D-02 ExpMax= 5.48D+03 ExpMxC= 8.25D+02 IAcc=2 IRadAn=         4 AccDes= 0.00D+00
 Harris functional with IExCor= 1009 and IRadAn=       4 diagonalized for initial guess.
 HarFok:  IExCor= 1009 AccDes= 0.00D+00 IRadAn=         4 IDoV= 1 UseB2=F ITyADJ=14
 ICtDFT=  3500011 ScaDFX=  1.000000  1.000000  1.000000  1.000000
 FoFCou: FMM=F IPFlag=           0 FMFlag=      100000 FMFlg1=           0
         NFxFlg=           0 DoJE=T BraDBF=F KetDBF=T FulRan=T
         wScrn=  0.000000 ICntrl=       500 IOpCl=  0 I1Cent=   200000004 NGrid=           0
         NMat0=    1 NMatS0=      1 NMatT0=    0 NMatD0=    1 NMtDS0=    0 NMtDT0=    0
 Petite list used in FoFCou.
 Requested convergence on RMS density matrix=1.00D-08 within 128 cycles.
 Requested convergence on MAX density matrix=1.00D-06.
 Requested convergence on             energy=1.00D-06.
 No special actions if energy rises.
 SCF Done:  E(UM062X) =  -583.428354477     A.U. after   18 cycles
            NFock= 18  Conv=0.51D-08     -V/T= 2.0092
 <Sx>= 0.0000 <Sy>= 0.0000 <Sz>= 0.5000 <S**2>= 0.7644 S= 0.5072
 <L.S>=  0.00000000000    
 Annihilation of the first spin contaminant:
 S**2 before annihilation     0.7644,   after     0.7501
 Calling FoFJK, ICntrl=      2127 FMM=F ISym2X=0 I1Cent= 0 IOpClX= 1 NMat=1 NMatS=1 NMatT=0.
 ***** Axes restored to original set *****
 -------------------------------------------------------------------
 Center     Atomic                   Forces (Hartrees/Bohr)
 Number     Number              X              Y              Z
 -------------------------------------------------------------------
      1        7          -0.015212767   -0.008174438    0.003438182
      2        7          -0.052068075   -0.033896694   -0.009824232
      3        6          -0.006006854    0.013465432    0.005118137
      4        6           0.003450534    0.000006196   -0.002028876
      5        7           0.004281046    0.005133536   -0.003176308
      6        1          -0.000202143   -0.000412357    0.000186055
      7        1           0.000318992    0.000726955   -0.000834960
      8        1           0.031926995    0.009550365   -0.005952979
      9        6           0.037250159   -0.004713597   -0.016494673
     10        8          -0.041010163   -0.009572398    0.006205968
     11        8          -0.007118719   -0.000497692    0.002907917
     12        8           0.042330417   -0.023512479    0.012386136
     13        1          -0.000959405   -0.004002321    0.003173920
     14        1           0.005460284    0.012109197   -0.001750804
     15        8          -0.004652272    0.055690022    0.021301932
     16        1           0.001043229    0.001377506   -0.002782709
     17        1           0.001168741   -0.013277235   -0.011872707
 -------------------------------------------------------------------
 Cartesian Forces:  Max     0.055690022 RMS     0.017652751

 GradGradGradGradGradGradGradGradGradGradGradGradGradGradGradGradGradGrad
 Berny optimization.
 FormGI is forming the generalized inverse of G from B-inverse, IUseBI=4.
 Internal  Forces:  Max     0.057281585 RMS     0.011329338
 Search for a saddle point.
 Step number   2 out of a maximum of   89
 All quantities printed in internal units (Hartrees-Bohrs-Radians)
 Swapping is turned off.
 Update second derivatives using D2CorX and points    1    2
 ITU=  0  0
     Eigenvalues ---   -0.08347  -0.03479  -0.00969  -0.00085   0.00088
     Eigenvalues ---    0.00262   0.00560   0.00844   0.00902   0.01138
     Eigenvalues ---    0.01529   0.01739   0.02018   0.02365   0.02597
     Eigenvalues ---    0.02832   0.03432   0.03951   0.04303   0.04798
     Eigenvalues ---    0.05014   0.05226   0.06651   0.07223   0.08274
     Eigenvalues ---    0.09573   0.10776   0.12038   0.16979   0.19130
     Eigenvalues ---    0.19568   0.22948   0.25718   0.27855   0.30606
     Eigenvalues ---    0.34532   0.37637   0.38679   0.41647   0.45455
     Eigenvalues ---    0.51851   0.56083   0.56458   0.59282   0.82661
 Eigenvectors required to have negative eigenvalues:
                          R18       R16       R10       R5        R13
   1                   -0.46909   0.46736   0.44483  -0.38788   0.30464
                          R15       A17       R3        A19       R11
   1                   -0.30449   0.06563   0.05476   0.05305  -0.04401
 RFO step:  Lambda0=8.206779183D-04 Lambda=-7.57862450D-02.
 Linear search not attempted -- option 19 set.
 Maximum step size (   0.300) exceeded in Quadratic search.
    -- Step size scaled by   0.262
 Iteration  1 RMS(Cart)=  0.05105152 RMS(Int)=  0.00127796
 Iteration  2 RMS(Cart)=  0.00179350 RMS(Int)=  0.00019857
 Iteration  3 RMS(Cart)=  0.00000295 RMS(Int)=  0.00019856
 Iteration  4 RMS(Cart)=  0.00000000 RMS(Int)=  0.00019856
 Variable       Old X    -DE/DX   Delta X   Delta X   Delta X     New X
                                 (Linear)    (Quad)   (Total)
    R1        2.64420  -0.00368   0.00000   0.00148   0.00151   2.64571
    R2        2.57137   0.00430   0.00000   0.00159   0.00162   2.57299
    R3        2.70894  -0.01359   0.00000  -0.02344  -0.02333   2.68561
    R4        2.62847  -0.00767   0.00000  -0.00332  -0.00331   2.62516
    R5        2.73366  -0.05728   0.00000  -0.20726  -0.20746   2.52620
    R6        2.60108   0.00391   0.00000  -0.00049  -0.00056   2.60052
    R7        2.03708   0.00042   0.00000   0.00018   0.00018   2.03726
    R8        2.54654  -0.00231   0.00000   0.00124   0.00118   2.54773
    R9        2.04410   0.00047   0.00000  -0.00027  -0.00027   2.04383
   R10        2.75760  -0.02823   0.00000  -0.00853  -0.00875   2.74885
   R11        2.42304   0.01652   0.00000   0.02103   0.02115   2.44419
   R12        2.31198  -0.00296   0.00000  -0.00423  -0.00423   2.30775
   R13        2.27065  -0.02779   0.00000  -0.13743  -0.13721   2.13344
   R14        1.81588   0.00189   0.00000  -0.00011  -0.00011   1.81577
   R15        2.42944  -0.01974   0.00000   0.10654   0.10677   2.53621
   R16        2.52393  -0.03427   0.00000  -0.07883  -0.07891   2.44502
   R17        1.81823   0.00268   0.00000   0.00034   0.00034   1.81857
   R18        2.51881  -0.04495   0.00000  -0.04521  -0.04529   2.47352
    A1        1.96051   0.00618   0.00000   0.00307   0.00295   1.96346
    A2        2.09787  -0.00059   0.00000   0.00311   0.00355   2.10142
    A3        2.20368  -0.00547   0.00000  -0.00320  -0.00362   2.20006
    A4        1.82042  -0.00491   0.00000  -0.00377  -0.00373   1.81668
    A5        2.07159  -0.00170   0.00000  -0.00470  -0.00471   2.06688
    A6        2.02926   0.00614   0.00000   0.00145   0.00144   2.03069
    A7        1.86112   0.00583   0.00000   0.00455   0.00456   1.86568
    A8        2.11525  -0.00321   0.00000  -0.00240  -0.00241   2.11283
    A9        2.30327  -0.00248   0.00000  -0.00185  -0.00186   2.30141
   A10        1.96289  -0.00235   0.00000  -0.00125  -0.00128   1.96161
   A11        2.23213   0.00212   0.00000   0.00139   0.00140   2.23353
   A12        2.08815   0.00023   0.00000  -0.00014  -0.00012   2.08803
   A13        1.81510  -0.00461   0.00000  -0.00240  -0.00232   1.81278
   A14        1.92773  -0.00496   0.00000  -0.00604  -0.00531   1.92241
   A15        2.07091   0.01068   0.00000   0.01787   0.01748   2.08839
   A16        2.28436  -0.00575   0.00000  -0.01200  -0.01238   2.27198
   A17        2.27184  -0.00910   0.00000  -0.06889  -0.06884   2.20300
   A18        1.84582  -0.00258   0.00000  -0.00255  -0.00282   1.84300
   A19        2.03065  -0.00200   0.00000  -0.00154  -0.00180   2.02884
   A20        1.43064   0.00641   0.00000   0.00752   0.00809   1.43873
   A21        1.81931  -0.00416   0.00000  -0.00762  -0.00766   1.81165
   A22        1.67772   0.01496   0.00000   0.03582   0.03569   1.71340
   A23        1.85300  -0.00309   0.00000  -0.00626  -0.00606   1.84694
   A24        3.27533   0.00166   0.00000   0.00488   0.00483   3.28016
   A25        3.02843  -0.01169   0.00000  -0.01053  -0.00990   3.01853
   A26        3.03846  -0.00479   0.00000  -0.01542  -0.01507   3.02339
   A27        2.93702   0.00289   0.00000  -0.00709  -0.00714   2.92988
   A28        3.03713  -0.00673   0.00000  -0.01123  -0.01134   3.02580
   A29        3.31946   0.00004   0.00000  -0.00082  -0.00125   3.31821
    D1       -0.08865   0.00138   0.00000   0.00130   0.00126  -0.08739
    D2       -2.38052  -0.00118   0.00000   0.00670   0.00660  -2.37391
    D3        2.84696   0.00131   0.00000   0.01518   0.01515   2.86212
    D4        0.55509  -0.00124   0.00000   0.02058   0.02050   0.57559
    D5        0.05139  -0.00091   0.00000   0.00008   0.00012   0.05151
    D6       -2.86917  -0.00167   0.00000  -0.01578  -0.01580  -2.88497
    D7        0.08103   0.00102   0.00000   0.01125   0.01124   0.09227
    D8       -3.07953  -0.00022   0.00000   0.00283   0.00270  -3.07684
    D9        2.98578   0.00253   0.00000   0.02816   0.02814   3.01392
   D10       -0.17479   0.00128   0.00000   0.01973   0.01961  -0.15518
   D11        0.08741  -0.00125   0.00000  -0.00201  -0.00198   0.08543
   D12       -3.13435   0.00012   0.00000   0.00122   0.00122  -3.13313
   D13        2.40373  -0.00310   0.00000  -0.01072  -0.01067   2.39306
   D14       -0.81803  -0.00173   0.00000  -0.00749  -0.00746  -0.82549
   D15        1.27708  -0.00137   0.00000  -0.00786  -0.00802   1.26906
   D16       -0.60834  -0.00051   0.00000  -0.00603  -0.00628  -0.61462
   D17       -0.82477   0.00148   0.00000   0.00806   0.00801  -0.81676
   D18       -2.71020   0.00234   0.00000   0.00989   0.00976  -2.70044
   D19       -0.06279   0.00053   0.00000   0.00208   0.00208  -0.06070
[...]
   yx         0.129747D+02      0.192265D+01      0.213923D+01
   yy         0.688700D+02      0.102055D+02      0.113551D+02
   zx         0.130836D+01      0.193879D+00      0.215719D+00
   zy        -0.571498D+01     -0.846873D+00     -0.942273D+00
   zz         0.108520D+03      0.160810D+02      0.178925D+02

 ----------------------------------------------------------------------
 1\1\GINC-NODE6\Freq\UM062X\6-31+G(d,p)\C3H7N3O4(1-,2)\GONGKE2021\27-Ma
 y-2023\0\\#N Geom=AllCheck Guess=TCheck SCRF=Check GenChk UM062X/6-31+
 G(d,p) Freq\\TS\\-1,2\N,0.7265486543,0.4331039818,-0.2485553852\N,0.22
 03263267,-0.8120665657,0.1380233577\C,1.3502680729,-1.5762416332,0.356
 6107657\C,2.4444586047,-0.7608390722,0.1871323696\N,2.0952835972,0.490
 6810032,-0.1647341088\H,1.262435737,-2.6222714904,0.6032806736\H,3.489
 3805687,-1.0091241496,0.3115796941\H,-0.6106808567,-1.2551328303,-0.44
 3582019\C,-0.0456573462,1.6078426587,-0.3153259545\O,-1.3416185126,1.4
 68819411,-0.1538490141\O,0.4911674841,2.6697088467,-0.5695507222\O,-2.
 7526901638,-0.3896734699,0.6358654667\H,-2.530573334,-0.7152700213,1.5
 137134353\H,-1.8346802238,0.6130468275,0.2413236804\O,-1.8133866949,-1
 .9516751583,-0.9247451837\H,-2.0512986471,-1.7735861519,-1.8391973751\
 H,-2.4287699367,-1.1906619962,-0.1230409306\\Version=ES64L-G16RevA.03\
 State=2-A\HF=-583.4803368\S2=0.764889\S2-1=0.\S2A=0.750073\RMSD=1.932e
 -09\RMSF=1.054e-05\ZeroPoint=0.1164314\Thermal=0.1265796\Dipole=0.6547
 806,-1.6961592,0.523697\DipoleDeriv=-0.4497726,0.7894254,-0.1912432,0.
 577872,-0.8473066,0.120997,-0.1216988,-0.0342808,-0.147946,-1.2889571,
 -0.6164941,-0.0412252,-0.1913534,-0.1301857,-0.154355,-0.1486706,-0.10
 42524,-0.2054897,0.247503,0.0992108,-0.0431946,-0.1763518,-0.33445,-0.
 0157256,0.0101208,-0.03864,-0.2697767,0.2400162,0.0163015,0.0174957,0.
 2379096,0.4795259,-0.1267563,-0.0385333,-0.1800256,-0.0809325,-0.26527
 27,-0.1554229,0.0833101,-0.3020817,-0.6093863,0.0553882,0.0614123,0.13
 27409,-0.2275183,0.0837992,-0.0023056,-0.0005407,0.0148209,-0.0252554,
 0.0603436,-0.0017484,0.0649403,0.189116,-0.0973828,0.0665053,-0.031070
 8,0.0514835,0.0776489,0.0217283,-0.0276996,0.0343648,0.144296,1.375582
 8,0.6223144,0.3574892,0.5925997,0.4756236,0.2420677,0.477321,0.3094746
 ,0.4039963,2.2216651,-0.1871622,-0.1724919,-0.4129158,2.6943485,-0.374
 0922,-0.1140032,-0.3391674,0.4603877,-1.8725527,-0.1400377,0.2066424,-
 0.4813405,-0.8819539,0.1583614,0.3058242,0.1614157,-0.5045327,-0.68772
 57,-0.4290764,0.105161,-0.035939,-1.7885876,0.2611353,0.038894,0.29561
 93,-0.5187659,-1.1638914,-0.1580746,0.3716772,-0.175324,-1.0625571,-0.
 3285751,0.4376819,-0.2694249,-0.9146456,0.3334581,0.0464452,-0.1036118
 ,0.0288033,0.2298698,0.0659226,-0.0783086,0.0303555,0.1830168,0.934551
 6,0.4541186,-0.2295479,0.7687393,0.8194242,-0.2339198,-0.3521144,-0.23
 40809,0.3795664,-1.376579,-0.1775999,0.0839212,-0.260074,-1.1168792,-0
 .483416,-0.0360118,-0.4751682,-0.9259162,0.2558641,0.0165339,-0.035465
 5,0.0431294,0.2690366,0.0784473,-0.0281656,0.0333309,0.1074068,0.50969
 37,-0.2446819,-0.3773053,-0.2799775,0.7510844,0.6524485,-0.3842999,0.6
 127983,0.9277377\Polar=106.2121545,-0.3734365,108.2401876,0.9425619,-6
 .9422466,64.7111217\Quadrupole=-4.7698825,-8.1275193,12.8974018,-6.620
 7231,1.4701523,0.2649543\PG=C01 [X(C3H7N3O4)]\NImag=1\\0.64503022,-0.1
 0065142,0.69197429,0.02448143,-0.13758964,0.09263633,-0.11406427,-0.03
 083951,-0.00265122,0.64645536,-0.06837228,-0.19772141,0.05329627,0.024
 96685,0.48857994,0.00062161,0.05598844,-0.04592326,0.15270574,-0.05319
 539,0.17360983,-0.01674792,0.03678218,-0.01086768,-0.25671406,0.103035
 24,-0.05315925,0.62730994,0.02435603,-0.07480365,0.01793671,0.07405583
 ,-0.15593937,0.02632030,0.08048257,0.81098319,-0.00361770,0.02649052,-
 0.00957038,-0.02798135,0.01711868,-0.04453168,0.01218274,-0.17429170,0
 .13187329,-0.06605961,0.04065981,-0.01254014,-0.07825938,0.02165833,-0
 .01087559,-0.29749031,-0.14460583,0.02531196,0.89929276,0.04999427,-0.
 03171803,0.01406463,-0.00002802,0.00308827,0.00464294,-0.12540683,-0.1
 5256803,0.01629430,-0.02654865,0.53210982,-0.01859971,0.01262669,0.000
 37974,-0.00160998,0.00510264,0.01314646,0.02336845,0.01945606,-0.05962
 057,0.04710231,-0.11575167,0.15317756,-0.23990881,-0.03860905,0.002051
 33,-0.06119848,-0.03513878,0.00551524,0.02999487,-0.00528063,-0.002736
 92,-0.11890317,0.06643994,-0.02370727,0.41976336,0.01996014,-0.1008939
 7,0.01445466,-0.02777177,-0.01488209,-0.00329299,-0.05604992,-0.107313
 15,0.03336888,0.04598708,-0.27295334,0.06254246,-0.02764070,0.49573140
 ,-0.02645105,0.01126554,-0.03446030,0.00717035,0.00367286,-0.00389421,
 0.01413177,0.03474970,0.01844166,-0.01670590,0.06341521,-0.07017068,0.
 02580709,-0.11124695,0.09373594,-0.00727079,0.00413842,-0.00094737,0.0
 0781662,0.02664977,-0.00597407,-0.05966043,-0.03272086,0.00681164,0.00
 996812,-0.02019239,0.00534777,-0.00414677,-0.00335761,0.00063102,0.051
 15871,0.00053854,-0.00036685,0.00044651,-0.00373929,-0.01075080,0.0019
 3851,-0.02525078,-0.34676045,0.07735872,0.00507870,-0.00596931,0.00148
 219,-0.00020234,0.00100721,0.00132713,0.02450198,0.36423174,-0.0019478
 6,0.00225745,0.00270990,0.00190613,0.00140643,-0.00438516,0.00252040,0
 .07694501,-0.03548950,-0.00007826,0.00175509,-0.00187415,0.00107149,0.
 00095504,0.00643888,-0.00545195,-0.08239871,0.03439968,0.00055216,0.00
 052191,-0.00006105,-0.00177158,-0.00245772,-0.00096617,-0.01011527,0.0
 1072976,-0.00330437,-0.34024634,0.06089696,-0.03277459,-0.00382815,0.0
 0256419,-0.00075699,-0.00024988,-0.00051119,0.00021078,0.35566451,0.00
 372287,-0.00738420,0.00334384,-0.00399730,-0.00287180,0.00168957,-0.01
 555988,0.01220353,-0.00377103,0.05649213,-0.06949075,0.01392883,0.0295
 9727,-0.00150545,0.00081002,0.00072833,-0.00044886,-0.00052503,-0.0719
 2451,0.06780067,-0.00139543,0.00344182,0.00628992,0.00012443,0.0037813
 8,0.00642551,0.00402321,-0.00243407,0.00084174,-0.03239136,0.01436849,
 -0.03688163,-0.00689455,-0.00149253,-0.00590228,-0.00008276,-0.0004740
 1,-0.00227832,0.03726685,-0.01611851,0.03056977,-0.00683262,0.00011765
 ,0.00949857,-0.10518367,-0.03332754,-0.06081452,-0.02204857,0.00295090
 ,-0.00861102,0.00213910,0.00232379,-0.00223975,0.00743923,0.00303799,-
 0.00216934,0.00066170,-0.00035974,0.00133775,0.00037738,-0.00012964,-0
 .00001167,0.11176228,-0.01887336,-0.01001333,-0.00791034,-0.03241556,-
 0.07795085,-0.01543155,0.01039968,0.01907483,0.00920093,0.00715484,-0.
 00321688,0.00085272,0.00318819,-0.00104927,-0.00029019,0.00014627,-0.0
 0087289,0.00038748,0.00096773,0.00062510,-0.00122156,0.00989197,0.0823
 2477,0.01904209,0.00005145,0.01068797,-0.09613520,-0.02424586,-0.08618
 853,0.00293717,0.00253304,-0.00191898,0.00207148,0.00137424,-0.0001532
 2,0.00552179,0.00554741,-0.00127233,0.00003005,-0.00028762,0.00051399,
 0.00079954,0.00055239,0.00035129,0.04216788,0.00356810,0.09134525,-0.1
 5103994,0.06542465,-0.00989767,0.00188569,-0.01099583,0.00121011,0.004
 15797,-0.01283368,0.00313513,-0.01015312,-0.00405701,0.00098168,-0.027
 92902,0.03189129,0.00041615,0.00192820,-0.00107787,0.00079919,0.000357
 74,0.00067141,-0.00060730,0.01797752,0.00145418,0.00515098,0.75500709,
 0.04860215,-0.18195266,0.03434529,0.02336981,-0.02319774,-0.00204839,-
 0.01142971,0.00295357,-0.00056839,-0.00624418,0.00381455,-0.00162924,0
 .01272356,0.00286506,-0.00564377,-0.00055692,0.00036996,-0.00061497,-0
 .00139513,0.00227389,-0.00069579,-0.01363354,-0.00717348,-0.00491690,0
 .20119060,0.85546065,0.00593874,0.01207616,-0.04751541,-0.01089656,0.0
 0714909,-0.00791272,0.00395120,0.00122563,-0.00166830,-0.00116659,-0.0
 0044539,0.00142892,-0.00290666,0.00304241,-0.00703823,-0.00061274,0.00
 051446,0.00043629,-0.00007071,0.00037266,0.00106366,0.00066426,-0.0005
 0519,0.00176798,-0.09400707,-0.15099135,0.24263991,-0.06408734,0.01904
 931,0.01237123,0.01523116,-0.00089143,-0.00264645,-0.00564795,0.006723
 84,-0.00066658,-0.00126759,-0.00304310,0.00108574,-0.00014067,0.009273
 74,-0.00257833,-0.00042359,0.00040844,-0.00041167,-0.00052183,0.000868
 90,-0.00047927,-0.01527140,-0.00439903,-0.00416882,-0.34824275,-0.0211
 4083,0.03403067,0.54834935,0.03679454,0.00640458,0.00160046,0.00752659
 ,0.00220459,-0.00175740,-0.00195150,0.00303406,-0.00103070,0.00367529,
 -0.00046880,0.00045565,-0.00272999,-0.00397190,-0.00045142,-0.00017402
 ,0.00006095,-0.00015071,0.00023631,-0.00043983,0.00029934,-0.00569483,
 0.00006540,-0.00024312,-0.02398018,-0.12014290,0.01929064,0.13268810,0
 .32858557,0.00691082,-0.00092487,0.01069853,-0.00230029,-0.00056483,-0
 .00037583,0.00092679,-0.00119902,0.00086127,0.00010948,0.00041936,0.00
 043191,-0.00138172,-0.00110921,0.00494140,0.00011544,-0.00012581,-0.00
 000667,0.00012459,-0.00032034,-0.00040676,0.00151002,0.00140224,-0.000
 88949,0.03373536,0.02231823,-0.06516549,-0.10053684,-0.11630945,0.0822
 3164,0.01725435,0.00425434,-0.00677153,-0.00378468,-0.00015359,0.00235
 517,0.00146391,0.00239566,-0.00082210,0.00240230,-0.00016484,0.0005017
 3,0.00330443,0.00619909,-0.00002725,0.00002577,0.00033939,-0.00001898,
 0.00008776,-0.00019149,0.00008574,-0.00115469,0.00044941,-0.00054987,-
 0.21243046,-0.22107708,0.05788341,-0.06191365,-0.07478034,0.02633184,0
 .25240877,-0.00407869,-0.09284261,0.00948931,0.00100922,-0.00526860,0.
 00241070,0.00200215,-0.00378898,0.00039909,-0.00108936,-0.00322533,0.0
 0071030,0.00036968,0.00550137,0.00193115,0.00110354,-0.00066079,0.0004
 2718,0.00064727,-0.00043795,0.00018187,0.00726776,0.00275745,0.0029797
 9,-0.22771296,-0.54721031,0.11295235,-0.05217712,-0.01189325,0.0126754
 7,0.27489413,0.65387440,-0.00021521,0.01346856,0.01657085,0.00290337,0
 .00244667,0.00353799,-0.00076959,0.00043527,0.00080620,0.00034037,0.00
 012928,-0.00007399,-0.00044653,-0.00171824,-0.00066453,-0.00001335,-0.
 00000714,-0.00013002,-0.00010899,0.00004483,-0.00010900,-0.00134837,-0
 .00007008,-0.00103710,0.05542465,0.11282068,-0.10904230,0.01797004,0.0
 1293345,0.01415502,-0.07492223,-0.14129114,0.07018317,-0.00088163,0.00
 152197,-0.00030796,-0.00535908,0.00205466,0.00222469,0.00076016,-0.000
 67135,0.00095656,-0.00053468,-0.00016215,-0.00013269,-0.00123081,0.000
 17233,-0.00010540,-0.00006229,0.00016220,0.00003190,-0.00023881,0.0000
 0528,-0.00010687,0.00064710,-0.00149183,-0.00262247,0.01561230,-0.0025
 2877,0.00014340,-0.02733332,-0.03441230,0.01827215,-0.00589741,-0.0037
 3848,0.00092811,0.11175634,-0.00561949,0.00265518,0.00147396,0.0085150
 8,0.00314831,0.00377496,-0.00224553,0.00267237,0.00007134,-0.00002247,
 -0.00073359,0.00024057,0.00096755,0.00266957,-0.00086608,-0.00040900,0
 .00017354,-0.00034757,-0.00006105,0.00016485,-0.00016438,-0.01472286,-
 0.00891376,-0.00709834,0.02946836,-0.01209235,0.00068104,-0.05700807,-
 0.03800929,0.02641445,-0.00928269,-0.00205799,0.00103802,-0.06278925,0
 .22336955,0.00069262,-0.00025608,0.00032607,0.00341275,0.00295606,0.00
 500107,-0.00015692,0.00059723,0.00037390,0.00007582,-0.00031168,0.0001
 0017,0.00023844,0.00044288,-0.00009985,-0.00008835,-0.00008184,-0.0003
 4089,0.00010167,-0.00003449,-0.00011714,-0.01048761,-0.00609515,-0.007
 48372,-0.00345664,0.00222162,0.00009984,0.01750505,0.01772292,0.003369
 78,0.00240227,0.00165914,-0.00065896,0.07169866,-0.10846035,0.57171330
 ,-0.00095522,-0.00008778,0.00029000,0.00153321,-0.00062396,-0.00189844
 ,-0.00093424,0.00058670,-0.00026224,0.00012156,0.00003265,0.00004302,0
 .00049739,0.00032832,-0.00009846,-0.00002119,0.00002860,0.00004344,0.0
 0005250,0.00002659,0.00003741,0.00042212,0.00078546,0.00216805,0.00147
 661,-0.00224547,0.00044583,-0.00458580,-0.00353513,-0.00004516,-0.0004
 3330,0.00057908,-0.00006625,-0.03919602,0.04403753,-0.12115376,0.03571
 982,-0.00017161,-0.00014853,0.00026046,0.00013914,-0.00051098,-0.00035
 106,0.00001108,0.00003675,-0.00011601,0.00009144,0.00013504,-0.0000076
 2,-0.00002249,-0.00023617,0.00001230,0.00007973,-0.00005695,-0.0000265
 2,0.00000661,0.00000744,0.00002067,0.00056620,0.00035208,-0.00027056,-
 0.00047803,-0.00056206,0.00029742,-0.00353157,-0.00262293,-0.00076777,
 -0.00035865,-0.00031064,0.00002599,0.04115998,-0.09030537,0.16746008,-
 0.04040377,0.08401916,0.00032217,0.00021017,-0.00011578,-0.00115444,0.
 00027417,0.00062934,0.00044785,-0.00030272,0.00013263,-0.00013588,-0.0
 0007662,-0.00003725,-0.00037556,-0.00016020,0.00001197,0.00002089,0.00
 002223,0.00003223,-0.00004690,-0.00001478,-0.00001083,0.00057899,-0.00
 031034,-0.00142902,0.00007694,0.00087150,-0.00007752,-0.00027590,-0.00
 136024,0.00088281,-0.00017925,-0.00049737,0.00002782,-0.10152198,0.149
 10941,-0.45729347,0.10825503,-0.16049969,0.47352985,0.00473636,-0.0028
 9464,-0.00021051,-0.00487430,-0.00022880,-0.00122941,0.00115564,-0.001
 49859,-0.00040501,0.00070567,0.00033560,-0.00008737,-0.00042628,-0.002
 49538,0.00033580,0.00032574,-0.00027399,0.00011367,0.00026225,-0.00020
 411,0.00020093,0.00780581,0.00586457,0.00388241,-0.04129295,-0.0110010
 5,0.00688749,-0.03888849,-0.03497185,0.01496595,0.00822354,0.00410030,
 -0.00027496,-0.01041113,0.02061236,-0.00520270,0.00614237,0.00735743,-
 0.00061721,0.06708798,0.01130889,-0.00438161,-0.00288403,-0.00714676,0
 .00034918,0.00043608,0.00317417,-0.00403480,0.00062876,-0.00016186,0.0
 0090914,-0.00034585,-0.00124817,-0.00341939,0.00104343,0.00038620,-0.0
 0021205,0.00020269,0.00015220,-0.00033500,0.00013649,0.01150239,0.0019
 5969,0.00067827,-0.03988132,0.01856710,-0.00678076,-0.03615912,-0.1673
 3322,0.06117015,0.01596010,0.00765384,-0.00025138,0.02295452,0.0130090
 1,-0.00892983,0.00248273,0.00185711,0.00237190,0.02408510,0.15110353,-
 0.00447524,0.00128232,0.00093821,0.00287711,-0.00059680,-0.00051804,-0
 .00125384,0.00112124,-0.00039731,-0.00025119,-0.00005656,0.00005966,0.
 00082161,0.00142278,-0.00075575,-0.00015632,0.00012750,-0.00002718,-0.
 00012953,0.00017204,-0.00000043,-0.00177549,-0.00268778,0.00026235,0.0
 1637770,-0.01049069,-0.00896334,0.01881297,0.06385707,-0.04696157,-0.0
 0801572,-0.00228730,0.00621930,-0.01697569,-0.02362246,-0.02707651,0.0
 0700983,0.00903245,-0.00364739,-0.00881866,-0.03806886,0.07334150,0.00
 285775,0.00037579,-0.00483775,-0.04269893,-0.02327973,-0.02906865,0.00
 527929,-0.00656868,-0.00033729,-0.00194473,0.00027525,0.00040864,-0.00
 358207,-0.00309013,0.00066563,0.00002177,0.00036355,0.00021765,-0.0004
 7845,-0.00014799,0.00035611,0.01665928,0.01226131,0.02720341,-0.013190
 73,0.00980156,0.00049649,0.01326152,0.00498889,-0.00405015,0.00176185,
 -0.00420225,0.00049268,0.00313694,0.03542145,0.03944108,-0.00224458,0.
 00432376,0.00263890,-0.01111367,-0.01040813,0.00591835,0.11433113,0.00
 058374,0.00286698,-0.00103021,-0.02308014,-0.00142441,-0.01323202,0.00
 076827,-0.00390850,-0.00063340,-0.00223841,-0.00031051,0.00047518,-0.0
 0153765,0.00039321,-0.00043483,-0.00060353,0.00031594,-0.00077762,-0.0
 0037399,-0.00010814,0.00016717,0.01153652,-0.01418357,0.01142321,0.005
 84723,0.00220139,-0.00018924,-0.00502359,-0.00431790,0.00064604,-0.001
 95056,-0.00217516,0.00062852,0.01815541,-0.02650693,-0.04956320,0.0026
 2799,-0.00608141,-0.00354887,0.00427478,0.00661487,-0.00084635,-0.0440
 3081,0.10262177,-0.00325910,0.00088209,-0.00208953,-0.02095859,-0.0138
 9196,-0.00160784,0.00087454,-0.00119210,0.00056481,-0.00086711,-0.0005
 0058,0.00028011,-0.00213934,-0.00112025,0.00016931,0.00014547,0.000150
 95,-0.00057530,-0.00024298,-0.00008866,-0.00006677,0.01226954,0.007266
 33,-0.01691441,0.00274290,0.00066083,-0.00133045,-0.00506809,-0.004183
 42,0.00436854,-0.00140793,-0.00171297,0.00083082,0.02500555,-0.0578938
 9,-0.04243958,0.00087299,-0.00165954,0.00070682,0.00754401,0.00815626,
 -0.00637918,0.11586908,-0.05069573,0.57658437,-0.00098776,0.00007376,-
 0.00054078,-0.00439764,-0.00445991,-0.00071454,0.00028518,0.00001524,0
 .00024863,-0.00013540,-0.00025108,0.00010612,-0.00062229,-0.00033637,0
 .00009117,0.00007562,0.00002453,-0.00012460,-0.00003139,-0.00002413,-0
 .00002039,0.00606207,0.00753847,-0.00650302,-0.00023404,-0.00025101,-0
 .00034235,0.00003326,0.00019069,0.00026050,0.00001993,0.00000501,0.000
 09679,-0.00279996,0.00618880,0.00250248,-0.00006777,-0.00042869,-0.000
 37247,0.00008525,0.00006399,-0.00001309,-0.05169390,0.02764420,-0.1271
 6700,0.04772318,-0.00006490,-0.00020113,-0.00014691,-0.00352530,-0.001
 93460,-0.00124340,0.00001799,-0.00030683,0.00007014,-0.00005816,0.0000
 0599,-0.00004058,-0.00031580,-0.00023302,0.00013723,-0.00004232,0.0000
 1868,0.00004659,0.00001193,-0.00001827,0.00001444,0.00397528,0.0030179
 5,-0.00300279,-0.00185070,-0.00004649,-0.00020315,0.00099638,0.0003638
 7,0.00105364,0.00033300,0.00007829,0.00001493,0.00378963,-0.00629621,-
 0.00268308,-0.00019178,0.00018291,0.00031458,0.00031856,0.00023884,-0.
 00144442,0.03128868,-0.02974683,0.10174491,-0.02687605,0.02686075,-0.0
 0009873,-0.00006660,-0.00007647,0.00078309,0.00025232,0.00111014,-0.00
 004161,0.00007634,0.00000341,0.00004016,-0.00003586,-0.00000792,0.0000
 3420,-0.00002186,-0.00002685,-0.00000733,-0.00001936,0.00000138,0.0000
 1704,-0.00000636,-0.00000520,-0.00111428,0.00021174,-0.00337692,-0.000
 76511,-0.00027813,0.00003674,0.00033072,0.00021895,0.00043982,0.000174
 87,0.00017356,-0.00008380,0.00232065,-0.00407515,-0.00024292,-0.000140
 48,0.00044309,0.00049769,0.00023030,-0.00001261,-0.00088008,-0.1209674
 6,0.08349981,-0.49964424,0.12692145,-0.08861676,0.51011047,-0.00159493
 ,0.00016261,0.00094111,0.00538404,0.00156471,0.00271452,-0.00104822,0.
 00188312,0.00009790,0.00036481,-0.00044436,0.00020589,0.00091724,0.001
 32771,-0.00035627,-0.00014730,-0.00003073,-0.00021908,0.00012739,0.000
 06628,-0.00010508,-0.02146263,-0.00292231,-0.00099546,0.00610988,-0.00
 418399,-0.00043880,-0.00855092,-0.00387027,0.00505122,-0.00133840,0.00
 102074,0.00000950,-0.03796771,0.00694930,0.00247514,0.00247253,-0.0083
 4057,-0.00766118,0.01047621,0.00293508,-0.00995280,-0.03036247,0.00740
 053,-0.00421391,0.00668567,-0.00780643,-0.00771747,0.06993482,0.001970
 56,-0.00147307,-0.00115096,-0.00703886,-0.00491764,-0.00664930,0.00122
 082,-0.00153455,-0.00059012,0.00017132,0.00059177,-0.00009833,-0.00056
 059,-0.00171006,0.00056866,0.00032242,-0.00007907,0.00045816,-0.000011
 29,-0.00003524,0.00018918,0.01469769,0.01319675,0.01135729,-0.01308014
 ,0.00387181,0.00151323,0.01336516,0.00848100,-0.00477829,0.00313413,0.
 00000626,-0.00064822,0.01581816,-0.06294691,-0.01664423,-0.00442774,0.
 01424455,0.01359688,-0.01338027,-0.02254622,0.00308582,-0.00737253,-0.
 02625079,0.01407772,-0.00911744,0.00801609,0.00825689,0.00428860,0.073
 08534,0.00205055,-0.00120402,-0.00148640,-0.00819534,-0.00496171,-0.00
 812306,0.00088477,-0.00197692,-0.00070221,-0.00003956,0.00071481,-0.00
 018514,-0.00047264,-0.00161428,0.00054584,0.00023195,0.00002627,0.0005
 7485,-0.00005819,-0.00003498,0.00023647,0.02054505,0.01163265,0.015734
 90,-0.01131700,0.00463945,0.00124043,0.01472554,0.00910797,-0.00857492
 ,0.00297985,-0.00020114,-0.00053146,0.00019142,0.01972448,-0.04523107,
 0.00449920,-0.01385367,-0.01383989,-0.01731475,-0.01755072,0.01478575,
 -0.03444673,0.02411154,-0.01245747,0.00557112,-0.00601536,-0.00785526,
 0.02016478,-0.02254439,0.06586865\\0.00003186,-0.00004166,0.00001665,-
 0.00000084,0.00001455,0.00000675,-0.00000604,0.00000058,-0.00000431,0.
 00000376,0.00000888,-0.00000031,0.00000943,-0.00000086,-0.00000711,-0.
 00000057,0.00000027,-0.00000112,0.00000047,0.00000067,-0.00000103,-0.0
 0000544,-0.00000961,-0.00001123,-0.00001729,0.00002597,-0.00001394,-0.
 00001527,-0.00000031,0.00000832,-0.00000593,-0.00000363,0.00000983,0.,
 0.00000753,0.00000409,-0.00000381,-0.00000055,0.00000364,0.00000761,-0
 .00000035,-0.00000637,0.00000093,-0.00000237,-0.00000180,-0.00000031,0
 .00000289,-0.00000021,0.00000144,-0.00000200,-0.00000184\\\@


 THE PROMISED LAND ALWAYS LIES ON THE OTHER SIDE OF A WILDERNESS.

                         -- HAVELOCK ELLIS
 Job cpu time:       0 days  0 hours 31 minutes 55.1 seconds.
 Elapsed time:       0 days  0 hours  1 minutes  4.2 seconds.
 File lengths (MBytes):  RWF=    190 Int=      0 D2E=      0 Chk=      7 Scr=      1
 Normal termination of Gaussian 16 at Sat May 27 15:41:40 2023.
