 Entering Gaussian System, Link 0=/opt/soft/g16/g16
 Initial command:
 /opt/soft/g16/l1.exe "/scratch/gongke2021/2-H-1-H-Tz/Gau-28957.inp" -scrdir="/scratch/gongke2021/2-H-1-H-Tz/"
 Entering Link 1 = /opt/soft/g16/l1.exe PID=     28958.
  
 Copyright (c) 1988,1990,1992,1993,1995,1998,2003,2009,2016,
            Gaussian, Inc.  All Rights Reserved.
  
 This is part of the Gaussian(R) 16 program.  It is based on
 the Gaussian(R) 09 system (copyright 2009, Gaussian, Inc.),
 the Gaussian(R) 03 system (copyright 2003, Gaussian, Inc.),
 the Gaussian(R) 98 system (copyright 1998, Gaussian, Inc.),
 the Gaussian(R) 94 system (copyright 1995, Gaussian, Inc.),
 the Gaussian 92(TM) system (copyright 1992, Gaussian, Inc.),
 the Gaussian 90(TM) system (copyright 1990, Gaussian, Inc.),
 the Gaussian 88(TM) system (copyright 1988, Gaussian, Inc.),
 the Gaussian 86(TM) system (copyright 1986, Carnegie Mellon
 University), and the Gaussian 82(TM) system (copyright 1983,
 Carnegie Mellon University). Gaussian is a federally registered
 trademark of Gaussian, Inc.
  
 This software contains proprietary and confidential information,
 including trade secrets, belonging to Gaussian, Inc.
  
 This software is provided under written license and may be
 used, copied, transmitted, or stored only in accord with that
 written license.
  
 The following legend is applicable only to US Government
 contracts under FAR:
  
                    RESTRICTED RIGHTS LEGEND
  
 Use, reproduction and disclosure by the US Government is
 subject to restrictions as set forth in subparagraphs (a)
 and (c) of the Commercial Computer Software - Restricted
 Rights clause in FAR 52.227-19.
  
 Gaussian, Inc.
 340 Quinnipiac St., Bldg. 40, Wallingford CT 06492
  
  
 ---------------------------------------------------------------
 Warning -- This program may not be used in any manner that
 competes with the business of Gaussian, Inc. or will provide
 assistance to any competitor of Gaussian, Inc.  The licensee
 of this program is prohibited from giving any competitor of
 Gaussian, Inc. access to this program.  By using this program,
 the user acknowledges that Gaussian, Inc. is engaged in the
 business of creating and licensing software in the field of
 computational chemistry and represents and warrants to the
 licensee that it is not a competitor of Gaussian, Inc. and that
 it will not use this program in any manner prohibited above.
 ---------------------------------------------------------------
  

 Cite this work as:
 Gaussian 16, Revision A.03,
 M. J. Frisch, G. W. Trucks, H. B. Schlegel, G. E. Scuseria, 
 M. A. Robb, J. R. Cheeseman, G. Scalmani, V. Barone, 
 G. A. Petersson, H. Nakatsuji, X. Li, M. Caricato, A. V. Marenich, 
 J. Bloino, B. G. Janesko, R. Gomperts, B. Mennucci, H. P. Hratchian, 
 J. V. Ortiz, A. F. Izmaylov, J. L. Sonnenberg, D. Williams-Young, 
 F. Ding, F. Lipparini, F. Egidi, J. Goings, B. Peng, A. Petrone, 
 T. Henderson, D. Ranasinghe, V. G. Zakrzewski, J. Gao, N. Rega, 
 G. Zheng, W. Liang, M. Hada, M. Ehara, K. Toyota, R. Fukuda, 
 J. Hasegawa, M. Ishida, T. Nakajima, Y. Honda, O. Kitao, H. Nakai, 
 T. Vreven, K. Throssell, J. A. Montgomery, Jr., J. E. Peralta, 
 F. Ogliaro, M. J. Bearpark, J. J. Heyd, E. N. Brothers, K. N. Kudin, 
 V. N. Staroverov, T. A. Keith, R. Kobayashi, J. Normand, 
 K. Raghavachari, A. P. Rendell, J. C. Burant, S. S. Iyengar, 
 J. Tomasi, M. Cossi, J. M. Millam, M. Klene, C. Adamo, R. Cammi, 
 J. W. Ochterski, R. L. Martin, K. Morokuma, O. Farkas, 
 J. B. Foresman, and D. J. Fox, Gaussian, Inc., Wallingford CT, 2016.
 
 ******************************************
 Gaussian 16:  ES64L-G16RevA.03 25-Dec-2016
                 9-May-2023 
 ******************************************
 %mem=10GB
 %nprocshared=24
 Will use up to   24 processors via shared memory.
 ----------------------------
 # opt freq 6-31+g(d,p) m062x
 ----------------------------
 1/18=20,19=15,26=3,38=1/1,3;
 2/9=110,12=2,17=6,18=5,40=1/2;
 3/5=1,6=6,7=111,11=2,25=1,30=1,71=1,74=-55/1,2,3;
 4//1;
 5/5=2,38=5/2;
 6/7=2,8=2,9=2,10=2,28=1/1;
 7//1,2,3,16;
 1/18=20,19=15,26=3/3(2);
 2/9=110/2;
 99//99;
 2/9=110/2;
 3/5=1,6=6,7=111,11=2,25=1,30=1,71=1,74=-55/1,2,3;
 4/5=5,16=3,69=1/1;
 5/5=2,38=5/2;
 7//1,2,3,16;
 1/18=20,19=15,26=3/3(-5);
 2/9=110/2;
 6/7=2,8=2,9=2,10=2,19=2,28=1/1;
 99/9=1/99;
 ----------
 2-H-1-H-Tz
 ----------
 Symbolic Z-matrix:
 Charge =  1 Multiplicity = 1
 N                     0.504    -1.058     0. 
 N                     1.052     0.161     0. 
 C                     0.111     1.132     0. 
 C                    -1.069     0.43      0. 
 N                    -0.78     -0.902     0. 
 H                     0.348     2.184     0. 
 H                    -2.086     0.788     0. 
 H                     2.058     0.247    -0.001 
 H                     1.2495   -1.8804    0. 
 

 GradGradGradGradGradGradGradGradGradGradGradGradGradGradGradGradGradGrad
 Berny optimization.
 Initialization pass.
                           ----------------------------
                           !    Initial Parameters    !
                           ! (Angstroms and Degrees)  !
 --------------------------                            --------------------------
 ! Name  Definition              Value          Derivative Info.                !
 --------------------------------------------------------------------------------
 ! R1    R(1,2)                  1.3365         estimate D2E/DX2                !
 ! R2    R(1,5)                  1.2934         estimate D2E/DX2                !
 ! R3    R(1,9)                  1.11           estimate D2E/DX2                !
 ! R4    R(2,3)                  1.3522         estimate D2E/DX2                !
 ! R5    R(2,8)                  1.0097         estimate D2E/DX2                !
 ! R6    R(3,4)                  1.373          estimate D2E/DX2                !
 ! R7    R(3,6)                  1.0784         estimate D2E/DX2                !
 ! R8    R(4,5)                  1.363          estimate D2E/DX2                !
 ! R9    R(4,7)                  1.0782         estimate D2E/DX2                !
 ! A1    A(2,1,5)              107.279          estimate D2E/DX2                !
 ! A2    A(2,1,9)              113.6017         estimate D2E/DX2                !
 ! A3    A(5,1,9)              139.1193         estimate D2E/DX2                !
 ! A4    A(1,2,3)              111.6927         estimate D2E/DX2                !
 ! A5    A(1,2,8)              119.0924         estimate D2E/DX2                !
 ! A6    A(3,2,8)              129.2149         estimate D2E/DX2                !
 ! A7    A(2,3,4)              103.352          estimate D2E/DX2                !
 ! A8    A(2,3,6)              123.203          estimate D2E/DX2                !
 ! A9    A(4,3,6)              133.445          estimate D2E/DX2                !
 ! A10   A(3,4,5)              108.5075         estimate D2E/DX2                !
 ! A11   A(3,4,7)              129.8581         estimate D2E/DX2                !
 ! A12   A(5,4,7)              121.6344         estimate D2E/DX2                !
 ! A13   A(1,5,4)              109.1688         estimate D2E/DX2                !
 ! D1    D(5,1,2,3)              0.0            estimate D2E/DX2                !
 ! D2    D(5,1,2,8)           -179.9351         estimate D2E/DX2                !
 ! D3    D(9,1,2,3)            180.0            estimate D2E/DX2                !
 ! D4    D(9,1,2,8)              0.0649         estimate D2E/DX2                !
 ! D5    D(2,1,5,4)              0.0            estimate D2E/DX2                !
 ! D6    D(9,1,5,4)            180.0            estimate D2E/DX2                !
 ! D7    D(1,2,3,4)              0.0            estimate D2E/DX2                !
 ! D8    D(1,2,3,6)            180.0            estimate D2E/DX2                !
 ! D9    D(8,2,3,4)            179.9268         estimate D2E/DX2                !
 ! D10   D(8,2,3,6)             -0.0732         estimate D2E/DX2                !
 ! D11   D(2,3,4,5)              0.0            estimate D2E/DX2                !
 ! D12   D(2,3,4,7)            180.0            estimate D2E/DX2                !
 ! D13   D(6,3,4,5)            180.0            estimate D2E/DX2                !
 ! D14   D(6,3,4,7)              0.0            estimate D2E/DX2                !
 ! D15   D(3,4,5,1)              0.0            estimate D2E/DX2                !
 ! D16   D(7,4,5,1)            180.0            estimate D2E/DX2                !
 --------------------------------------------------------------------------------
 Trust Radius=3.00D-01 FncErr=1.00D-07 GrdErr=1.00D-06 EigMax=2.50D+02 EigMin=1.00D-04
 Number of steps in this run=     48 maximum allowed number of steps=    100.
 GradGradGradGradGradGradGradGradGradGradGradGradGradGradGradGradGradGrad

                          Input orientation:                          
 ---------------------------------------------------------------------
 Center     Atomic      Atomic             Coordinates (Angstroms)
 Number     Number       Type             X           Y           Z
 ---------------------------------------------------------------------
      1          7           0        0.504000   -1.058000    0.000000
      2          7           0        1.052000    0.161000    0.000000
      3          6           0        0.111000    1.132000    0.000000
      4          6           0       -1.069000    0.430000    0.000000
      5          7           0       -0.780000   -0.902000    0.000000
      6          1           0        0.348000    2.184000    0.000000
      7          1           0       -2.086000    0.788000    0.000000
      8          1           0        2.058000    0.247000   -0.001000
      9          1           0        1.249500   -1.880400    0.000000
 ---------------------------------------------------------------------
                    Distance matrix (angstroms):
                    1          2          3          4          5
     1  N    0.000000
     2  N    1.336512   0.000000
     3  C    2.224983   1.352155   0.000000
     4  C    2.165288   2.137990   1.373027   0.000000
     5  N    1.293442   2.118064   2.220594   1.362991   0.000000
     6  H    3.245751   2.141996   1.078366   2.254863   3.285693
     7  H    3.180537   3.200027   2.223768   1.078171   2.135822
     8  H    2.029271   1.009670   2.138699   3.132350   3.061772
     9  H    1.110005   2.050932   3.220363   3.273132   2.253028
                    6          7          8          9
     6  H    0.000000
     7  H    2.805917   0.000000
     8  H    2.583809   4.179165   0.000000
     9  H    4.163178   4.271524   2.275852   0.000000
 Stoichiometry    C2H4N3(1+)
 Framework group  C1[X(C2H4N3)]
 Deg. of freedom    21
 Full point group                 C1      NOp   1
 Largest Abelian subgroup         C1      NOp   1
 Largest concise Abelian subgroup C1      NOp   1
                         Standard orientation:                         
 ---------------------------------------------------------------------
 Center     Atomic      Atomic             Coordinates (Angstroms)
 Number     Number       Type             X           Y           Z
 ---------------------------------------------------------------------
      1          7           0       -1.062318   -0.326793   -0.000027
      2          7           0       -0.525715    0.897266   -0.000027
      3          6           0        0.825633    0.850572   -0.000027
      4          6           0        1.096388   -0.495495   -0.000027
      5          7           0       -0.085416   -1.174527   -0.000027
      6          1           0        1.446961    1.731948   -0.000027
      7          1           0        2.044037   -1.009707   -0.000027
      8          1           0       -1.136664    1.701115    0.000973
      9          1           0       -2.172323   -0.325437   -0.000027
 ---------------------------------------------------------------------
 Rotational constants (GHZ):           9.9910395           9.2052308           4.7910258
 Standard basis: 6-31+G(d,p) (6D, 7F)
 There are   115 symmetry adapted cartesian basis functions of A   symmetry.
 There are   115 symmetry adapted basis functions of A   symmetry.
   115 basis functions,   188 primitive gaussians,   115 cartesian basis functions
    18 alpha electrons       18 beta electrons
       nuclear repulsion energy       174.6948245218 Hartrees.
 NAtoms=    9 NActive=    9 NUniq=    9 SFac= 1.00D+00 NAtFMM=   60 NAOKFM=F Big=F
 Integral buffers will be    131072 words long.
 Raffenetti 2 integral format.
 Two-electron integral symmetry is turned on.
 One-electron integrals computed using PRISM.
 NBasis=   115 RedAO= T EigKep=  7.58D-05  NBF=   115
 NBsUse=   115 1.00D-06 EigRej= -1.00D+00 NBFU=   115
 ExpMin= 4.38D-02 ExpMax= 4.17D+03 ExpMxC= 6.27D+02 IAcc=3 IRadAn=         5 AccDes= 0.00D+00
 Harris functional with IExCor= 1009 and IRadAn=       5 diagonalized for initial guess.
 HarFok:  IExCor= 1009 AccDes= 0.00D+00 IRadAn=         5 IDoV= 1 UseB2=F ITyADJ=14
 ICtDFT=  3500011 ScaDFX=  1.000000  1.000000  1.000000  1.000000
 FoFCou: FMM=F IPFlag=           0 FMFlag=      100000 FMFlg1=           0
         NFxFlg=           0 DoJE=T BraDBF=F KetDBF=T FulRan=T
         wScrn=  0.000000 ICntrl=       500 IOpCl=  0 I1Cent=   200000004 NGrid=           0
         NMat0=    1 NMatS0=      1 NMatT0=    0 NMatD0=    1 NMtDS0=    0 NMtDT0=    0
 Petite list used in FoFCou.
 Keep R1 ints in memory in canonical form, NReq=44774372.
 Requested convergence on RMS density matrix=1.00D-08 within 128 cycles.
 Requested convergence on MAX density matrix=1.00D-06.
 Requested convergence on             energy=1.00D-06.
 No special actions if energy rises.
 SCF Done:  E(RM062X) =  -242.449540629     A.U. after   13 cycles
            NFock= 13  Conv=0.45D-08     -V/T= 2.0091

 **********************************************************************

            Population analysis using the SCF density.

 **********************************************************************

 Orbital symmetries:
       Occupied  (A) (A) (A) (A) (A) (A) (A) (A) (A) (A) (A) (A)
                 (A) (A) (A) (A) (A) (A)
       Virtual   (A) (A) (A) (A) (A) (A) (A) (A) (A) (A) (A) (A)
                 (A) (A) (A) (A) (A) (A) (A) (A) (A) (A) (A) (A)
                 (A) (A) (A) (A) (A) (A) (A) (A) (A) (A) (A) (A)
                 (A) (A) (A) (A) (A) (A) (A) (A) (A) (A) (A) (A)
                 (A) (A) (A) (A) (A) (A) (A) (A) (A) (A) (A) (A)
                 (A) (A) (A) (A) (A) (A) (A) (A) (A) (A) (A) (A)
                 (A) (A) (A) (A) (A) (A) (A) (A) (A) (A) (A) (A)
                 (A) (A) (A) (A) (A) (A) (A) (A) (A) (A) (A) (A)
                 (A)
 The electronic state is 1-A.
 Alpha  occ. eigenvalues --  -15.14607 -15.11089 -15.04741 -10.84166 -10.80852
 Alpha  occ. eigenvalues --   -1.49570  -1.26776  -1.18230  -0.98173  -0.96825
 Alpha  occ. eigenvalues --   -0.93660  -0.81238  -0.80554  -0.76444  -0.73386
 Alpha  occ. eigenvalues --   -0.61344  -0.60120  -0.57082
 Alpha virt. eigenvalues --   -0.22402  -0.17588  -0.13645  -0.13566  -0.10605
 Alpha virt. eigenvalues --   -0.09786  -0.08804  -0.08389  -0.06599  -0.03502
 Alpha virt. eigenvalues --   -0.03433  -0.03231  -0.01910  -0.01005   0.02129
 Alpha virt. eigenvalues --    0.03107   0.03740   0.04444   0.05138   0.05958
 Alpha virt. eigenvalues --    0.06803   0.07845   0.09971   0.10400   0.13822
 Alpha virt. eigenvalues --    0.14605   0.14807   0.18437   0.22852   0.26514
 Alpha virt. eigenvalues --    0.32495   0.48090   0.50375   0.55243   0.58849
 Alpha virt. eigenvalues --    0.63489   0.65236   0.68000   0.69265   0.71602
 Alpha virt. eigenvalues --    0.73850   0.73910   0.76647   0.80056   0.80467
 Alpha virt. eigenvalues --    0.83399   0.85830   0.90792   0.96904   1.04894
 Alpha virt. eigenvalues --    1.05057   1.09300   1.11448   1.12671   1.15334
 Alpha virt. eigenvalues --    1.22786   1.23792   1.32489   1.35055   1.41424
 Alpha virt. eigenvalues --    1.55141   1.67094   1.70150   1.75856   1.84993
 Alpha virt. eigenvalues --    1.86806   1.90272   1.94094   1.96878   2.02383
 Alpha virt. eigenvalues --    2.03326   2.08346   2.18211   2.23148   2.24120
 Alpha virt. eigenvalues --    2.28816   2.30181   2.31388   2.37466   2.40855
 Alpha virt. eigenvalues --    2.44361   2.48513   2.56249   2.60143   2.65488
 Alpha virt. eigenvalues --    2.70938   2.80727   3.01433   3.06162   3.12672
 Alpha virt. eigenvalues --    3.39292   3.55286   3.78365   3.96305   4.09900
 Alpha virt. eigenvalues --    4.19226   4.49144
          Condensed to atoms (all electrons):
               1          2          3          4          5          6
     1  N    6.372950   0.264390  -0.132735   0.090386   0.149752   0.008692
     2  N    0.264390   6.386309   0.382491  -0.123712   0.008311  -0.032423
     3  C   -0.132735   0.382491   5.202822   0.178587   0.032004   0.341949
     4  C    0.090386  -0.123712   0.178587   5.267604   0.320015   0.026738
     5  N    0.149752   0.008311   0.032004   0.320015   6.580539  -0.005730
     6  H    0.008692  -0.032423   0.341949   0.026738  -0.005730   0.381598
     7  H    0.014099  -0.004265  -0.011816   0.380323  -0.047901   0.000067
     8  H   -0.011196   0.301726   0.011138  -0.005760   0.004448  -0.000571
     9  H    0.269559  -0.018561   0.001511   0.007191   0.008696   0.000002
               7          8          9
     1  N    0.014099  -0.011196   0.269559
     2  N   -0.004265   0.301726  -0.018561
     3  C   -0.011816   0.011138   0.001511
     4  C    0.380323  -0.005760   0.007191
     5  N   -0.047901   0.004448   0.008696
     6  H    0.000067  -0.000571   0.000002
     7  H    0.406727  -0.000047   0.000015
     8  H   -0.000047   0.304178   0.000024
     9  H    0.000015   0.000024   0.282479
 Mulliken charges:
               1
     1  N   -0.025896
     2  N   -0.164265
     3  C   -0.005950
     4  C   -0.141371
     5  N   -0.050135
     6  H    0.279678
     7  H    0.262797
     8  H    0.396059
     9  H    0.449084
 Sum of Mulliken charges =   1.00000
 Mulliken charges with hydrogens summed into heavy atoms:
               1
     1  N    0.423188
     2  N    0.231794
     3  C    0.273728
     4  C    0.121426
     5  N   -0.050135
 Electronic spatial extent (au):  <R**2>=            267.3791
 Charge=              1.0000 electrons
 Dipole moment (field-independent basis, Debye):
    X=             -2.0495    Y=              3.6652    Z=              0.0016  Tot=              4.1993
 Quadrupole moment (field-independent basis, Debye-Ang):
   XX=             -9.9969   YY=            -21.2279   ZZ=            -28.9626
   XY=             -1.4393   XZ=             -0.0024   YZ=              0.0033
 Traceless Quadrupole moment (field-independent basis, Debye-Ang):
   XX=             10.0655   YY=             -1.1654   ZZ=             -8.9001
   XY=             -1.4393   XZ=             -0.0024   YZ=              0.0033
 Octapole moment (field-independent basis, Debye-Ang**2):
  XXX=            -16.8781  YYY=             20.2774  ZZZ=              0.0011  XYY=             -0.0087
  XXY=              1.0249  XXZ=              0.0026  XZZ=             -1.9847  YZZ=              0.3411
  YYZ=              0.0069  XYZ=             -0.0045
 Hexadecapole moment (field-independent basis, Debye-Ang**3):
 XXXX=            -83.4110 YYYY=           -131.4883 ZZZZ=            -27.1072 XXXY=             -2.8186
 XXXZ=             -0.0017 YYYX=             -6.3033 YYYZ=              0.0087 ZZZX=              0.0013
 ZZZY=             -0.0018 XXYY=            -30.2276 XXZZ=            -33.2000 YYZZ=            -30.8444
 XXYZ=              0.0044 YYXZ=             -0.0075 ZZXY=             -0.3249
 N-N= 1.746948245218D+02 E-N=-9.041677914113D+02  KE= 2.402733711801D+02
 Calling FoFJK, ICntrl=      2127 FMM=F ISym2X=0 I1Cent= 0 IOpClX= 0 NMat=1 NMatS=1 NMatT=0.
 ***** Axes restored to original set *****
 -------------------------------------------------------------------
 Center     Atomic                   Forces (Hartrees/Bohr)
 Number     Number              X              Y              Z
 -------------------------------------------------------------------
      1        7           0.030564144    0.022836699   -0.000017705
      2        7           0.017433772    0.016426650   -0.000020549
      3        6           0.020076952   -0.019271281   -0.000007082
      4        6           0.002490668   -0.030396269    0.000007822
      5        7          -0.019699465   -0.020247936    0.000013832
      6        1           0.002078354    0.001014842   -0.000003883
      7        1          -0.001508480   -0.002884962    0.000002545
      8        1           0.006799204    0.005721981    0.000023258
      9        1          -0.058235149    0.026800275    0.000001761
 -------------------------------------------------------------------
 Cartesian Forces:  Max     0.058235149 RMS     0.017988279

 GradGradGradGradGradGradGradGradGradGradGradGradGradGradGradGradGradGrad
 Berny optimization.
 FormGI is forming the generalized inverse of G from B-inverse, IUseBI=4.
 Internal  Forces:  Max     0.058968049 RMS     0.016497352
 Search for a local minimum.
 Step number   1 out of a maximum of   48
 All quantities printed in internal units (Hartrees-Bohrs-Radians)
 Mixed Optimization -- RFO/linear search
 Second derivative matrix not updated -- first step.
 ITU=  0
     Eigenvalues ---    0.02233   0.02293   0.02323   0.02386   0.02402
     Eigenvalues ---    0.02473   0.16000   0.16000   0.16000   0.16000
     Eigenvalues ---    0.22000   0.22936   0.32599   0.36192   0.36216
     Eigenvalues ---    0.45453   0.46028   0.47926   0.53348   0.56025
     Eigenvalues ---    0.65947
 RFO step:  Lambda=-3.42514163D-02 EMin= 2.23330031D-02
 Linear search not attempted -- first point.
 Maximum step size (   0.300) exceeded in Quadratic search.
    -- Step size scaled by   0.850
 Iteration  1 RMS(Cart)=  0.06200992 RMS(Int)=  0.00285198
 Iteration  2 RMS(Cart)=  0.00327573 RMS(Int)=  0.00019822
 Iteration  3 RMS(Cart)=  0.00001323 RMS(Int)=  0.00019782
 Iteration  4 RMS(Cart)=  0.00000000 RMS(Int)=  0.00019782
 Variable       Old X    -DE/DX   Delta X   Delta X   Delta X     New X
                                 (Linear)    (Quad)   (Total)
    R1        2.52564   0.00398   0.00000   0.00536   0.00574   2.53139
    R2        2.44425  -0.00587   0.00000  -0.00821  -0.00798   2.43627
    R3        2.09761  -0.05897   0.00000  -0.13911  -0.13911   1.95850
    R4        2.55520  -0.02326   0.00000  -0.03257  -0.03255   2.52266
    R5        1.90800   0.00726   0.00000   0.01248   0.01248   1.92048
    R6        2.59465   0.02272   0.00000   0.03705   0.03669   2.63133
    R7        2.03782   0.00145   0.00000   0.00310   0.00310   2.04092
    R8        2.57568  -0.02554   0.00000  -0.03983  -0.04008   2.53560
    R9        2.03745   0.00046   0.00000   0.00100   0.00100   2.03844
    A1        1.87237   0.03425   0.00000   0.10946   0.10995   1.98232
    A2        1.98272   0.00925   0.00000   0.06065   0.06041   2.04313
    A3        2.42809  -0.04350   0.00000  -0.17011  -0.17036   2.25773
    A4        1.94940  -0.02663   0.00000  -0.08755  -0.08719   1.86221
    A5        2.07855   0.01820   0.00000   0.06515   0.06497   2.14353
    A6        2.25523   0.00843   0.00000   0.02240   0.02222   2.27744
    A7        1.80383   0.00759   0.00000   0.02981   0.02952   1.83335
    A8        2.15030  -0.00564   0.00000  -0.02295  -0.02280   2.12750
    A9        2.32905  -0.00196   0.00000  -0.00686  -0.00671   2.32234
   A10        1.89381   0.00853   0.00000   0.02780   0.02727   1.92109
   A11        2.26645  -0.00098   0.00000   0.00046   0.00072   2.26717
   A12        2.12292  -0.00755   0.00000  -0.02826  -0.02800   2.09492
   A13        1.90535  -0.02374   0.00000  -0.07952  -0.07955   1.82581
    D1        0.00000  -0.00001   0.00000  -0.00015  -0.00015  -0.00015
    D2       -3.14046  -0.00001   0.00000  -0.00019  -0.00020  -3.14065
    D3        3.14159  -0.00000   0.00000  -0.00002  -0.00001   3.14158
    D4        0.00113  -0.00000   0.00000  -0.00006  -0.00005   0.00108
    D5        0.00000   0.00001   0.00000   0.00010   0.00010   0.00010
    D6        3.14159  -0.00001   0.00000  -0.00008  -0.00007   3.14153
    D7        0.00000   0.00001   0.00000   0.00014   0.00013   0.00013
    D8        3.14159   0.00000   0.00000   0.00005   0.00004  -3.14155
    D9        3.14031   0.00001   0.00000   0.00020   0.00020   3.14052
   D10       -0.00128   0.00001   0.00000   0.00011   0.00011  -0.00117
   D11        0.00000  -0.00001   0.00000  -0.00007  -0.00008  -0.00008
   D12        3.14159  -0.00001   0.00000  -0.00008  -0.00008   3.14151
   D13        3.14159   0.00000   0.00000   0.00003   0.00003  -3.14157
   D14        0.00000   0.00000   0.00000   0.00002   0.00002   0.00002
   D15        0.00000  -0.00000   0.00000  -0.00002  -0.00001  -0.00001
   D16        3.14159  -0.00000   0.00000  -0.00001  -0.00001   3.14159
         Item               Value     Threshold  Converged?
 Maximum Force            0.058968     0.000450     NO 
 RMS     Force            0.016497     0.000300     NO 
 Maximum Displacement     0.273062     0.001800     NO 
 RMS     Displacement     0.062274     0.001200     NO 
 Predicted change in Energy=-1.828172D-02
 GradGradGradGradGradGradGradGradGradGradGradGradGradGradGradGradGradGrad

                          Input orientation:                          
 ---------------------------------------------------------------------
 Center     Atomic      Atomic             Coordinates (Angstroms)
 Number     Number       Type             X           Y           Z
 ---------------------------------------------------------------------
      1          7           0        0.495645   -1.005085   -0.000063
      2          7           0        1.102226    0.189259   -0.000008
      3          6           0        0.135857    1.110223   -0.000069
      4          6           0       -1.053484    0.386097    0.000018
      5          7           0       -0.791374   -0.929835    0.000029
      6          1           0        0.355336    2.167695   -0.000081
      7          1           0       -2.074843    0.733109    0.000078
      8          1           0        2.113134    0.293551   -0.000869
      9          1           0        1.105002   -1.843415   -0.000035
 ---------------------------------------------------------------------
                    Distance matrix (angstroms):
                    1          2          3          4          5
     1  N    0.000000
     2  N    1.339552   0.000000
     3  C    2.145688   1.334932   0.000000
     4  C    2.082112   2.164678   1.392441   0.000000
     5  N    1.289217   2.199566   2.240891   1.341782   0.000000
     6  H    3.175881   2.114723   1.080008   2.271314   3.302974
     7  H    3.103019   3.223281   2.242635   1.078699   2.100637
     8  H    2.074301   1.016273   2.139294   3.167970   3.151640
     9  H    1.036393   2.032676   3.108572   3.103189   2.104963
                    6          7          8          9
     6  H    0.000000
     7  H    2.822022   0.000000
     8  H    2.569488   4.210981   0.000000
     9  H    4.080564   4.092662   2.362827   0.000000
 Stoichiometry    C2H4N3(1+)
 Framework group  C1[X(C2H4N3)]
 Deg. of freedom    21
 Full point group                 C1      NOp   1
 Largest Abelian subgroup         C1      NOp   1
 Largest concise Abelian subgroup C1      NOp   1
                         Standard orientation:                         
 ---------------------------------------------------------------------
 Center     Atomic      Atomic             Coordinates (Angstroms)
 Number     Number       Type             X           Y           Z
 ---------------------------------------------------------------------
      1          7           0       -0.757695   -0.734652    0.000022
      2          7           0       -0.906107    0.596652   -0.000033
      3          6           0        0.322177    1.119493    0.000028
      4          6           0        1.181382    0.023747   -0.000059
      5          7           0        0.473748   -1.116267   -0.000069
      6          1           0        0.488124    2.186676    0.000041
      7          1           0        2.259550   -0.010108   -0.000119
      8          1           0       -1.815967    1.049384    0.000828
      9          1           0       -1.622690   -1.305525   -0.000005
 ---------------------------------------------------------------------
 Rotational constants (GHZ):           9.8970968           9.4292163           4.8287466
 Standard basis: 6-31+G(d,p) (6D, 7F)
 There are   115 symmetry adapted cartesian basis functions of A   symmetry.
 There are   115 symmetry adapted basis functions of A   symmetry.
   115 basis functions,   188 primitive gaussians,   115 cartesian basis functions
    18 alpha electrons       18 beta electrons
       nuclear repulsion energy       175.5090317233 Hartrees.
 NAtoms=    9 NActive=    9 NUniq=    9 SFac= 1.00D+00 NAtFMM=   60 NAOKFM=F Big=F
 Integral buffers will be    131072 words long.
 Raffenetti 2 integral format.
 Two-electron integral symmetry is turned on.
 One-electron integrals computed using PRISM.
 NBasis=   115 RedAO= T EigKep=  7.62D-05  NBF=   115
 NBsUse=   115 1.00D-06 EigRej= -1.00D+00 NBFU=   115
 Initial guess from the checkpoint file:  "/scratch/gongke2021/2-H-1-H-Tz/Gau-28958.chk"
 B after Tr=    -0.000000    0.000000    0.000000
         Rot=    0.972363   -0.000007   -0.000005   -0.233473 Ang= -27.00 deg.
 ExpMin= 4.38D-02 ExpMax= 4.17D+03 ExpMxC= 6.27D+02 IAcc=2 IRadAn=         4 AccDes= 0.00D+00
 Harris functional with IExCor= 1009 and IRadAn=       4 diagonalized for initial guess.
 HarFok:  IExCor= 1009 AccDes= 0.00D+00 IRadAn=         4 IDoV= 1 UseB2=F ITyADJ=14
 ICtDFT=  3500011 ScaDFX=  1.000000  1.000000  1.000000  1.000000
 FoFCou: FMM=F IPFlag=           0 FMFlag=      100000 FMFlg1=           0
         NFxFlg=           0 DoJE=T BraDBF=F KetDBF=T FulRan=T
         wScrn=  0.000000 ICntrl=       500 IOpCl=  0 I1Cent=   200000004 NGrid=           0
         NMat0=    1 NMatS0=      1 NMatT0=    0 NMatD0=    1 NMtDS0=    0 NMtDT0=    0
 Petite list used in FoFCou.
 Keep R1 ints in memory in canonical form, NReq=44774372.
 Requested convergence on RMS density matrix=1.00D-08 within 128 cycles.
 Requested convergence on MAX density matrix=1.00D-06.
 Requested convergence on             energy=1.00D-06.
 No special actions if energy rises.
 SCF Done:  E(RM062X) =  -242.465264557     A.U. after   12 cycles
            NFock= 12  Conv=0.23D-08     -V/T= 2.0085
 Calling FoFJK, ICntrl=      2127 FMM=F ISym2X=0 I1Cent= 0 IOpClX= 0 NMat=1 NMatS=1 NMatT=0.
 ***** Axes restored to original set *****
 -------------------------------------------------------------------
 Center     Atomic                   Forces (Hartrees/Bohr)
 Number     Number              X              Y              Z
 -------------------------------------------------------------------
      1        7           0.034885146   -0.011406626   -0.000001768
      2        7          -0.016551710   -0.002086617   -0.000033242
      3        6           0.001803422    0.002160532    0.000009838
      4        6          -0.008561531   -0.000592849    0.000004857
      5        7           0.008513829    0.006192561    0.000002588
      6        1          -0.001433987    0.000720936   -0.000003605
      7        1           0.000122861    0.001897442    0.000000361
      8        1           0.001422848   -0.000701158    0.000019490
      9        1          -0.020200877    0.003815779    0.000001482
 -------------------------------------------------------------------
 Cartesian Forces:  Max     0.034885146 RMS     0.009126979

 GradGradGradGradGradGradGradGradGradGradGradGradGradGradGradGradGradGrad
 Berny optimization.
 Using GEDIIS/GDIIS optimizer.
 FormGI is forming the generalized inverse of G from B-inverse, IUseBI=4.
 Internal  Forces:  Max     0.018542940 RMS     0.005136447
 Search for a local minimum.
 Step number   2 out of a maximum of   48
 All quantities printed in internal units (Hartrees-Bohrs-Radians)
 Mixed Optimization -- RFO/linear search
 Update second derivatives using D2CorX and points    1    2
 DE= -1.57D-02 DEPred=-1.83D-02 R= 8.60D-01
 TightC=F SS=  1.41D+00  RLast= 3.00D-01 DXNew= 5.0454D-01 8.9998D-01
 Trust test= 8.60D-01 RLast= 3.00D-01 DXMaxT set to 5.05D-01
 ITU=  1  0
 Use linear search instead of GDIIS.
     Eigenvalues ---    0.02230   0.02297   0.02318   0.02372   0.02400
     Eigenvalues ---    0.02450   0.13492   0.16000   0.16000   0.16111
     Eigenvalues ---    0.22186   0.28772   0.35799   0.36192   0.36235
     Eigenvalues ---    0.45208   0.46020   0.48236   0.55397   0.57817
     Eigenvalues ---    0.66082
 RFO step:  Lambda=-4.94239072D-03 EMin= 2.22990453D-02
 Quartic linear search produced a step of  0.05079.
 Iteration  1 RMS(Cart)=  0.02881297 RMS(Int)=  0.00167093
 Iteration  2 RMS(Cart)=  0.00169463 RMS(Int)=  0.00002951
 Iteration  3 RMS(Cart)=  0.00000318 RMS(Int)=  0.00002936
 Iteration  4 RMS(Cart)=  0.00000000 RMS(Int)=  0.00002936
 Variable       Old X    -DE/DX   Delta X   Delta X   Delta X     New X
                                 (Linear)    (Quad)   (Total)
    R1        2.53139  -0.00399   0.00029  -0.00689  -0.00657   2.52481
    R2        2.43627  -0.00017  -0.00041  -0.00111  -0.00147   2.43480
    R3        1.95850  -0.01496  -0.00707  -0.06055  -0.06762   1.89088
    R4        2.52266   0.00412  -0.00165   0.00443   0.00274   2.52540
    R5        1.92048   0.00134   0.00063   0.00425   0.00488   1.92536
    R6        2.63133  -0.00132   0.00186   0.00120   0.00302   2.63435
    R7        2.04092   0.00041   0.00016   0.00148   0.00164   2.04256
    R8        2.53560  -0.00019  -0.00204  -0.00403  -0.00606   2.52954
    R9        2.03844   0.00049   0.00005   0.00150   0.00155   2.04000
    A1        1.98232  -0.00950   0.00558  -0.03424  -0.02859   1.95373
    A2        2.04313   0.01854   0.00307   0.11430   0.11734   2.16047
    A3        2.25773  -0.00905  -0.00865  -0.08007  -0.08875   2.16898
    A4        1.86221   0.00597  -0.00443   0.01993   0.01548   1.87769
    A5        2.14353  -0.00379   0.00330  -0.01328  -0.00997   2.13355
    A6        2.27744  -0.00218   0.00113  -0.00664  -0.00550   2.27194
    A7        1.83335  -0.00080   0.00150   0.00018   0.00159   1.83494
    A8        2.12750   0.00199  -0.00116   0.00935   0.00823   2.13573
    A9        2.32234  -0.00119  -0.00034  -0.00953  -0.00983   2.31252
   A10        1.92109  -0.00594   0.00139  -0.02290  -0.02155   1.89953
   A11        2.26717   0.00111   0.00004   0.00082   0.00087   2.26805
   A12        2.09492   0.00483  -0.00142   0.02208   0.02068   2.11560
   A13        1.82581   0.01026  -0.00404   0.03703   0.03307   1.85888
    D1       -0.00015   0.00000  -0.00001   0.00006   0.00005  -0.00011
    D2       -3.14065  -0.00001  -0.00001  -0.00032  -0.00033  -3.14099
    D3        3.14158   0.00001  -0.00000   0.00016   0.00016  -3.14144
    D4        0.00108  -0.00001  -0.00000  -0.00022  -0.00022   0.00087
    D5        0.00010  -0.00000   0.00001  -0.00003  -0.00003   0.00007
    D6        3.14153  -0.00000  -0.00000  -0.00013  -0.00012   3.14140
    D7        0.00013  -0.00000   0.00001  -0.00005  -0.00004   0.00009
    D8       -3.14155  -0.00000   0.00000  -0.00006  -0.00006   3.14158
    D9        3.14052   0.00001   0.00001   0.00037   0.00038   3.14090
   D10       -0.00117   0.00001   0.00001   0.00036   0.00036  -0.00080
   D11       -0.00008   0.00000  -0.00000   0.00003   0.00003  -0.00005
   D12        3.14151  -0.00000  -0.00000  -0.00000  -0.00001   3.14150
   D13       -3.14157   0.00000   0.00000   0.00005   0.00005  -3.14152
   D14        0.00002   0.00000   0.00000   0.00001   0.00001   0.00003
   D15       -0.00001   0.00000  -0.00000  -0.00000  -0.00000  -0.00001
   D16        3.14159   0.00000  -0.00000   0.00003   0.00003  -3.14157
         Item               Value     Threshold  Converged?
 Maximum Force            0.018543     0.000450     NO 
 RMS     Force            0.005136     0.000300     NO 
 Maximum Displacement     0.129087     0.001800     NO 
 RMS     Displacement     0.028317     0.001200     NO 
 Predicted change in Energy=-2.608287D-03
 GradGradGradGradGradGradGradGradGradGradGradGradGradGradGradGradGradGrad

                          Input orientation:                          
 ---------------------------------------------------------------------
 Center     Atomic      Atomic             Coordinates (Angstroms)
 Number     Number       Type             X           Y           Z
 ---------------------------------------------------------------------
      1          7           0        0.528850   -1.007704   -0.000120
      2          7           0        1.108558    0.196054   -0.000123
      3          6           0        0.135949    1.112541   -0.000111
      4          6           0       -1.051808    0.382763    0.000021
      5          7           0       -0.756797   -0.922899    0.000021
      6          1           0        0.340894    2.173807   -0.000095
      7          1           0       -2.075645    0.724997    0.000149
      8          1           0        2.120808    0.311906   -0.000745
      9          1           0        1.036692   -1.869865    0.000003
 ---------------------------------------------------------------------
                    Distance matrix (angstroms):
                    1          2          3          4          5
     1  N    0.000000
     2  N    1.336074   0.000000
     3  C    2.156342   1.336382   0.000000
     4  C    2.105203   2.168419   1.394039   0.000000
     5  N    1.288441   2.175225   2.222614   1.338576   0.000000
     6  H    3.187059   2.121513   1.080874   2.268802   3.285502
     7  H    3.128202   3.227836   2.245292   1.079521   2.110669
     8  H    2.067776   1.018858   2.140253   3.173407   3.131350
     9  H    1.000612   2.067168   3.115459   3.071834   2.028139
                    6          7          8          9
     6  H    0.000000
     7  H    2.817572   0.000000
     8  H    2.575804   4.216736   0.000000
     9  H    4.103099   4.052154   2.436274   0.000000
 Stoichiometry    C2H4N3(1+)
 Framework group  C1[X(C2H4N3)]
 Deg. of freedom    21
 Full point group                 C1      NOp   1
 Largest Abelian subgroup         C1      NOp   1
 Largest concise Abelian subgroup C1      NOp   1
                         Standard orientation:                         
 ---------------------------------------------------------------------
 Center     Atomic      Atomic             Coordinates (Angstroms)
 Number     Number       Type             X           Y           Z
 ---------------------------------------------------------------------
      1          7           0       -0.900836   -0.574325    0.000045
      2          7           0       -0.772127    0.755535    0.000048
      3          6           0        0.534781    1.034654    0.000036
      4          6           0        1.171778   -0.205337   -0.000096
      5          7           0        0.242349   -1.168638   -0.000096
      6          1           0        0.909998    2.048312    0.000020
      7          1           0        2.224640   -0.443762   -0.000224
      8          1           0       -1.577491    1.379604    0.000670
      9          1           0       -1.782201   -1.048054   -0.000078
 ---------------------------------------------------------------------
 Rotational constants (GHZ):           9.7912072           9.5632479           4.8379426
 Standard basis: 6-31+G(d,p) (6D, 7F)
 There are   115 symmetry adapted cartesian basis functions of A   symmetry.
 There are   115 symmetry adapted basis functions of A   symmetry.
   115 basis functions,   188 primitive gaussians,   115 cartesian basis functions
    18 alpha electrons       18 beta electrons
       nuclear repulsion energy       175.7442021951 Hartrees.
 NAtoms=    9 NActive=    9 NUniq=    9 SFac= 1.00D+00 NAtFMM=   60 NAOKFM=F Big=F
 Integral buffers will be    131072 words long.
 Raffenetti 2 integral format.
 Two-electron integral symmetry is turned on.
 One-electron integrals computed using PRISM.
 NBasis=   115 RedAO= T EigKep=  7.77D-05  NBF=   115
 NBsUse=   115 1.00D-06 EigRej= -1.00D+00 NBFU=   115
 Initial guess from the checkpoint file:  "/scratch/gongke2021/2-H-1-H-Tz/Gau-28958.chk"
 B after Tr=    -0.000000    0.000000   -0.000000
         Rot=    0.995369   -0.000007   -0.000012    0.096123 Ang= -11.03 deg.
 ExpMin= 4.38D-02 ExpMax= 4.17D+03 ExpMxC= 6.27D+02 IAcc=2 IRadAn=         4 AccDes= 0.00D+00
 Harris functional with IExCor= 1009 and IRadAn=       4 diagonalized for initial guess.
 HarFok:  IExCor= 1009 AccDes= 0.00D+00 IRadAn=         4 IDoV= 1 UseB2=F ITyADJ=14
 ICtDFT=  3500011 ScaDFX=  1.000000  1.000000  1.000000  1.000000
 FoFCou: FMM=F IPFlag=           0 FMFlag=      100000 FMFlg1=           0
         NFxFlg=           0 DoJE=T BraDBF=F KetDBF=T FulRan=T
         wScrn=  0.000000 ICntrl=       500 IOpCl=  0 I1Cent=   200000004 NGrid=           0
         NMat0=    1 NMatS0=      1 NMatT0=    0 NMatD0=    1 NMtDS0=    0 NMtDT0=    0
 Petite list used in FoFCou.
 Keep R1 ints in memory in canonical form, NReq=44774372.
 Requested convergence on RMS density matrix=1.00D-08 within 128 cycles.
 Requested convergence on MAX density matrix=1.00D-06.
 Requested convergence on             energy=1.00D-06.
 No special actions if energy rises.
 SCF Done:  E(RM062X) =  -242.467261494     A.U. after   11 cycles
            NFock= 11  Conv=0.56D-08     -V/T= 2.0083
 Calling FoFJK, ICntrl=      2127 FMM=F ISym2X=0 I1Cent= 0 IOpClX= 0 NMat=1 NMatS=1 NMatT=0.
 ***** Axes restored to original set *****
 -------------------------------------------------------------------
 Center     Atomic                   Forces (Hartrees/Bohr)
 Number     Number              X              Y              Z
 -------------------------------------------------------------------
      1        7          -0.004291701    0.019068133   -0.000001616
      2        7          -0.000701684   -0.001567053   -0.000021898
      3        6           0.000927758   -0.000117316    0.000008522
      4        6           0.000741699   -0.002050471    0.000003342
      5        7          -0.004200642   -0.001469465    0.000004037
      6        1           0.000265368   -0.000204660   -0.000004938
      7        1           0.000482463    0.000383876   -0.000001451
      8        1          -0.000727044   -0.000015295    0.000014445
      9        1           0.007503783   -0.014027749   -0.000000443
 -------------------------------------------------------------------
 Cartesian Forces:  Max     0.019068133 RMS     0.004960962

 GradGradGradGradGradGradGradGradGradGradGradGradGradGradGradGradGradGrad
 Berny optimization.
 Using GEDIIS/GDIIS optimizer.
 FormGI is forming the generalized inverse of G from B-inverse, IUseBI=4.
 Internal  Forces:  Max     0.015894081 RMS     0.002738940
 Search for a local minimum.
 Step number   3 out of a maximum of   48
 All quantities printed in internal units (Hartrees-Bohrs-Radians)
 Mixed Optimization -- RFO/linear search
 Update second derivatives using D2CorX and points    1    2    3
 DE= -2.00D-03 DEPred=-2.61D-03 R= 7.66D-01
 TightC=F SS=  1.41D+00  RLast= 1.72D-01 DXNew= 8.4853D-01 5.1689D-01
 Trust test= 7.66D-01 RLast= 1.72D-01 DXMaxT set to 5.17D-01
 ITU=  1  1  0
 Use linear search instead of GDIIS.
     Eigenvalues ---    0.02228   0.02296   0.02304   0.02360   0.02399
     Eigenvalues ---    0.02444   0.11951   0.16000   0.16018   0.16112
     Eigenvalues ---    0.22243   0.33989   0.36191   0.36222   0.43127
     Eigenvalues ---    0.45439   0.46151   0.48287   0.55420   0.57430
     Eigenvalues ---    0.66398
 RFO step:  Lambda=-4.50250241D-04 EMin= 2.22780346D-02
 Quartic linear search produced a step of -0.17612.
 Iteration  1 RMS(Cart)=  0.00522973 RMS(Int)=  0.00003151
 Iteration  2 RMS(Cart)=  0.00003685 RMS(Int)=  0.00000321
 Iteration  3 RMS(Cart)=  0.00000000 RMS(Int)=  0.00000321
 Variable       Old X    -DE/DX   Delta X   Delta X   Delta X     New X
                                 (Linear)    (Quad)   (Total)
    R1        2.52481  -0.00280   0.00116  -0.00548  -0.00432   2.52049
    R2        2.43480   0.00263   0.00026   0.00283   0.00308   2.43788
    R3        1.89088   0.01589   0.01191   0.02395   0.03586   1.92674
    R4        2.52540  -0.00163  -0.00048  -0.00199  -0.00247   2.52293
    R5        1.92536  -0.00072  -0.00086  -0.00020  -0.00106   1.92430
    R6        2.63435   0.00069  -0.00053   0.00176   0.00124   2.63559
    R7        2.04256  -0.00015  -0.00029   0.00003  -0.00026   2.04230
    R8        2.52954  -0.00096   0.00107  -0.00245  -0.00139   2.52815
    R9        2.04000  -0.00034  -0.00027  -0.00040  -0.00067   2.03933
    A1        1.95373   0.00169   0.00504  -0.00019   0.00484   1.95857
    A2        2.16047  -0.00022  -0.02067   0.02713   0.00646   2.16693
    A3        2.16898  -0.00147   0.01563  -0.02694  -0.01130   2.15768
    A4        1.87769  -0.00017  -0.00273   0.00132  -0.00140   1.87629
    A5        2.13355   0.00014   0.00176  -0.00075   0.00101   2.13456
    A6        2.27194   0.00003   0.00097  -0.00058   0.00039   2.27233
    A7        1.83494   0.00010  -0.00028   0.00006  -0.00021   1.83473
    A8        2.13573  -0.00037  -0.00145   0.00038  -0.00107   2.13466
    A9        2.31252   0.00026   0.00173  -0.00044   0.00129   2.31380
   A10        1.89953   0.00083   0.00380  -0.00129   0.00250   1.90204
   A11        2.26805  -0.00095  -0.00015  -0.00417  -0.00432   2.26373
   A12        2.11560   0.00013  -0.00364   0.00546   0.00182   2.11742
   A13        1.85888  -0.00245  -0.00582   0.00011  -0.00573   1.85315
    D1       -0.00011  -0.00000  -0.00001  -0.00002  -0.00002  -0.00013
    D2       -3.14099  -0.00001   0.00006  -0.00030  -0.00024  -3.14123
    D3       -3.14144   0.00000  -0.00003   0.00006   0.00003  -3.14141
    D4        0.00087  -0.00000   0.00004  -0.00022  -0.00018   0.00068
    D5        0.00007   0.00000   0.00000   0.00002   0.00003   0.00010
    D6        3.14140  -0.00000   0.00002  -0.00004  -0.00002   3.14138
    D7        0.00009   0.00000   0.00001   0.00000   0.00001   0.00010
    D8        3.14158   0.00000   0.00001   0.00002   0.00003  -3.14158
    D9        3.14090   0.00001  -0.00007   0.00031   0.00024   3.14114
   D10       -0.00080   0.00001  -0.00006   0.00033   0.00027  -0.00054
   D11       -0.00005   0.00000  -0.00001   0.00001   0.00001  -0.00004
   D12        3.14150   0.00000   0.00000   0.00003   0.00003   3.14153
   D13       -3.14152  -0.00000  -0.00001  -0.00001  -0.00002  -3.14154
   D14        0.00003   0.00000  -0.00000   0.00001   0.00000   0.00003
   D15       -0.00001  -0.00000   0.00000  -0.00002  -0.00002  -0.00003
   D16       -3.14157  -0.00000  -0.00001  -0.00003  -0.00004   3.14158
         Item               Value     Threshold  Converged?
 Maximum Force            0.015894     0.000450     NO 
 RMS     Force            0.002739     0.000300     NO 
 Maximum Displacement     0.027789     0.001800     NO 
 RMS     Displacement     0.005233     0.001200     NO 
 Predicted change in Energy=-3.220115D-04
 GradGradGradGradGradGradGradGradGradGradGradGradGradGradGradGradGradGrad

                          Input orientation:                          
 ---------------------------------------------------------------------
 Center     Atomic      Atomic             Coordinates (Angstroms)
 Number     Number       Type             X           Y           Z
 ---------------------------------------------------------------------
      1          7           0        0.528798   -1.002513   -0.000158
      2          7           0        1.108030    0.198934   -0.000171
      3          6           0        0.135485    1.113583   -0.000130
      4          6           0       -1.051964    0.382055    0.000043
      5          7           0       -0.758837   -0.923278    0.000046
      6          1           0        0.340514    2.174693   -0.000145
      7          1           0       -2.074385    0.727388    0.000179
      8          1           0        2.119655    0.315307   -0.000636
      9          1           0        1.040203   -1.884570   -0.000027
 ---------------------------------------------------------------------
                    Distance matrix (angstroms):
                    1          2          3          4          5
     1  N    0.000000
     2  N    1.333786   0.000000
     3  C    2.152337   1.335075   0.000000
     4  C    2.101389   2.167742   1.394693   0.000000
     5  N    1.290071   2.178199   2.224548   1.337840   0.000000
     6  H    3.182780   2.119600   1.080737   2.269922   3.287248
     7  H    3.125559   3.225992   2.243362   1.079166   2.110772
     8  H    2.065787   1.018297   2.138732   3.172322   3.133658
     9  H    1.019588   2.084608   3.131682   3.084599   2.039762
                    6          7          8          9
     6  H    0.000000
     7  H    2.815392   0.000000
     8  H    2.573453   4.214236   0.000000
     9  H    4.119124   4.064847   2.450444   0.000000
 Stoichiometry    C2H4N3(1+)
 Framework group  C1[X(C2H4N3)]
 Deg. of freedom    21
 Full point group                 C1      NOp   1
 Largest Abelian subgroup         C1      NOp   1
 Largest concise Abelian subgroup C1      NOp   1
                         Standard orientation:                         
 ---------------------------------------------------------------------
 Center     Atomic      Atomic             Coordinates (Angstroms)
 Number     Number       Type             X           Y           Z
 ---------------------------------------------------------------------
      1          7           0       -0.894598   -0.577949    0.000073
      2          7           0       -0.777333    0.750672    0.000086
      3          6           0        0.526298    1.038717    0.000046
      4          6           0        1.172060   -0.197470   -0.000128
      5          7           0        0.252175   -1.168876   -0.000130
      6          1           0        0.893222    2.055260    0.000060
      7          1           0        2.227170   -0.424056   -0.000264
      8          1           0       -1.586873    1.368389    0.000551
      9          1           0       -1.785379   -1.074002   -0.000058
 ---------------------------------------------------------------------
 Rotational constants (GHZ):           9.8067741           9.5467525           4.8375083
 Standard basis: 6-31+G(d,p) (6D, 7F)
 There are   115 symmetry adapted cartesian basis functions of A   symmetry.
 There are   115 symmetry adapted basis functions of A   symmetry.
   115 basis functions,   188 primitive gaussians,   115 cartesian basis functions
    18 alpha electrons       18 beta electrons
       nuclear repulsion energy       175.6922650314 Hartrees.
 NAtoms=    9 NActive=    9 NUniq=    9 SFac= 1.00D+00 NAtFMM=   60 NAOKFM=F Big=F
 Integral buffers will be    131072 words long.
 Raffenetti 2 integral format.
 Two-electron integral symmetry is turned on.
 One-electron integrals computed using PRISM.
 NBasis=   115 RedAO= T EigKep=  7.77D-05  NBF=   115
 NBsUse=   115 1.00D-06 EigRej= -1.00D+00 NBFU=   115
 Initial guess from the checkpoint file:  "/scratch/gongke2021/2-H-1-H-Tz/Gau-28958.chk"
 B after Tr=     0.000000    0.000000    0.000000
         Rot=    0.999993   -0.000006   -0.000009   -0.003751 Ang=  -0.43 deg.
 ExpMin= 4.38D-02 ExpMax= 4.17D+03 ExpMxC= 6.27D+02 IAcc=2 IRadAn=         4 AccDes= 0.00D+00
 Harris functional with IExCor= 1009 and IRadAn=       4 diagonalized for initial guess.
 HarFok:  IExCor= 1009 AccDes= 0.00D+00 IRadAn=         4 IDoV= 1 UseB2=F ITyADJ=14
 ICtDFT=  3500011 ScaDFX=  1.000000  1.000000  1.000000  1.000000
 FoFCou: FMM=F IPFlag=           0 FMFlag=      100000 FMFlg1=           0
         NFxFlg=           0 DoJE=T BraDBF=F KetDBF=T FulRan=T
         wScrn=  0.000000 ICntrl=       500 IOpCl=  0 I1Cent=   200000004 NGrid=           0
         NMat0=    1 NMatS0=      1 NMatT0=    0 NMatD0=    1 NMtDS0=    0 NMtDT0=    0
 Petite list used in FoFCou.
 Keep R1 ints in memory in canonical form, NReq=44774372.
 Requested convergence on RMS density matrix=1.00D-08 within 128 cycles.
 Requested convergence on MAX density matrix=1.00D-06.
 Requested convergence on             energy=1.00D-06.
 No special actions if energy rises.
 SCF Done:  E(RM062X) =  -242.467551923     A.U. after   10 cycles
            NFock= 10  Conv=0.86D-08     -V/T= 2.0084
 Calling FoFJK, ICntrl=      2127 FMM=F ISym2X=0 I1Cent= 0 IOpClX= 0 NMat=1 NMatS=1 NMatT=0.
 ***** Axes restored to original set *****
 -------------------------------------------------------------------
 Center     Atomic                   Forces (Hartrees/Bohr)
 Number     Number              X              Y              Z
 -------------------------------------------------------------------
      1        7           0.002951199   -0.000443254    0.000007999
      2        7          -0.000694891   -0.001662160   -0.000018328
      3        6          -0.000318409    0.000826776    0.000008394
      4        6           0.000020400   -0.000262893    0.000001690
      5        7          -0.001532809    0.000008403   -0.000001877
      6        1           0.000056604   -0.000088316   -0.000003238
      7        1           0.000142390    0.000294610   -0.000000455
      8        1          -0.000244987   -0.000089015    0.000008460
      9        1          -0.000379496    0.001415848   -0.000002644
 -------------------------------------------------------------------
 Cartesian Forces:  Max     0.002951199 RMS     0.000809457

 GradGradGradGradGradGradGradGradGradGradGradGradGradGradGradGradGradGrad
 Berny optimization.
 Using GEDIIS/GDIIS optimizer.
 FormGI is forming the generalized inverse of G from B-inverse, IUseBI=4.
 Internal  Forces:  Max     0.001601030 RMS     0.000468913
 Search for a local minimum.
 Step number   4 out of a maximum of   48
 All quantities printed in internal units (Hartrees-Bohrs-Radians)
 Mixed Optimization -- En-DIIS/RFO-DIIS
 Update second derivatives using D2CorX and points    1    2    3    4
 DE= -2.90D-04 DEPred=-3.22D-04 R= 9.02D-01
 TightC=F SS=  1.41D+00  RLast= 3.98D-02 DXNew= 8.6930D-01 1.1946D-01
 Trust test= 9.02D-01 RLast= 3.98D-02 DXMaxT set to 5.17D-01
 ITU=  1  1  1  0
 Use linear search instead of GDIIS.
     Eigenvalues ---    0.02227   0.02296   0.02303   0.02359   0.02399
     Eigenvalues ---    0.02444   0.12492   0.16000   0.16008   0.16125
     Eigenvalues ---    0.22246   0.34406   0.36193   0.36222   0.44986
     Eigenvalues ---    0.46030   0.47998   0.48173   0.54289   0.58603
     Eigenvalues ---    0.65647
 RFO step:  Lambda=-1.38989877D-05 EMin= 2.22747693D-02
 Quartic linear search produced a step of -0.07050.
 Iteration  1 RMS(Cart)=  0.00145536 RMS(Int)=  0.00000179
 Iteration  2 RMS(Cart)=  0.00000203 RMS(Int)=  0.00000018
 Iteration  3 RMS(Cart)=  0.00000000 RMS(Int)=  0.00000018
 Variable       Old X    -DE/DX   Delta X   Delta X   Delta X     New X
                                 (Linear)    (Quad)   (Total)
    R1        2.52049  -0.00151   0.00030  -0.00287  -0.00256   2.51793
    R2        2.43788   0.00160  -0.00022   0.00251   0.00229   2.44017
    R3        1.92674  -0.00142  -0.00253  -0.00031  -0.00284   1.92390
    R4        2.52293   0.00040   0.00017   0.00020   0.00037   2.52330
    R5        1.92430  -0.00025   0.00007  -0.00062  -0.00054   1.92376
    R6        2.63559  -0.00009  -0.00009   0.00001  -0.00008   2.63551
    R7        2.04230  -0.00008   0.00002  -0.00022  -0.00020   2.04210
    R8        2.52815   0.00023   0.00010   0.00040   0.00049   2.52865
    R9        2.03933  -0.00004   0.00005  -0.00018  -0.00013   2.03920
    A1        1.95857  -0.00019  -0.00034   0.00001  -0.00033   1.95824
    A2        2.16693  -0.00027  -0.00046  -0.00164  -0.00210   2.16484
    A3        2.15768   0.00045   0.00080   0.00163   0.00243   2.16010
    A4        1.87629   0.00059   0.00010   0.00148   0.00157   1.87787
    A5        2.13456  -0.00036  -0.00007  -0.00104  -0.00111   2.13345
    A6        2.27233  -0.00023  -0.00003  -0.00044  -0.00047   2.27187
    A7        1.83473  -0.00015   0.00002  -0.00105  -0.00103   1.83370
    A8        2.13466  -0.00001   0.00008  -0.00013  -0.00006   2.13460
    A9        2.31380   0.00016  -0.00009   0.00118   0.00109   2.31489
   A10        1.90204   0.00003  -0.00018   0.00085   0.00067   1.90271
   A11        2.26373  -0.00036   0.00030  -0.00258  -0.00228   2.26145
   A12        2.11742   0.00032  -0.00013   0.00173   0.00161   2.11903
   A13        1.85315  -0.00029   0.00040  -0.00129  -0.00089   1.85226
    D1       -0.00013   0.00000   0.00000   0.00009   0.00009  -0.00004
    D2       -3.14123  -0.00000   0.00002  -0.00008  -0.00006  -3.14129
    D3       -3.14141   0.00000  -0.00000   0.00001   0.00001  -3.14140
    D4        0.00068  -0.00000   0.00001  -0.00016  -0.00015   0.00053
    D5        0.00010  -0.00000  -0.00000  -0.00007  -0.00007   0.00003
    D6        3.14138   0.00000   0.00000   0.00001   0.00001   3.14139
    D7        0.00010  -0.00000  -0.00000  -0.00007  -0.00007   0.00003
    D8       -3.14158  -0.00000  -0.00000  -0.00001  -0.00002   3.14159
    D9        3.14114   0.00000  -0.00002   0.00012   0.00010   3.14124
   D10       -0.00054   0.00000  -0.00002   0.00017   0.00016  -0.00038
   D11       -0.00004   0.00000  -0.00000   0.00003   0.00003  -0.00001
   D12        3.14153   0.00000  -0.00000   0.00005   0.00005   3.14158
   D13       -3.14154  -0.00000   0.00000  -0.00004  -0.00003  -3.14157
   D14        0.00003  -0.00000  -0.00000  -0.00002  -0.00002   0.00002
   D15       -0.00003   0.00000   0.00000   0.00002   0.00003  -0.00001
   D16        3.14158   0.00000   0.00000   0.00001   0.00001   3.14159
         Item               Value     Threshold  Converged?
 Maximum Force            0.001601     0.000450     NO 
 RMS     Force            0.000469     0.000300     NO 
 Maximum Displacement     0.004802     0.001800     NO 
 RMS     Displacement     0.001455     0.001200     NO 
 Predicted change in Energy=-8.440648D-06
 GradGradGradGradGradGradGradGradGradGradGradGradGradGradGradGradGradGrad

                          Input orientation:                          
 ---------------------------------------------------------------------
 Center     Atomic      Atomic             Coordinates (Angstroms)
 Number     Number       Type             X           Y           Z
 ---------------------------------------------------------------------
      1          7           0        0.529309   -1.002749   -0.000143
      2          7           0        1.107000    0.197934   -0.000213
      3          6           0        0.135027    1.113478   -0.000119
      4          6           0       -1.052206    0.381676    0.000051
      5          7           0       -0.759575   -0.924036    0.000036
      6          1           0        0.340926    2.174311   -0.000149
      7          1           0       -2.073860    0.729060    0.000181
      8          1           0        2.118377    0.313955   -0.000615
      9          1           0        1.042502   -1.882029   -0.000028
 ---------------------------------------------------------------------
                    Distance matrix (angstroms):
                    1          2          3          4          5
     1  N    0.000000
     2  N    1.332429   0.000000
     3  C    2.152644   1.335272   0.000000
     4  C    2.101862   2.167009   1.394652   0.000000
     5  N    1.291285   2.177824   2.225258   1.338102   0.000000
     6  H    3.182640   2.119654   1.080631   2.270321   3.287987
     7  H    3.126604   3.224897   2.242087   1.079098   2.111888
     8  H    2.063697   1.018010   2.138437   3.171306   3.132926
     9  H    1.018086   2.080963   3.129947   3.084179   2.040890
                    6          7          8          9
     6  H    0.000000
     7  H    2.814239   0.000000
     8  H    2.572986   4.212738   0.000000
     9  H    4.116564   4.065649   2.445373   0.000000
 Stoichiometry    C2H4N3(1+)
 Framework group  C1[X(C2H4N3)]
 Deg. of freedom    21
 Full point group                 C1      NOp   1
 Largest Abelian subgroup         C1      NOp   1
 Largest concise Abelian subgroup C1      NOp   1
                         Standard orientation:                         
 ---------------------------------------------------------------------
 Center     Atomic      Atomic             Coordinates (Angstroms)
 Number     Number       Type             X           Y           Z
 ---------------------------------------------------------------------
      1          7           0       -0.897282   -0.574186    0.000055
      2          7           0       -0.774320    0.752558    0.000125
      3          6           0        0.530308    1.036982    0.000031
      4          6           0        1.171300   -0.201640   -0.000139
      5          7           0        0.248163   -1.170317   -0.000124
      6          1           0        0.899990    2.052411    0.000061
      7          1           0        2.225989   -0.429859   -0.000269
      8          1           0       -1.581605    1.372748    0.000527
      9          1           0       -1.789942   -1.063735   -0.000060
 ---------------------------------------------------------------------
 Rotational constants (GHZ):           9.8037931           9.5503835           4.8377147
 Standard basis: 6-31+G(d,p) (6D, 7F)
 There are   115 symmetry adapted cartesian basis functions of A   symmetry.
 There are   115 symmetry adapted basis functions of A   symmetry.
   115 basis functions,   188 primitive gaussians,   115 cartesian basis functions
    18 alpha electrons       18 beta electrons
       nuclear repulsion energy       175.6986734574 Hartrees.
 NAtoms=    9 NActive=    9 NUniq=    9 SFac= 1.00D+00 NAtFMM=   60 NAOKFM=F Big=F
 Integral buffers will be    131072 words long.
 Raffenetti 2 integral format.
 Two-electron integral symmetry is turned on.
 One-electron integrals computed using PRISM.
 NBasis=   115 RedAO= T EigKep=  7.77D-05  NBF=   115
 NBsUse=   115 1.00D-06 EigRej= -1.00D+00 NBFU=   115
 Initial guess from the checkpoint file:  "/scratch/gongke2021/2-H-1-H-Tz/Gau-28958.chk"
 B after Tr=    -0.000000    0.000000    0.000000
         Rot=    0.999998   -0.000002   -0.000003    0.001816 Ang=  -0.21 deg.
 Keep R1 ints in memory in canonical form, NReq=44774372.
 Requested convergence on RMS density matrix=1.00D-08 within 128 cycles.
 Requested convergence on MAX density matrix=1.00D-06.
 Requested convergence on             energy=1.00D-06.
 No special actions if energy rises.
 SCF Done:  E(RM062X) =  -242.467563239     A.U. after    9 cycles
            NFock=  9  Conv=0.56D-08     -V/T= 2.0083
 Calling FoFJK, ICntrl=      2127 FMM=F ISym2X=0 I1Cent= 0 IOpClX= 0 NMat=1 NMatS=1 NMatT=0.
 ***** Axes restored to original set *****
 -------------------------------------------------------------------
 Center     Atomic                   Forces (Hartrees/Bohr)
 Number     Number              X              Y              Z
 -------------------------------------------------------------------
      1        7           0.000938070    0.000312926   -0.000000035
      2        7          -0.000256489   -0.000592571   -0.000006945
      3        6          -0.000086458    0.000315240    0.000001270
      4        6           0.000091846   -0.000375610    0.000000214
      5        7          -0.000682544    0.000113896    0.000004175
      6        1           0.000028564   -0.000016488   -0.000002375
      7        1           0.000009597    0.000085962    0.000000013
      8        1           0.000014219    0.000028620    0.000007215
      9        1          -0.000056804    0.000128025   -0.000003533
 -------------------------------------------------------------------
 Cartesian Forces:  Max     0.000938070 RMS     0.000282802

 GradGradGradGradGradGradGradGradGradGradGradGradGradGradGradGradGradGrad
 Berny optimization.
 Using GEDIIS/GDIIS optimizer.
 FormGI is forming the generalized inverse of G from B-inverse, IUseBI=4.
 Internal  Forces:  Max     0.000595953 RMS     0.000139298
 Search for a local minimum.
 Step number   5 out of a maximum of   48
 All quantities printed in internal units (Hartrees-Bohrs-Radians)
 Mixed Optimization -- En-DIIS/RFO-DIIS
 Swapping is turned off.
 Update second derivatives using D2CorX and points    1    2    3    4    5
 DE= -1.13D-05 DEPred=-8.44D-06 R= 1.34D+00
 TightC=F SS=  1.41D+00  RLast= 6.80D-03 DXNew= 8.6930D-01 2.0407D-02
 Trust test= 1.34D+00 RLast= 6.80D-03 DXMaxT set to 5.17D-01
 ITU=  1  1  1  1  0
     Eigenvalues ---    0.02227   0.02296   0.02303   0.02359   0.02399
     Eigenvalues ---    0.02444   0.12577   0.15194   0.16004   0.16177
     Eigenvalues ---    0.21152   0.34405   0.36188   0.36243   0.42863
     Eigenvalues ---    0.46179   0.46374   0.48555   0.50130   0.58665
     Eigenvalues ---    0.60717
 En-DIIS/RFO-DIIS/Sim-DIIS IScMMF=       -3 using points:     5    4
 RFO step:  Lambda=-2.12157721D-06.
 DidBck=F Rises=F RFO-DIIS coefs:    1.30226   -0.30226
 Iteration  1 RMS(Cart)=  0.00038943 RMS(Int)=  0.00000018
 Iteration  2 RMS(Cart)=  0.00000018 RMS(Int)=  0.00000005
 Variable       Old X    -DE/DX   Delta X   Delta X   Delta X     New X
                                 (Linear)    (Quad)   (Total)
    R1        2.51793  -0.00049  -0.00077  -0.00058  -0.00135   2.51658
    R2        2.44017   0.00060   0.00069   0.00063   0.00133   2.44150
    R3        1.92390  -0.00014  -0.00086   0.00044  -0.00042   1.92349
    R4        2.52330   0.00013   0.00011   0.00012   0.00023   2.52353
    R5        1.92376   0.00002  -0.00016   0.00019   0.00002   1.92379
    R6        2.63551   0.00006  -0.00002   0.00021   0.00019   2.63570
    R7        2.04210  -0.00001  -0.00006   0.00002  -0.00004   2.04205
    R8        2.52865  -0.00015   0.00015  -0.00051  -0.00036   2.52828
    R9        2.03920   0.00002  -0.00004   0.00010   0.00006   2.03926
    A1        1.95824   0.00000  -0.00010   0.00015   0.00005   1.95829
    A2        2.16484  -0.00001  -0.00063   0.00081   0.00018   2.16501
    A3        2.16010   0.00001   0.00073  -0.00096  -0.00022   2.15988
    A4        1.87787   0.00012   0.00048   0.00010   0.00057   1.87844
    A5        2.13345  -0.00004  -0.00034   0.00019  -0.00015   2.13330
    A6        2.27187  -0.00008  -0.00014  -0.00028  -0.00042   2.27144
    A7        1.83370  -0.00006  -0.00031  -0.00026  -0.00057   1.83313
    A8        2.13460  -0.00001  -0.00002  -0.00007  -0.00009   2.13451
    A9        2.31489   0.00007   0.00033   0.00032   0.00065   2.31554
   A10        1.90271   0.00007   0.00020   0.00033   0.00053   1.90324
   A11        2.26145  -0.00013  -0.00069  -0.00052  -0.00121   2.26024
   A12        2.11903   0.00006   0.00049   0.00020   0.00068   2.11971
   A13        1.85226  -0.00013  -0.00027  -0.00032  -0.00058   1.85168
    D1       -0.00004  -0.00000   0.00003  -0.00013  -0.00011  -0.00014
    D2       -3.14129  -0.00000  -0.00002  -0.00017  -0.00019  -3.14147
    D3       -3.14140  -0.00000   0.00000  -0.00009  -0.00009  -3.14149
    D4        0.00053  -0.00000  -0.00004  -0.00013  -0.00017   0.00036
    D5        0.00003   0.00000  -0.00002   0.00011   0.00009   0.00012
    D6        3.14139   0.00000   0.00000   0.00007   0.00007   3.14147
    D7        0.00003   0.00000  -0.00002   0.00010   0.00008   0.00011
    D8        3.14159   0.00000  -0.00000   0.00007   0.00006  -3.14153
    D9        3.14124   0.00000   0.00003   0.00014   0.00017   3.14141
   D10       -0.00038   0.00000   0.00005   0.00011   0.00015  -0.00023
   D11       -0.00001  -0.00000   0.00001  -0.00004  -0.00003  -0.00004
   D12        3.14158  -0.00000   0.00001  -0.00004  -0.00002   3.14155
   D13       -3.14157  -0.00000  -0.00001  -0.00000  -0.00001  -3.14158
   D14        0.00002  -0.00000  -0.00000  -0.00000  -0.00001   0.00001
   D15       -0.00001  -0.00000   0.00001  -0.00004  -0.00004  -0.00004
   D16        3.14159  -0.00000   0.00000  -0.00004  -0.00004   3.14155
         Item               Value     Threshold  Converged?
 Maximum Force            0.000596     0.000450     NO 
 RMS     Force            0.000139     0.000300     YES
 Maximum Displacement     0.001010     0.001800     YES
 RMS     Displacement     0.000389     0.001200     YES
 Predicted change in Energy=-1.060801D-06
 GradGradGradGradGradGradGradGradGradGradGradGradGradGradGradGradGradGrad

                          Input orientation:                          
 ---------------------------------------------------------------------
 Center     Atomic      Atomic             Coordinates (Angstroms)
 Number     Number       Type             X           Y           Z
 ---------------------------------------------------------------------
      1          7           0        0.529685   -1.002589   -0.000168
      2          7           0        1.106683    0.197635   -0.000209
      3          6           0        0.134851    1.113509   -0.000152
      4          6           0       -1.052235    0.381282    0.000069
      5          7           0       -0.759929   -0.924305    0.000085
      6          1           0        0.341106    2.174249   -0.000227
      7          1           0       -2.073606    0.729595    0.000212
      8          1           0        2.118053    0.313828   -0.000498
      9          1           0        1.042893   -1.881605   -0.000113
 ---------------------------------------------------------------------
                    Distance matrix (angstroms):
                    1          2          3          4          5
     1  N    0.000000
     2  N    1.331714   0.000000
     3  C    2.152617   1.335396   0.000000
     4  C    2.101802   2.166715   1.394751   0.000000
     5  N    1.291988   2.177841   2.225605   1.337910   0.000000
     6  H    3.182430   2.119696   1.080607   2.270711   3.288361
     7  H    3.126913   3.224472   2.241578   1.079129   2.112140
     8  H    2.062976   1.018023   2.138359   3.171006   3.133011
     9  H    1.017866   2.080218   3.129736   3.083865   2.041222
                    6          7          8          9
     6  H    0.000000
     7  H    2.813869   0.000000
     8  H    2.572685   4.212229   0.000000
     9  H    4.116121   4.065825   2.444565   0.000000
 Stoichiometry    C2H4N3(1+)
 Framework group  C1[X(C2H4N3)]
 Deg. of freedom    21
 Full point group                 C1      NOp   1
 Largest Abelian subgroup         C1      NOp   1
 Largest concise Abelian subgroup C1      NOp   1
                         Standard orientation:                         
 ---------------------------------------------------------------------
 Center     Atomic      Atomic             Coordinates (Angstroms)
 Number     Number       Type             X           Y           Z
 ---------------------------------------------------------------------
      1          7           0       -0.897206   -0.574220    0.000082
      2          7           0       -0.774630    0.751841    0.000123
      3          6           0        0.529887    1.037353    0.000067
      4          6           0        1.171230   -0.201198   -0.000155
      5          7           0        0.248978   -1.170453   -0.000170
      6          1           0        0.898647    2.053093    0.000142
      7          1           0        2.226281   -0.427885   -0.000298
      8          1           0       -1.582168    1.371723    0.000412
      9          1           0       -1.789468   -1.064036    0.000027
 ---------------------------------------------------------------------
 Rotational constants (GHZ):           9.8042268           9.5503346           4.8378077
 Standard basis: 6-31+G(d,p) (6D, 7F)
 There are   115 symmetry adapted cartesian basis functions of A   symmetry.
 There are   115 symmetry adapted basis functions of A   symmetry.
   115 basis functions,   188 primitive gaussians,   115 cartesian basis functions
    18 alpha electrons       18 beta electrons
       nuclear repulsion energy       175.7001915407 Hartrees.
 NAtoms=    9 NActive=    9 NUniq=    9 SFac= 1.00D+00 NAtFMM=   60 NAOKFM=F Big=F
 Integral buffers will be    131072 words long.
 Raffenetti 2 integral format.
 Two-electron integral symmetry is turned on.
 One-electron integrals computed using PRISM.
 NBasis=   115 RedAO= T EigKep=  7.77D-05  NBF=   115
 NBsUse=   115 1.00D-06 EigRej= -1.00D+00 NBFU=   115
 Initial guess from the checkpoint file:  "/scratch/gongke2021/2-H-1-H-Tz/Gau-28958.chk"
 B after Tr=     0.000000   -0.000000   -0.000000
         Rot=    1.000000   -0.000007   -0.000003   -0.000249 Ang=  -0.03 deg.
 Keep R1 ints in memory in canonical form, NReq=44774372.
 Requested convergence on RMS density matrix=1.00D-08 within 128 cycles.
 Requested convergence on MAX density matrix=1.00D-06.
 Requested convergence on             energy=1.00D-06.
 No special actions if energy rises.
 SCF Done:  E(RM062X) =  -242.467564243     A.U. after    8 cycles
            NFock=  8  Conv=0.90D-08     -V/T= 2.0083
 Calling FoFJK, ICntrl=      2127 FMM=F ISym2X=0 I1Cent= 0 IOpClX= 0 NMat=1 NMatS=1 NMatT=0.
 ***** Axes restored to original set *****
 -------------------------------------------------------------------
 Center     Atomic                   Forces (Hartrees/Bohr)
 Number     Number              X              Y              Z
 -------------------------------------------------------------------
      1        7           0.000060733    0.000023960    0.000013730
      2        7          -0.000016392   -0.000025859   -0.000016012
      3        6           0.000007538    0.000043525    0.000007694
      4        6          -0.000005367   -0.000087198    0.000000146
      5        7          -0.000079457    0.000060787   -0.000007648
      6        1           0.000001743   -0.000001766   -0.000000185
      7        1          -0.000009401   -0.000009459    0.000000352
      8        1           0.000015683    0.000029532    0.000002281
      9        1           0.000024920   -0.000033521   -0.000000358
 -------------------------------------------------------------------
 Cartesian Forces:  Max     0.000087198 RMS     0.000032436

 GradGradGradGradGradGradGradGradGradGradGradGradGradGradGradGradGradGrad
 Berny optimization.
 Using GEDIIS/GDIIS optimizer.
 FormGI is forming the generalized inverse of G from B-inverse, IUseBI=4.
 Internal  Forces:  Max     0.000068919 RMS     0.000018380
 Search for a local minimum.
 Step number   6 out of a maximum of   48
 All quantities printed in internal units (Hartrees-Bohrs-Radians)
 Mixed Optimization -- En-DIIS/RFO-DIIS
 Swapping is turned off.
 Update second derivatives using D2CorX and points    1    2    3    4    5
                                                      6
 DE= -1.00D-06 DEPred=-1.06D-06 R= 9.46D-01
 TightC=F SS=  1.41D+00  RLast= 2.84D-03 DXNew= 8.6930D-01 8.5260D-03
 Trust test= 9.46D-01 RLast= 2.84D-03 DXMaxT set to 5.17D-01
 ITU=  1  1  1  1  1  0
     Eigenvalues ---    0.02226   0.02296   0.02305   0.02359   0.02399
     Eigenvalues ---    0.02444   0.12405   0.14914   0.16005   0.16352
     Eigenvalues ---    0.20995   0.34338   0.36173   0.36250   0.42451
     Eigenvalues ---    0.46212   0.46572   0.47976   0.49456   0.58668
     Eigenvalues ---    0.59646
 En-DIIS/RFO-DIIS/Sim-DIIS IScMMF=       -3 using points:     6    5    4
 RFO step:  Lambda=-3.21343408D-08.
 DidBck=F Rises=F RFO-DIIS coefs:    1.05713   -0.05347   -0.00365
 Iteration  1 RMS(Cart)=  0.00007500 RMS(Int)=  0.00000001
 Iteration  2 RMS(Cart)=  0.00000001 RMS(Int)=  0.00000001
 Variable       Old X    -DE/DX   Delta X   Delta X   Delta X     New X
                                 (Linear)    (Quad)   (Total)
    R1        2.51658   0.00000  -0.00009   0.00004  -0.00005   2.51653
    R2        2.44150   0.00007   0.00008   0.00007   0.00015   2.44166
    R3        1.92349   0.00004  -0.00003   0.00011   0.00008   1.92357
    R4        2.52353   0.00001   0.00001   0.00001   0.00003   2.52356
    R5        1.92379   0.00002  -0.00000   0.00004   0.00004   1.92382
    R6        2.63570   0.00004   0.00001   0.00007   0.00008   2.63578
    R7        2.04205  -0.00000  -0.00000  -0.00000  -0.00000   2.04205
    R8        2.52828  -0.00005  -0.00002  -0.00010  -0.00012   2.52816
    R9        2.03926   0.00001   0.00000   0.00002   0.00002   2.03928
    A1        1.95829  -0.00001   0.00000  -0.00004  -0.00004   1.95825
    A2        2.16501   0.00001   0.00000   0.00007   0.00008   2.16509
    A3        2.15988   0.00000  -0.00000  -0.00003  -0.00003   2.15985
    A4        1.87844   0.00000   0.00004   0.00001   0.00005   1.87848
    A5        2.13330   0.00002  -0.00001   0.00011   0.00010   2.13340
    A6        2.27144  -0.00002  -0.00003  -0.00012  -0.00014   2.27130
    A7        1.83313  -0.00000  -0.00004  -0.00001  -0.00005   1.83308
    A8        2.13451  -0.00001  -0.00001  -0.00006  -0.00006   2.13445
    A9        2.31554   0.00001   0.00004   0.00007   0.00011   2.31565
   A10        1.90324   0.00001   0.00003   0.00001   0.00004   1.90328
   A11        2.26024  -0.00000  -0.00008   0.00003  -0.00005   2.26019
   A12        2.11971  -0.00001   0.00004  -0.00004   0.00001   2.11972
   A13        1.85168   0.00001  -0.00004   0.00004   0.00000   1.85169
    D1       -0.00014   0.00001  -0.00001   0.00026   0.00026   0.00011
    D2       -3.14147   0.00000  -0.00001   0.00008   0.00006  -3.14141
    D3       -3.14149   0.00000  -0.00001   0.00007   0.00007  -3.14143
    D4        0.00036  -0.00000  -0.00001  -0.00011  -0.00012   0.00024
    D5        0.00012  -0.00000   0.00000  -0.00021  -0.00020  -0.00009
    D6        3.14147  -0.00000   0.00000  -0.00002  -0.00002   3.14145
    D7        0.00011  -0.00000   0.00000  -0.00020  -0.00019  -0.00009
    D8       -3.14153  -0.00000   0.00000  -0.00012  -0.00012   3.14154
    D9        3.14141   0.00000   0.00001   0.00001   0.00002   3.14143
   D10       -0.00023   0.00000   0.00001   0.00009   0.00010  -0.00013
   D11       -0.00004   0.00000  -0.00000   0.00008   0.00008   0.00003
   D12        3.14155   0.00000  -0.00000   0.00007   0.00007  -3.14157
   D13       -3.14158  -0.00000  -0.00000  -0.00001  -0.00001   3.14159
   D14        0.00001  -0.00000  -0.00000  -0.00002  -0.00002  -0.00001
   D15       -0.00004   0.00000  -0.00000   0.00008   0.00007   0.00003
   D16        3.14155   0.00000  -0.00000   0.00009   0.00008  -3.14155
         Item               Value     Threshold  Converged?
 Maximum Force            0.000069     0.000450     YES
 RMS     Force            0.000018     0.000300     YES
 Maximum Displacement     0.000204     0.001800     YES
 RMS     Displacement     0.000075     0.001200     YES
 Predicted change in Energy=-1.886374D-08
 Optimization completed.
    -- Stationary point found.
                           ----------------------------
                           !   Optimized Parameters   !
                           ! (Angstroms and Degrees)  !
 --------------------------                            --------------------------
 ! Name  Definition              Value          Derivative Info.                !
 --------------------------------------------------------------------------------
 ! R1    R(1,2)                  1.3317         -DE/DX =    0.0                 !
[...]
 Total                   48.363             12.936             65.081
 Electronic               0.000              0.000              0.000
 Translational            0.889              2.981             38.657
 Rotational               0.889              2.981             24.077
 Vibrational             46.585              6.974              2.348
 Vibration     1          0.898              1.155              0.559
                       Q            Log10(Q)             Ln(Q)
 Total Bot       0.218174D-21        -21.661197        -49.876750
 Total V=0       0.122028D+13         12.086460         27.830102
 Vib (Bot)       0.232219D-33        -33.634103        -77.445384
 Vib (Bot)    1  0.290977D+00         -0.536142         -1.234513
 Vib (V=0)       0.129884D+01          0.113554          0.261468
 Vib (V=0)    1  0.107850D+01          0.032822          0.075575
 Electronic      0.100000D+01          0.000000          0.000000
 Translational   0.230398D+08          7.362478         16.952732
 Rotational      0.407782D+05          4.610428         10.615902
 ***** Axes restored to original set *****
 -------------------------------------------------------------------
 Center     Atomic                   Forces (Hartrees/Bohr)
 Number     Number              X              Y              Z
 -------------------------------------------------------------------
      1        7           0.000060677    0.000023938    0.000013731
      2        7          -0.000016386   -0.000025928   -0.000016013
      3        6           0.000007620    0.000043614    0.000007695
      4        6          -0.000005432   -0.000087251    0.000000146
      5        7          -0.000079371    0.000060737   -0.000007649
      6        1           0.000001741   -0.000001740   -0.000000184
      7        1          -0.000009438   -0.000009438    0.000000352
      8        1           0.000015684    0.000029546    0.000002280
      9        1           0.000024905   -0.000033477   -0.000000358
 -------------------------------------------------------------------
 Cartesian Forces:  Max     0.000087251 RMS     0.000032432
 FormGI is forming the generalized inverse of G from B-inverse, IUseBI=4.

 GradGradGradGradGradGradGradGradGradGradGradGradGradGradGradGradGradGrad
 Berny optimization.
 Internal  Forces:  Max     0.000068859 RMS     0.000018374
 Search for a local minimum.
 Step number   1 out of a maximum of    2
 All quantities printed in internal units (Hartrees-Bohrs-Radians)
 Second derivative matrix not updated -- analytic derivatives used.
 ITU=  0
     Eigenvalues ---    0.00594   0.01198   0.01615   0.02993   0.05831
     Eigenvalues ---    0.06256   0.10222   0.10742   0.11582   0.12482
     Eigenvalues ---    0.24665   0.27574   0.38363   0.38530   0.40680
     Eigenvalues ---    0.43447   0.45465   0.45829   0.47285   0.53337
     Eigenvalues ---    0.63145
 Angle between quadratic step and forces=  56.43 degrees.
 Linear search not attempted -- first point.
 Iteration  1 RMS(Cart)=  0.00008447 RMS(Int)=  0.00000002
 Iteration  2 RMS(Cart)=  0.00000001 RMS(Int)=  0.00000001
 Variable       Old X    -DE/DX   Delta X   Delta X   Delta X     New X
                                 (Linear)    (Quad)   (Total)
    R1        2.51658   0.00000   0.00000  -0.00002  -0.00002   2.51655
    R2        2.44150   0.00007   0.00000   0.00017   0.00017   2.44167
    R3        1.92349   0.00004   0.00000   0.00008   0.00008   1.92357
    R4        2.52353   0.00001   0.00000  -0.00000  -0.00000   2.52353
    R5        1.92379   0.00002   0.00000   0.00004   0.00004   1.92383
    R6        2.63570   0.00004   0.00000   0.00012   0.00012   2.63581
    R7        2.04205  -0.00000   0.00000  -0.00000  -0.00000   2.04205
    R8        2.52828  -0.00005   0.00000  -0.00016  -0.00016   2.52812
    R9        2.03926   0.00001   0.00000   0.00002   0.00002   2.03928
    A1        1.95829  -0.00001   0.00000  -0.00007  -0.00007   1.95822
    A2        2.16501   0.00001   0.00000   0.00009   0.00009   2.16510
    A3        2.15988   0.00000   0.00000  -0.00002  -0.00002   2.15986
    A4        1.87844   0.00000   0.00000   0.00006   0.00006   1.87850
    A5        2.13330   0.00002   0.00000   0.00014   0.00014   2.13344
    A6        2.27144  -0.00002   0.00000  -0.00020  -0.00020   2.27125
    A7        1.83313  -0.00000   0.00000  -0.00005  -0.00005   1.83308
    A8        2.13451  -0.00001   0.00000  -0.00009  -0.00009   2.13442
    A9        2.31554   0.00001   0.00000   0.00014   0.00014   2.31569
   A10        1.90324   0.00001   0.00000   0.00004   0.00004   1.90328
   A11        2.26024  -0.00000   0.00000  -0.00003  -0.00003   2.26021
   A12        2.11971  -0.00001   0.00000  -0.00001  -0.00001   2.11970
   A13        1.85168   0.00001   0.00000   0.00002   0.00002   1.85170
    D1       -0.00014   0.00001   0.00000   0.00014   0.00014  -0.00000
    D2       -3.14147   0.00000   0.00000  -0.00012  -0.00012  -3.14159
    D3       -3.14149   0.00000   0.00000  -0.00010  -0.00010  -3.14159
    D4        0.00036  -0.00000   0.00000  -0.00036  -0.00036   0.00000
    D5        0.00012  -0.00000   0.00000  -0.00012  -0.00012   0.00000
    D6        3.14147  -0.00000   0.00000   0.00013   0.00013   3.14159
    D7        0.00011  -0.00000   0.00000  -0.00011  -0.00011   0.00000
    D8       -3.14153  -0.00000   0.00000  -0.00006  -0.00006  -3.14159
    D9        3.14141   0.00000   0.00000   0.00018   0.00018   3.14159
   D10       -0.00023   0.00000   0.00000   0.00023   0.00023  -0.00000
   D11       -0.00004   0.00000   0.00000   0.00004   0.00004  -0.00000
   D12        3.14155   0.00000   0.00000   0.00004   0.00004   3.14159
   D13       -3.14158  -0.00000   0.00000  -0.00001  -0.00001  -3.14159
   D14        0.00001  -0.00000   0.00000  -0.00001  -0.00001  -0.00000
   D15       -0.00004   0.00000   0.00000   0.00004   0.00004  -0.00000
   D16        3.14155   0.00000   0.00000   0.00004   0.00004  -3.14159
         Item               Value     Threshold  Converged?
 Maximum Force            0.000069     0.000450     YES
 RMS     Force            0.000018     0.000300     YES
 Maximum Displacement     0.000301     0.001800     YES
 RMS     Displacement     0.000084     0.001200     YES
 Predicted change in Energy=-2.209637D-08
 Optimization completed.
    -- Stationary point found.
                           ----------------------------
                           !   Optimized Parameters   !
                           ! (Angstroms and Degrees)  !
 --------------------------                            --------------------------
 ! Name  Definition              Value          Derivative Info.                !
 --------------------------------------------------------------------------------
 ! R1    R(1,2)                  1.3317         -DE/DX =    0.0                 !
 ! R2    R(1,5)                  1.292          -DE/DX =    0.0001              !
 ! R3    R(1,9)                  1.0179         -DE/DX =    0.0                 !
 ! R4    R(2,3)                  1.3354         -DE/DX =    0.0                 !
 ! R5    R(2,8)                  1.018          -DE/DX =    0.0                 !
 ! R6    R(3,4)                  1.3948         -DE/DX =    0.0                 !
 ! R7    R(3,6)                  1.0806         -DE/DX =    0.0                 !
 ! R8    R(4,5)                  1.3379         -DE/DX =   -0.0001              !
 ! R9    R(4,7)                  1.0791         -DE/DX =    0.0                 !
 ! A1    A(2,1,5)              112.2018         -DE/DX =    0.0                 !
 ! A2    A(2,1,9)              124.0462         -DE/DX =    0.0                 !
 ! A3    A(5,1,9)              123.752          -DE/DX =    0.0                 !
 ! A4    A(1,2,3)              107.6265         -DE/DX =    0.0                 !
 ! A5    A(1,2,8)              122.2294         -DE/DX =    0.0                 !
 ! A6    A(3,2,8)              130.1441         -DE/DX =    0.0                 !
 ! A7    A(2,3,4)              105.0306         -DE/DX =    0.0                 !
 ! A8    A(2,3,6)              122.2985         -DE/DX =    0.0                 !
 ! A9    A(4,3,6)              132.6709         -DE/DX =    0.0                 !
 ! A10   A(3,4,5)              109.0476         -DE/DX =    0.0                 !
 ! A11   A(3,4,7)              129.502          -DE/DX =    0.0                 !
 ! A12   A(5,4,7)              121.4504         -DE/DX =    0.0                 !
 ! A13   A(1,5,4)              106.0935         -DE/DX =    0.0                 !
 ! D1    D(5,1,2,3)             -0.0083         -DE/DX =    0.0                 !
 ! D2    D(5,1,2,8)           -179.9932         -DE/DX =    0.0                 !
 ! D3    D(9,1,2,3)           -179.9943         -DE/DX =    0.0                 !
 ! D4    D(9,1,2,8)              0.0207         -DE/DX =    0.0                 !
 ! D5    D(2,1,5,4)              0.0066         -DE/DX =    0.0                 !
 ! D6    D(9,1,5,4)            179.9927         -DE/DX =    0.0                 !
 ! D7    D(1,2,3,4)              0.0061         -DE/DX =    0.0                 !
 ! D8    D(1,2,3,6)           -179.9964         -DE/DX =    0.0                 !
 ! D9    D(8,2,3,4)            179.9895         -DE/DX =    0.0                 !
 ! D10   D(8,2,3,6)             -0.013          -DE/DX =    0.0                 !
 ! D11   D(2,3,4,5)             -0.0024         -DE/DX =    0.0                 !
 ! D12   D(2,3,4,7)            179.9977         -DE/DX =    0.0                 !
 ! D13   D(6,3,4,5)           -179.9995         -DE/DX =    0.0                 !
 ! D14   D(6,3,4,7)              0.0006         -DE/DX =    0.0                 !
 ! D15   D(3,4,5,1)             -0.0025         -DE/DX =    0.0                 !
 ! D16   D(7,4,5,1)           -180.0025         -DE/DX =    0.0                 !
 --------------------------------------------------------------------------------
 GradGradGradGradGradGradGradGradGradGradGradGradGradGradGradGradGradGrad


 ----------------------------------------------------------------------

 Electric dipole moment (input orientation):
 (Debye = 10**-18 statcoulomb cm , SI units = C m)
                  (au)            (Debye)         (10**-30 SI)
   Tot        0.156583D+01      0.397995D+01      0.132757D+02
   x          0.150190D+01      0.381746D+01      0.127337D+02
   y          0.442845D+00      0.112560D+01      0.375459D+01
   z         -0.284288D-03     -0.722587D-03     -0.241029D-02

 Dipole polarizability, Alpha (input orientation).
 (esu units = cm**3 , SI units = C**2 m**2 J**-1)
 Alpha(0;0):
               (au)            (10**-24 esu)      (10**-40 SI)
   iso        0.359634D+02      0.532922D+01      0.592956D+01
   aniso      0.214777D+02      0.318266D+01      0.354119D+01
   xx         0.422707D+02      0.626388D+01      0.696950D+01
   yx        -0.939214D+00     -0.139177D+00     -0.154855D+00
   yy         0.439022D+02      0.650563D+01      0.723849D+01
   zx        -0.305893D-02     -0.453286D-03     -0.504349D-03
   zy        -0.704974D-03     -0.104466D-03     -0.116234D-03
   zz         0.217172D+02      0.321815D+01      0.358067D+01

 ----------------------------------------------------------------------

 Dipole orientation:
     7          0.59424776         -2.01453878          0.42426260
     7          0.06597339         -0.22371050          2.11157191
     6         -0.55030361          1.86682812          0.83953976
     6         -0.35433132          1.20234416         -1.70348074
     7          0.35913300         -1.21736210         -1.87142153
     1         -1.06292095          3.60526442          1.78030305
     1         -0.68723672          2.33150436         -3.36863780
     1          0.15947339         -0.54009960          4.00685678
     1          1.12224820         -3.80591243          0.88470255

 Electric dipole moment (dipole orientation):
 (Debye = 10**-18 statcoulomb cm , SI units = C m)
                  (au)            (Debye)         (10**-30 SI)
   Tot        0.156583D+01      0.397995D+01      0.132757D+02
   x          0.000000D+00      0.000000D+00      0.000000D+00
   y          0.000000D+00      0.000000D+00      0.000000D+00
   z          0.156583D+01      0.397995D+01      0.132757D+02

 Dipole polarizability, Alpha (dipole orientation).
 (esu units = cm**3 , SI units = C**2 m**2 J**-1)
 Alpha(0;0):
               (au)            (10**-24 esu)      (10**-40 SI)
   iso        0.359634D+02      0.532922D+01      0.592956D+01
   aniso      0.214777D+02      0.318266D+01      0.354119D+01
   xx         0.235220D+02      0.348560D+01      0.387826D+01
   yx        -0.612110D+01     -0.907053D+00     -0.100923D+01
   yy         0.424764D+02      0.629435D+01      0.700341D+01
   zx         0.974613D-01      0.144423D-01      0.160692D-01
   zy        -0.332411D+00     -0.492583D-01     -0.548072D-01
   zz         0.418917D+02      0.620771D+01      0.690700D+01

 ----------------------------------------------------------------------
 1\1\GINC-NODE6\Freq\RM062X\6-31+G(d,p)\C2H4N3(1+)\GONGKE2021\09-May-20
 23\0\\#N Geom=AllCheck Guess=TCheck SCRF=Check GenChk RM062X/6-31+G(d,
 p) Freq\\2-H-1-H-Tz\\1,1\N,0.5296847443,-1.0025885386,-0.0001677354\N,
 1.1066827998,0.1976350023,-0.0002085305\C,0.1348509609,1.1135087145,-0
 .0001520744\C,-1.0522353979,0.3812824404,0.0000690899\N,-0.7599289699,
 -0.9243052176,0.0000847607\H,0.3411061022,2.1742490896,-0.0002272102\H
 ,-2.073606236,0.7295950802,0.0002120383\H,2.1180533222,0.3138282645,-0
 .0004977047\H,1.0428926746,-1.8816048352,-0.0001126337\\Version=ES64L-
 G16RevA.03\State=1-A\HF=-242.4675642\RMSD=3.660e-09\RMSF=3.243e-05\Zer
 oPoint=0.0733696\Thermal=0.0770707\Dipole=1.5019041,0.4428445,-0.00028
 43\DipoleDeriv=0.0565184,0.6757513,0.0000279,0.4139606,-0.3787781,-0.0
 000403,0.000128,-0.0002627,-0.00411,-0.6889744,-0.2127977,0.0000721,-0
 .1548099,0.2800986,0.0000502,-0.0000838,0.0000616,-0.0837415,0.2895078
 ,0.3777509,-0.0000027,-0.0768391,0.1131908,-0.0000142,0.0000215,-0.000
 0404,0.081898,0.2256392,-0.2025261,-0.0000323,-0.0468072,-0.3433853,-0
 .0000028,-0.0000296,0.0000564,0.0062075,-0.0247774,-0.5079635,-0.00005
 74,-0.0142402,0.1850453,0.0000053,-0.0000371,0.0001283,-0.1148291,0.13
 89372,-0.0093837,0.0000071,0.0041027,0.253206,-0.0000009,0.000006,-0.0
 000066,0.1950401,0.2058569,-0.0161814,-0.0000018,-0.0385811,0.1391748,
 0.000009,-0.0000043,0.0000049,0.1846423,0.5127816,0.0369944,-0.0000316
 ,0.0401113,0.2445643,-0.0000107,0.0000195,-0.0000017,0.3748604,0.28451
 07,-0.1416441,0.0000186,-0.1268972,0.5068837,0.0000043,-0.0000202,0.00
 00603,0.3600322\Polar=42.2707477,-0.9392139,43.9021871,-0.0030589,-0.0
 00705,21.7171521\Quadrupole=3.9380816,2.4253034,-6.3633849,-3.0993929,
 -0.0016574,-0.0001292\PG=C01 [X(C2H4N3)]\NImag=0\\0.82990140,-0.193317
 95,0.96754500,-0.00008497,-0.00003762,0.09679713,-0.16520393,-0.052191
 82,0.00001516,1.06794450,-0.09450622,-0.31281440,0.00001963,-0.0032067
 6,0.69377650,0.00001994,0.00000973,-0.04983220,-0.00020217,-0.00002299
 ,0.10157900,-0.03504952,0.05646583,0.00001759,-0.26847836,0.12130028,0
 .00002661,0.62064940,0.00396591,-0.11620868,0.00000581,0.13784500,-0.2
 6266873,-0.00000828,0.04657378,0.95247558,0.00000750,-0.00000906,0.013
 63409,0.00001834,0.00000086,-0.06457905,-0.00007323,-0.00004547,0.1378
 1829,-0.06531490,0.03678574,0.00000403,-0.08683481,0.05293216,0.000013
 98,-0.28476654,-0.11067725,0.00003873,0.91722330,0.10841047,-0.0713399
 4,-0.00002385,-0.04433315,0.04842556,-0.00000202,-0.06095207,-0.178279
 72,0.00001873,-0.12186087,0.63358840,0.00000913,-0.00000630,0.01158487
 ,0.00001415,-0.00001170,0.01035679,0.00003472,0.00002256,-0.07159116,-
 0.00011549,-0.00000174,0.14185749,-0.39128602,-0.01750617,0.00005143,-
 0.12586107,-0.04220592,0.00002012,0.05809957,-0.00162665,-0.00000285,-
 0.13287600,0.03750958,0.00000940,0.60085061,0.04460226,-0.11338871,0.0
 0000258,-0.01276431,-0.05650508,0.00001097,-0.09745746,-0.05905190,0.0
 0001562,0.04693687,-0.35165691,0.00000664,-0.00728029,0.58820995,0.000
 06485,0.00001226,-0.07063590,0.00001829,0.00000615,0.02144885,-0.00000
 501,0.00000243,0.01944154,0.00000966,0.00001040,-0.07146818,-0.0000843
 8,-0.00002228,0.10789286,-0.00755139,0.00455592,0.00000104,0.01007068,
 0.03019974,-0.00000240,-0.07274806,-0.07259125,0.00000795,0.00947323,-
 0.01744706,-0.00000038,-0.00354964,-0.00669557,0.00000154,0.06278548,0
 .00115941,0.00236553,0.00000088,-0.00532040,-0.01209355,0.00000043,-0.
 05933865,-0.36312084,0.00002340,0.00128641,0.00110643,-0.00000037,0.00
 083427,-0.00014267,0.00000004,0.06125151,0.37213233,0.00000203,-0.0000
 0159,0.00507002,-0.00000117,-0.00000073,-0.00136402,0.00000852,0.00002
 286,-0.03464277,-0.00000118,0.00000272,0.00186672,0.00000079,0.0000012
 6,0.00556757,-0.00000754,-0.00002414,0.02517260,0.00418313,-0.00162004
 ,0.00000019,-0.00131631,-0.00240261,0.00000163,-0.00804737,0.00790413,
 0.00000070,-0.34806050,0.09694929,0.00004447,0.00177648,0.00092799,-0.
 00000125,-0.00009692,-0.00024321,-0.00000024,0.35133178,0.00298817,-0.
 00692046,0.00000068,-0.00557277,-0.00352295,0.00000156,-0.01600570,0.0
 1187370,0.00000155,0.08880198,-0.08548711,-0.00001055,0.03030163,-0.00
 674719,-0.00000528,0.00041679,-0.00001846,-0.00000015,-0.10215651,0.08
 896994,0.00000003,0.00000086,0.00762604,0.00000182,0.00000073,0.005725
 75,0.00000170,-0.00000201,-0.00005856,0.00004490,-0.00001163,-0.033662
 64,-0.00000298,-0.00000082,-0.00704817,-0.00000025,-0.00000003,-0.0017
 0325,-0.00004577,0.00001274,0.02635888,-0.00277864,-0.00081731,-0.0000
 0149,-0.44820561,-0.04102649,0.00012249,-0.00680355,-0.00499487,0.0000
 0250,-0.00082036,0.00328011,0.00000141,0.00522149,0.00030453,0.0000007
 7,0.00035562,0.00046828,-0.00000101,-0.00010770,-0.00010973,0.00000017
 ,0.45205477,-0.03605248,0.00659989,0.00001045,-0.02906879,-0.07824614,
 0.00000987,0.01784697,0.01562246,-0.00000701,0.00682182,-0.00367520,0.
 00000021,-0.00271149,-0.00880253,-0.00000063,-0.00028408,0.00006291,-0
 .00000010,0.00040748,0.00126205,0.00000014,0.04375625,0.06792772,-0.00
 000807,-0.00000225,-0.00979162,0.00013678,0.00001373,-0.01242939,-0.00
 000755,0.00000055,-0.00298318,0.00000052,0.00000365,0.00467788,0.00000
 305,-0.00000228,0.00625140,-0.00000023,-0.00000013,-0.00225857,0.00000
 002,-0.00000016,0.00116792,-0.00012460,-0.00001321,0.01499375,-0.16690
 013,0.16764582,-0.00000299,0.01788490,-0.02108418,-0.00000021,-0.00285
 556,-0.00639880,0.00000037,-0.00802343,-0.00155631,0.00000259,-0.01237
 542,0.03142599,-0.00000448,0.00126099,-0.00009762,-0.00000020,0.000337
 40,0.00133613,0.00000038,0.00108398,-0.00071567,0.00000009,0.16958726,
 0.16275042,-0.35583824,0.00002145,0.01461300,-0.01635122,0.00000072,-0
 .00843298,-0.00064187,0.00000137,-0.00102686,0.00731849,0.00000125,0.0
 0268504,0.00808504,-0.00000311,0.00059401,-0.00029168,-0.00000012,0.00
 023348,0.00059048,0.00000002,-0.00086076,-0.00075116,0.00000010,-0.170
 55536,0.35788017,-0.00001044,0.00003397,-0.00445242,-0.00000121,-0.000
 00569,-0.01090572,-0.00000335,0.00000154,0.00296079,0.00000486,0.00000
 373,0.00637823,0.00000541,-0.00001168,-0.01144998,0.00000026,-0.000000
 08,0.00229170,0.00000026,-0.00000039,0.00159402,-0.00000023,0.00000027
 ,0.00037181,0.00000446,-0.00002168,0.01321157\\-0.00006068,-0.00002394
 ,-0.00001373,0.00001639,0.00002593,0.00001601,-0.00000762,-0.00004361,
 -0.00000769,0.00000543,0.00008725,-0.00000015,0.00007937,-0.00006074,0
 .00000765,-0.00000174,0.00000174,0.00000018,0.00000944,0.00000944,-0.0
 0000035,-0.00001568,-0.00002955,-0.00000228,-0.00002491,0.00003348,0.0
 0000036\\\@


 ASKING DUMB QUESTIONS IS EASIER THAN CORECTING DUMB MISTAKES.
 Job cpu time:       0 days  0 hours  7 minutes 56.8 seconds.
 Elapsed time:       0 days  0 hours  0 minutes 20.4 seconds.
 File lengths (MBytes):  RWF=     17 Int=      0 D2E=      0 Chk=      2 Scr=      1
 Normal termination of Gaussian 16 at Tue May  9 21:20:47 2023.
