 Entering Gaussian System, Link 0=/opt/soft/g16b/g16/g16
 Initial command:
 /opt/soft/g16b/g16/l1.exe "/scratch/gongke2021/1-H-Tz-TS/Gau-12539.inp" -scrdir="/scratch/gongke2021/1-H-Tz-TS/"
 Entering Link 1 = /opt/soft/g16b/g16/l1.exe PID=     12540.
  
 Copyright (c) 1988,1990,1992,1993,1995,1998,2003,2009,2016,
            Gaussian, Inc.  All Rights Reserved.
  
 This is part of the Gaussian(R) 16 program.  It is based on
 the Gaussian(R) 09 system (copyright 2009, Gaussian, Inc.),
 the Gaussian(R) 03 system (copyright 2003, Gaussian, Inc.),
 the Gaussian(R) 98 system (copyright 1998, Gaussian, Inc.),
 the Gaussian(R) 94 system (copyright 1995, Gaussian, Inc.),
 the Gaussian 92(TM) system (copyright 1992, Gaussian, Inc.),
 the Gaussian 90(TM) system (copyright 1990, Gaussian, Inc.),
 the Gaussian 88(TM) system (copyright 1988, Gaussian, Inc.),
 the Gaussian 86(TM) system (copyright 1986, Carnegie Mellon
 University), and the Gaussian 82(TM) system (copyright 1983,
 Carnegie Mellon University). Gaussian is a federally registered
 trademark of Gaussian, Inc.
  
 This software contains proprietary and confidential information,
 including trade secrets, belonging to Gaussian, Inc.
  
 This software is provided under written license and may be
 used, copied, transmitted, or stored only in accord with that
 written license.
  
 The following legend is applicable only to US Government
 contracts under FAR:
  
                    RESTRICTED RIGHTS LEGEND
  
 Use, reproduction and disclosure by the US Government is
 subject to restrictions as set forth in subparagraphs (a)
 and (c) of the Commercial Computer Software - Restricted
 Rights clause in FAR 52.227-19.
  
 Gaussian, Inc.
 340 Quinnipiac St., Bldg. 40, Wallingford CT 06492
  
  
 ---------------------------------------------------------------
 Warning -- This program may not be used in any manner that
 competes with the business of Gaussian, Inc. or will provide
 assistance to any competitor of Gaussian, Inc.  The licensee
 of this program is prohibited from giving any competitor of
 Gaussian, Inc. access to this program.  By using this program,
 the user acknowledges that Gaussian, Inc. is engaged in the
 business of creating and licensing software in the field of
 computational chemistry and represents and warrants to the
 licensee that it is not a competitor of Gaussian, Inc. and that
 it will not use this program in any manner prohibited above.
 ---------------------------------------------------------------
  

 Cite this work as:
 Gaussian 16, Revision A.03,
 M. J. Frisch, G. W. Trucks, H. B. Schlegel, G. E. Scuseria, 
 M. A. Robb, J. R. Cheeseman, G. Scalmani, V. Barone, 
 G. A. Petersson, H. Nakatsuji, X. Li, M. Caricato, A. V. Marenich, 
 J. Bloino, B. G. Janesko, R. Gomperts, B. Mennucci, H. P. Hratchian, 
 J. V. Ortiz, A. F. Izmaylov, J. L. Sonnenberg, D. Williams-Young, 
 F. Ding, F. Lipparini, F. Egidi, J. Goings, B. Peng, A. Petrone, 
 T. Henderson, D. Ranasinghe, V. G. Zakrzewski, J. Gao, N. Rega, 
 G. Zheng, W. Liang, M. Hada, M. Ehara, K. Toyota, R. Fukuda, 
 J. Hasegawa, M. Ishida, T. Nakajima, Y. Honda, O. Kitao, H. Nakai, 
 T. Vreven, K. Throssell, J. A. Montgomery, Jr., J. E. Peralta, 
 F. Ogliaro, M. J. Bearpark, J. J. Heyd, E. N. Brothers, K. N. Kudin, 
 V. N. Staroverov, T. A. Keith, R. Kobayashi, J. Normand, 
 K. Raghavachari, A. P. Rendell, J. C. Burant, S. S. Iyengar, 
 J. Tomasi, M. Cossi, J. M. Millam, M. Klene, C. Adamo, R. Cammi, 
 J. W. Ochterski, R. L. Martin, K. Morokuma, O. Farkas, 
 J. B. Foresman, and D. J. Fox, Gaussian, Inc., Wallingford CT, 2016.
 
 ******************************************
 Gaussian 16:  ES64L-G16RevA.03 25-Dec-2016
                10-Mar-2023 
 ******************************************
 %mem=10GB
 %nprocshared=20
 Will use up to   20 processors via shared memory.
 ----------------------------------------------------------------------
 # opt=(calcfc,ts,noeigentest) freq 6-31+g(d,p) integral=grid=ultrafine
  m062x
 ----------------------------------------------------------------------
 1/5=1,10=4,11=1,18=20,26=4,38=1/1,3;
 2/9=110,12=2,17=6,18=5,40=1/2;
 3/5=1,6=6,7=111,11=2,25=1,30=1,71=2,74=-55,75=-5,140=1/1,2,3;
 4//1;
 5/5=2,38=5/2;
 8/6=4,10=90,11=11/1;
 11/6=1,8=1,9=11,15=111,16=1/1,2,10;
 10/6=1,13=1/2;
 6/7=2,8=2,9=2,10=2,28=1/1;
 7/10=1,18=20,25=1/1,2,3,16;
 1/5=1,10=4,11=1,18=20,26=4/3(2);
 2/9=110/2;
 99//99;
 2/9=110/2;
 3/5=1,6=6,7=111,11=2,25=1,30=1,71=1,74=-55,75=-5/1,2,3;
 4/5=5,16=3,69=1/1;
 5/5=2,38=5/2;
 7//1,2,3,16;
 1/5=1,11=1,18=20,26=4/3(-5);
 2/9=110/2;
 6/7=2,8=2,9=2,10=2,19=2,28=1/1;
 99/9=1/99;
 ----------
 "Sketch 2"
 ----------
 Symbolic Z-matrix:
 Charge =  0 Multiplicity = 1
 N                    -0.05501  -0.03577   0.1298 
 N                    -0.73933   1.12014   0.05282 
 C                    -1.99078   0.73009  -0.06476 
 C                    -2.02839  -0.68637  -0.05755 
 N                    -0.7988   -1.14268   0.05752 
 H                    -2.80837   1.43448  -0.09828 
 H                    -2.87259  -1.3519   -0.15404 
 H                     0.71238   1.76256   0.09277 
 C                     1.36985  -0.11849   0.01649 
 O                     1.98027   1.05276  -0.08346 
 O                     1.93762  -1.17777  -0.04218 
 
 Add virtual bond connecting atoms N2         and H8         Dist= 3.00D+00.
 Add virtual bond connecting atoms O10        and H8         Dist= 2.77D+00.

 GradGradGradGradGradGradGradGradGradGradGradGradGradGradGradGradGradGrad
 Berny optimization.
 Initialization pass.
                           ----------------------------
                           !    Initial Parameters    !
                           ! (Angstroms and Degrees)  !
 --------------------------                            --------------------------
 ! Name  Definition              Value          Derivative Info.                !
 --------------------------------------------------------------------------------
 ! R1    R(1,2)                  1.3455         calculate D2E/DX2 analytically  !
 ! R2    R(1,5)                  1.3356         calculate D2E/DX2 analytically  !
 ! R3    R(1,9)                  1.4317         calculate D2E/DX2 analytically  !
 ! R4    R(2,3)                  1.3161         calculate D2E/DX2 analytically  !
 ! R5    R(2,8)                  1.588          calculate D2E/DX2 analytically  !
 ! R6    R(3,4)                  1.417          calculate D2E/DX2 analytically  !
 ! R7    R(3,6)                  1.0797         calculate D2E/DX2 analytically  !
 ! R8    R(4,5)                  1.3166         calculate D2E/DX2 analytically  !
 ! R9    R(4,7)                  1.0793         calculate D2E/DX2 analytically  !
 ! R10   R(8,10)                 1.4637         calculate D2E/DX2 analytically  !
 ! R11   R(9,10)                 1.3246         calculate D2E/DX2 analytically  !
 ! R12   R(9,11)                 1.2033         calculate D2E/DX2 analytically  !
 ! A1    A(2,1,5)              115.1931         calculate D2E/DX2 analytically  !
 ! A2    A(2,1,9)              123.4542         calculate D2E/DX2 analytically  !
 ! A3    A(5,1,9)              120.137          calculate D2E/DX2 analytically  !
 ! A4    A(1,2,3)              103.5402         calculate D2E/DX2 analytically  !
 ! A5    A(1,2,8)               83.1742         calculate D2E/DX2 analytically  !
 ! A6    A(2,3,4)              108.7263         calculate D2E/DX2 analytically  !
 ! A7    A(2,3,6)              121.9697         calculate D2E/DX2 analytically  !
 ! A8    A(4,3,6)              129.2139         calculate D2E/DX2 analytically  !
 ! A9    A(3,4,5)              108.7909         calculate D2E/DX2 analytically  !
 ! A10   A(3,4,7)              129.5463         calculate D2E/DX2 analytically  !
 ! A11   A(5,4,7)              121.6411         calculate D2E/DX2 analytically  !
 ! A12   A(1,5,4)              103.7453         calculate D2E/DX2 analytically  !
 ! A13   A(2,8,10)             126.3464         calculate D2E/DX2 analytically  !
 ! A14   A(1,9,10)             114.4256         calculate D2E/DX2 analytically  !
 ! A15   A(1,9,11)             121.6217         calculate D2E/DX2 analytically  !
 ! A16   A(10,9,11)            123.8699         calculate D2E/DX2 analytically  !
 ! A17   A(8,10,9)              91.1764         calculate D2E/DX2 analytically  !
 ! A18   L(3,2,8,1,-1)         186.7144         calculate D2E/DX2 analytically  !
 ! A19   L(3,2,8,1,-2)         176.5741         calculate D2E/DX2 analytically  !
 ! D1    D(5,1,2,3)              0.496          calculate D2E/DX2 analytically  !
 ! D2    D(5,1,2,8)           -176.078          calculate D2E/DX2 analytically  !
 ! D3    D(9,1,2,3)            167.8771         calculate D2E/DX2 analytically  !
 ! D4    D(9,1,2,8)             -8.6969         calculate D2E/DX2 analytically  !
 ! D5    D(2,1,5,4)             -0.688          calculate D2E/DX2 analytically  !
 ! D6    D(9,1,5,4)           -168.521          calculate D2E/DX2 analytically  !
 ! D7    D(2,1,9,10)             4.2649         calculate D2E/DX2 analytically  !
 ! D8    D(2,1,9,11)          -172.5457         calculate D2E/DX2 analytically  !
 ! D9    D(5,1,9,10)           171.0513         calculate D2E/DX2 analytically  !
 ! D10   D(5,1,9,11)            -5.7593         calculate D2E/DX2 analytically  !
 ! D11   D(1,2,3,4)             -0.097          calculate D2E/DX2 analytically  !
 ! D12   D(1,2,3,6)            176.75           calculate D2E/DX2 analytically  !
 ! D13   D(4,3,8,10)            13.0821         calculate D2E/DX2 analytically  !
 ! D14   D(6,3,8,10)          -168.1782         calculate D2E/DX2 analytically  !
 ! D15   D(1,2,8,10)            12.8062         calculate D2E/DX2 analytically  !
 ! D16   D(2,3,4,5)             -0.3142         calculate D2E/DX2 analytically  !
 ! D17   D(2,3,4,7)           -178.6121         calculate D2E/DX2 analytically  !
 ! D18   D(6,3,4,5)           -176.8615         calculate D2E/DX2 analytically  !
 ! D19   D(6,3,4,7)              4.8406         calculate D2E/DX2 analytically  !
 ! D20   D(3,4,5,1)              0.5736         calculate D2E/DX2 analytically  !
 ! D21   D(7,4,5,1)            179.0319         calculate D2E/DX2 analytically  !
 ! D22   D(2,8,10,9)           -11.4369         calculate D2E/DX2 analytically  !
 ! D23   D(1,9,10,8)             4.0002         calculate D2E/DX2 analytically  !
 ! D24   D(11,9,10,8)         -179.2708         calculate D2E/DX2 analytically  !
 --------------------------------------------------------------------------------
 Trust Radius=3.00D-01 FncErr=1.00D-07 GrdErr=1.00D-06 EigMax=2.50D+02 EigMin=1.00D-04
 Number of steps in this run=     65 maximum allowed number of steps=    100.
 Search for a saddle point of order  1.
 GradGradGradGradGradGradGradGradGradGradGradGradGradGradGradGradGradGrad

                          Input orientation:                          
 ---------------------------------------------------------------------
 Center     Atomic      Atomic             Coordinates (Angstroms)
 Number     Number       Type             X           Y           Z
 ---------------------------------------------------------------------
      1          7           0       -0.055005   -0.035768    0.129797
      2          7           0       -0.739332    1.120139    0.052816
      3          6           0       -1.990779    0.730089   -0.064755
      4          6           0       -2.028390   -0.686374   -0.057551
      5          7           0       -0.798802   -1.142678    0.057517
      6          1           0       -2.808373    1.434484   -0.098284
      7          1           0       -2.872592   -1.351898   -0.154039
      8          1           0        0.712384    1.762561    0.092772
      9          6           0        1.369848   -0.118493    0.016493
     10          8           0        1.980265    1.052760   -0.083462
     11          8           0        1.937620   -1.177768   -0.042176
 ---------------------------------------------------------------------
                    Distance matrix (angstroms):
                    1          2          3          4          5
     1  N    0.000000
     2  N    1.345493   0.000000
     3  C    2.090839   1.316086   0.000000
     4  C    2.086297   2.222013   1.416981   0.000000
     5  N    1.335555   2.263603   2.223289   1.316564   0.000000
     6  H    3.129648   2.098231   1.079702   2.260104   3.271760
     7  H    3.122748   3.271781   2.262794   1.079310   2.095026
     8  H    1.955567   1.588012   2.897914   3.678549   3.274956
     9  C    1.431743   2.446256   3.467060   3.446156   2.398683
    10  O    2.317908   2.723843   3.984176   4.369734   3.544437
    11  O    2.303105   3.529231   4.367236   3.996366   2.738462
                    6          7          8          9         10
     6  H    0.000000
     7  H    2.787680   0.000000
     8  H    3.541168   4.755294   0.000000
     9  C    4.458973   4.421387   1.994101   0.000000
    10  O    4.803851   5.416418   1.463693   1.324550   0.000000
    11  O    5.417699   4.814662   3.188251   1.203275   2.231318
                   11
    11  O    0.000000
 Stoichiometry    C3H3N3O2
 Framework group  C1[X(C3H3N3O2)]
 Deg. of freedom    27
 Full point group                 C1      NOp   1
 Largest Abelian subgroup         C1      NOp   1
 Largest concise Abelian subgroup C1      NOp   1
                         Standard orientation:                         
 ---------------------------------------------------------------------
 Center     Atomic      Atomic             Coordinates (Angstroms)
 Number     Number       Type             X           Y           Z
 ---------------------------------------------------------------------
      1          7           0       -0.043145   -0.036669    0.131622
      2          7           0       -0.741918    1.110810    0.058416
      3          6           0       -1.988148    0.705472   -0.062800
      4          6           0       -2.007851   -0.711371   -0.061624
      5          7           0       -0.772770   -1.152578    0.053488
      6          1           0       -2.814533    1.399611   -0.094670
      7          1           0       -2.843418   -1.387099   -0.162266
      8          1           0        0.701494    1.771357    0.103402
      9          6           0        1.382814   -0.100895    0.020251
     10          8           0        1.978522    1.078393   -0.073791
     11          8           0        1.964028   -1.152650   -0.041972
 ---------------------------------------------------------------------
 Rotational constants (GHZ):           5.2893743           1.8299117           1.3638629
 Standard basis: 6-31+G(d,p) (6D, 7F)
 There are   167 symmetry adapted cartesian basis functions of A   symmetry.
 There are   167 symmetry adapted basis functions of A   symmetry.
   167 basis functions,   277 primitive gaussians,   167 cartesian basis functions
    29 alpha electrons       29 beta electrons
       nuclear repulsion energy       362.6598870991 Hartrees.
 NAtoms=   11 NActive=   11 NUniq=   11 SFac= 1.00D+00 NAtFMM=   60 NAOKFM=F Big=F
 Integral buffers will be    131072 words long.
 Raffenetti 2 integral format.
 Two-electron integral symmetry is turned on.
 One-electron integrals computed using PRISM.
 NBasis=   167 RedAO= T EigKep=  3.15D-05  NBF=   167
 NBsUse=   167 1.00D-06 EigRej= -1.00D+00 NBFU=   167
 ExpMin= 4.38D-02 ExpMax= 5.48D+03 ExpMxC= 8.25D+02 IAcc=3 IRadAn=         5 AccDes= 0.00D+00
 Harris functional with IExCor= 1009 and IRadAn=       5 diagonalized for initial guess.
 HarFok:  IExCor= 1009 AccDes= 0.00D+00 IRadAn=         5 IDoV= 1 UseB2=F ITyADJ=14
 ICtDFT=  3500011 ScaDFX=  1.000000  1.000000  1.000000  1.000000
 FoFCou: FMM=F IPFlag=           0 FMFlag=      100000 FMFlg1=           0
         NFxFlg=           0 DoJE=T BraDBF=F KetDBF=T FulRan=T
         wScrn=  0.000000 ICntrl=       500 IOpCl=  0 I1Cent=   200000004 NGrid=           0
         NMat0=    1 NMatS0=      1 NMatT0=    0 NMatD0=    1 NMtDS0=    0 NMtDT0=    0
 Petite list used in FoFCou.
 Keep R1 ints in memory in canonical form, NReq=118249495.
 Requested convergence on RMS density matrix=1.00D-08 within 128 cycles.
 Requested convergence on MAX density matrix=1.00D-06.
 Requested convergence on             energy=1.00D-06.
 No special actions if energy rises.
 SCF Done:  E(RM062X) =  -430.579131512     A.U. after   15 cycles
            NFock= 15  Conv=0.72D-08     -V/T= 2.0089
 DoSCS=F DFT=T ScalE2(SS,OS)=  1.000000  1.000000
 Range of M.O.s used for correlation:     1   167
 NBasis=   167 NAE=    29 NBE=    29 NFC=     0 NFV=     0
 NROrb=    167 NOA=    29 NOB=    29 NVA=   138 NVB=   138

 **** Warning!!: The largest alpha MO coefficient is  0.54359632D+02

 Symmetrizing basis deriv contribution to polar:
 IMax=3 JMax=2 DiffMx= 0.00D+00
 G2DrvN: will do    12 centers at a time, making    1 passes.
 Calling FoFCou, ICntrl=  3107 FMM=F I1Cent=   0 AccDes= 0.00D+00.
 End of G2Drv F.D. properties file   721 does not exist.
 End of G2Drv F.D. properties file   722 does not exist.
 End of G2Drv F.D. properties file   788 does not exist.
          IDoAtm=11111111111
          Differentiating once with respect to nuclear coordinates.
 Keep R1 ints in memory in canonical form, NReq=118190337.
          There are    36 degrees of freedom in the 1st order CPHF.  IDoFFX=6 NUNeed=     0.
     30 vectors produced by pass  0 Test12= 1.11D-14 2.78D-09 XBig12= 1.91D-01 1.21D-01.
 AX will form    30 AO Fock derivatives at one time.
     30 vectors produced by pass  1 Test12= 1.11D-14 2.78D-09 XBig12= 4.81D-02 9.99D-02.
     30 vectors produced by pass  2 Test12= 1.11D-14 2.78D-09 XBig12= 8.89D-04 4.85D-03.
     30 vectors produced by pass  3 Test12= 1.11D-14 2.78D-09 XBig12= 1.16D-05 4.63D-04.
     30 vectors produced by pass  4 Test12= 1.11D-14 2.78D-09 XBig12= 1.03D-07 3.83D-05.
     30 vectors produced by pass  5 Test12= 1.11D-14 2.78D-09 XBig12= 5.78D-10 2.94D-06.
     29 vectors produced by pass  6 Test12= 1.11D-14 2.78D-09 XBig12= 2.77D-12 2.49D-07.
      9 vectors produced by pass  7 Test12= 1.11D-14 2.78D-09 XBig12= 1.14D-14 1.43D-08.
 InvSVY:  IOpt=1 It=  1 EMax= 1.55D-15
 Solved reduced A of dimension   218 with    30 vectors.
 End of Minotr F.D. properties file   721 does not exist.
 End of Minotr F.D. properties file   722 does not exist.
 End of Minotr F.D. properties file   788 does not exist.

 **********************************************************************

            Population analysis using the SCF density.

 **********************************************************************

 Orbital symmetries:
       Occupied  (A) (A) (A) (A) (A) (A) (A) (A) (A) (A) (A) (A)
                 (A) (A) (A) (A) (A) (A) (A) (A) (A) (A) (A) (A)
                 (A) (A) (A) (A) (A)
       Virtual   (A) (A) (A) (A) (A) (A) (A) (A) (A) (A) (A) (A)
                 (A) (A) (A) (A) (A) (A) (A) (A) (A) (A) (A) (A)
                 (A) (A) (A) (A) (A) (A) (A) (A) (A) (A) (A) (A)
                 (A) (A) (A) (A) (A) (A) (A) (A) (A) (A) (A) (A)
                 (A) (A) (A) (A) (A) (A) (A) (A) (A) (A) (A) (A)
                 (A) (A) (A) (A) (A) (A) (A) (A) (A) (A) (A) (A)
                 (A) (A) (A) (A) (A) (A) (A) (A) (A) (A) (A) (A)
                 (A) (A) (A) (A) (A) (A) (A) (A) (A) (A) (A) (A)
                 (A) (A) (A) (A) (A) (A) (A) (A) (A) (A) (A) (A)
                 (A) (A) (A) (A) (A) (A) (A) (A) (A) (A) (A) (A)
                 (A) (A) (A) (A) (A) (A) (A) (A) (A) (A) (A) (A)
                 (A) (A) (A) (A) (A) (A)
 The electronic state is 1-A.
 Alpha  occ. eigenvalues --  -19.69425 -19.64288 -14.92906 -14.89317 -14.85862
 Alpha  occ. eigenvalues --  -10.73016 -10.65123 -10.63344  -1.29856  -1.21764
 Alpha  occ. eigenvalues --   -1.13201  -1.06610  -0.99508  -0.79888  -0.77801
 Alpha  occ. eigenvalues --   -0.70016  -0.63626  -0.62683  -0.58612  -0.57567
 Alpha  occ. eigenvalues --   -0.53291  -0.52414  -0.51253  -0.43716  -0.42380
 Alpha  occ. eigenvalues --   -0.42158  -0.38658  -0.37535  -0.37013
 Alpha virt. eigenvalues --   -0.04997  -0.00997   0.00797   0.01904   0.02920
 Alpha virt. eigenvalues --    0.03412   0.03705   0.05782   0.06750   0.07432
 Alpha virt. eigenvalues --    0.07822   0.08936   0.09515   0.10253   0.11187
 Alpha virt. eigenvalues --    0.13433   0.14095   0.17262   0.18484   0.19390
 Alpha virt. eigenvalues --    0.19685   0.20101   0.20774   0.21771   0.23161
 Alpha virt. eigenvalues --    0.23467   0.24732   0.26783   0.27039   0.27746
 Alpha virt. eigenvalues --    0.28888   0.29128   0.30353   0.31399   0.32472
 Alpha virt. eigenvalues --    0.33253   0.33722   0.34751   0.36094   0.37600
 Alpha virt. eigenvalues --    0.39074   0.42199   0.45889   0.48577   0.52624
 Alpha virt. eigenvalues --    0.61939   0.67516   0.67731   0.71846   0.77937
 Alpha virt. eigenvalues --    0.78539   0.83245   0.84697   0.85958   0.88767
 Alpha virt. eigenvalues --    0.92022   0.92448   0.92744   0.95813   0.98276
 Alpha virt. eigenvalues --    0.98866   1.02446   1.05807   1.09842   1.14097
 Alpha virt. eigenvalues --    1.14774   1.20373   1.20673   1.23778   1.24047
 Alpha virt. eigenvalues --    1.25651   1.30397   1.31133   1.34695   1.36004
 Alpha virt. eigenvalues --    1.36685   1.38265   1.39525   1.40419   1.43401
 Alpha virt. eigenvalues --    1.47419   1.48546   1.51595   1.54773   1.57568
 Alpha virt. eigenvalues --    1.63044   1.70617   1.76258   1.79746   1.81333
 Alpha virt. eigenvalues --    1.84728   1.89602   1.91944   1.94388   1.97696
 Alpha virt. eigenvalues --    1.98809   2.01924   2.02429   2.03776   2.12072
 Alpha virt. eigenvalues --    2.15180   2.16835   2.22369   2.24353   2.26260
 Alpha virt. eigenvalues --    2.29175   2.30381   2.40230   2.43186   2.46768
 Alpha virt. eigenvalues --    2.47184   2.52199   2.54569   2.61139   2.61999
 Alpha virt. eigenvalues --    2.66168   2.72826   2.75428   2.79748   2.82836
 Alpha virt. eigenvalues --    2.87308   2.93257   2.99515   3.02929   3.10016
 Alpha virt. eigenvalues --    3.19561   3.23293   3.27217   3.33451   3.67215
 Alpha virt. eigenvalues --    3.96375   4.15267   4.18915   4.27158   4.35059
 Alpha virt. eigenvalues --    4.54142   4.59224   4.65869
          Condensed to atoms (all electrons):
               1          2          3          4          5          6
     1  N    8.310558  -0.065444  -0.071460  -0.010545  -0.560458  -0.001393
     2  N   -0.065444   8.224527  -0.257426   0.622429  -1.470286  -0.031924
     3  C   -0.071460  -0.257426   5.854135  -0.408614   0.709855   0.359570
     4  C   -0.010545   0.622429  -0.408614   5.967386  -0.433659   0.011096
     5  N   -0.560458  -1.470286   0.709855  -0.433659   8.775742  -0.005202
     6  H   -0.001393  -0.031924   0.359570   0.011096  -0.005202   0.459825
     7  H   -0.003075  -0.002955  -0.017983   0.392585  -0.042791   0.000463
     8  H    0.056340  -0.060045   0.044526  -0.028862   0.004674  -0.000105
     9  C   -0.121869   0.000999   0.005020  -0.029396   0.061064   0.000202
    10  O   -0.104939   0.057328  -0.046163   0.033890  -0.087326   0.000036
    11  O   -0.111353  -0.041647   0.017809  -0.025055   0.034457   0.000003
               7          8          9         10         11
     1  N   -0.003075   0.056340  -0.121869  -0.104939  -0.111353
     2  N   -0.002955  -0.060045   0.000999   0.057328  -0.041647
     3  C   -0.017983   0.044526   0.005020  -0.046163   0.017809
     4  C    0.392585  -0.028862  -0.029396   0.033890  -0.025055
     5  N   -0.042791   0.004674   0.061064  -0.087326   0.034457
     6  H    0.000463  -0.000105   0.000202   0.000036   0.000003
     7  H    0.470799  -0.000008   0.000355   0.000017  -0.000019
     8  H   -0.000008   0.412726   0.029928   0.147959   0.011157
     9  C    0.000355   0.029928   4.598950   0.275441   0.524415
    10  O    0.000017   0.147959   0.275441   8.307039  -0.113258
    11  O   -0.000019   0.011157   0.524415  -0.113258   8.121597
 Mulliken charges:
               1
     1  N   -0.316361
     2  N    0.024442
     3  C   -0.189269
     4  C   -0.091255
     5  N    0.013930
     6  H    0.207430
     7  H    0.202611
     8  H    0.381711
     9  C    0.654890
    10  O   -0.470025
    11  O   -0.418105
 Sum of Mulliken charges =  -0.00000
 Mulliken charges with hydrogens summed into heavy atoms:
               1
     1  N   -0.316361
     2  N    0.024442
     3  C    0.018161
     4  C    0.111356
     5  N    0.013930
     9  C    0.654890
    10  O   -0.088314
    11  O   -0.418105
 APT charges:
               1
     1  N   -0.608215
     2  N   -0.015455
     3  C   -0.514290
     4  C   -0.304776
     5  N   -0.157342
     6  H    0.732380
     7  H    0.731823
     8  H    0.399553
     9  C    0.155946
    10  O   -0.312797
    11  O   -0.106825
 Sum of APT charges =  -0.00000
 APT charges with hydrogens summed into heavy atoms:
               1
     1  N   -0.608215
     2  N   -0.015455
     3  C    0.218090
     4  C    0.427046
     5  N   -0.157342
     9  C    0.155946
    10  O    0.086755
    11  O   -0.106825
 Electronic spatial extent (au):  <R**2>=            807.7804
 Charge=             -0.0000 electrons
 Dipole moment (field-independent basis, Debye):
    X=             -6.7346    Y=              2.5190    Z=              0.1591  Tot=              7.1920
 Quadrupole moment (field-independent basis, Debye-Ang):
   XX=            -45.2982   YY=            -47.4909   ZZ=            -45.5561
   XY=              1.3530   XZ=              1.2817   YZ=              0.5036
 Traceless Quadrupole moment (field-independent basis, Debye-Ang):
   XX=              0.8168   YY=             -1.3758   ZZ=              0.5590
   XY=              1.3530   XZ=              1.2817   YZ=              0.5036
 Octapole moment (field-independent basis, Debye-Ang**2):
  XXX=            -45.6366  YYY=             11.0698  ZZZ=              0.1411  XYY=            -10.7108
  XXY=              0.3612  XXZ=             -0.7321  XZZ=              5.5760  YZZ=             -0.5468
  YYZ=              0.0656  XYZ=              0.0618
 Hexadecapole moment (field-independent basis, Debye-Ang**3):
 XXXX=           -680.6842 YYYY=           -272.9957 ZZZZ=            -45.0025 XXXY=             -1.4708
 XXXZ=              7.0339 YYYX=              6.2423 YYYZ=              1.6590 ZZZX=             -0.7036
 ZZZY=              0.1478 XXYY=           -158.8561 XXZZ=           -131.0868 YYZZ=            -55.5028
 XXYZ=              1.1733 YYXZ=              2.3255 ZZXY=             -0.8515
 N-N= 3.626598870991D+02 E-N=-1.730432266630D+03  KE= 4.267832601460D+02
  Exact polarizability:   0.000   0.000   0.000   0.000   0.000   0.000
 Approx polarizability: 104.896  -7.166  91.274   1.715   0.667  44.005
 Calling FoFJK, ICntrl=    100147 FMM=F ISym2X=0 I1Cent= 0 IOpClX= 0 NMat=1 NMatS=1 NMatT=0.
 ***** Axes restored to original set *****
 -------------------------------------------------------------------
 Center     Atomic                   Forces (Hartrees/Bohr)
 Number     Number              X              Y              Z
 -------------------------------------------------------------------
      1        7          -0.024271472   -0.025819721   -0.001348466
      2        7           0.040099616   -0.014907884    0.001636072
      3        6          -0.016274421    0.006490685    0.003332002
      4        6          -0.001230353    0.006040695   -0.000222123
      5        7           0.007676057    0.015709808   -0.000263883
      6        1           0.001152401    0.001114328   -0.002022957
      7        1          -0.000364701    0.000627969    0.001167963
      8        1           0.054397166   -0.026434859   -0.014556140
      9        6           0.066030325    0.004802678   -0.012387950
     10        8          -0.109576844    0.031380847    0.019593947
     11        8          -0.017637775    0.000995454    0.005071533
 -------------------------------------------------------------------
 Cartesian Forces:  Max     0.109576844 RMS     0.028004761
 FormGI is forming the generalized inverse of G from B-inverse, IUseBI=4.

 GradGradGradGradGradGradGradGradGradGradGradGradGradGradGradGradGradGrad
 Berny optimization.
 Internal  Forces:  Max     0.080185136 RMS     0.014357856
 Search for a saddle point.
 Step number   1 out of a maximum of   65
 All quantities printed in internal units (Hartrees-Bohrs-Radians)
 Swapping is turned off.
 Second derivative matrix not updated -- analytic derivatives used.
 ITU=  0
     Eigenvalues ---   -0.06333   0.00584   0.00654   0.00936   0.01505
     Eigenvalues ---    0.02799   0.03210   0.03876   0.06093   0.06336
     Eigenvalues ---    0.10061   0.10608   0.10929   0.20003   0.20833
     Eigenvalues ---    0.21777   0.26599   0.31695   0.36045   0.38126
     Eigenvalues ---    0.38587   0.40613   0.41908   0.43967   0.54174
     Eigenvalues ---    0.64349   0.92936
 Eigenvectors required to have negative eigenvalues:
                          R10       R5        A18       A5        A17
   1                    0.71885  -0.63471   0.16176   0.13556  -0.08143
                          R11       R3        A15       A16       A13
   1                   -0.07463   0.07010  -0.06781   0.06337  -0.04145
 RFO step:  Lambda0=1.778436234D-02 Lambda=-6.99439619D-02.
 Linear search not attempted -- option 19 set.
 Maximum step size (   0.300) exceeded in Quadratic search.
    -- Step size scaled by   0.342
 Iteration  1 RMS(Cart)=  0.04190615 RMS(Int)=  0.00642803
 Iteration  2 RMS(Cart)=  0.00646810 RMS(Int)=  0.00017625
 Iteration  3 RMS(Cart)=  0.00001396 RMS(Int)=  0.00017577
 Iteration  4 RMS(Cart)=  0.00000000 RMS(Int)=  0.00017577
 Variable       Old X    -DE/DX   Delta X   Delta X   Delta X     New X
                                 (Linear)    (Quad)   (Total)
    R1        2.54261  -0.00540   0.00000  -0.01770  -0.01760   2.52501
    R2        2.52383  -0.01465   0.00000  -0.02619  -0.02622   2.49762
    R3        2.70560   0.01291   0.00000   0.03149   0.03152   2.73712
    R4        2.48704   0.00494   0.00000   0.00854   0.00856   2.49560
    R5        3.00091  -0.01751   0.00000  -0.24716  -0.24716   2.75375
    R6        2.67771  -0.00501   0.00000  -0.00764  -0.00762   2.67009
    R7        2.04034  -0.00008   0.00000  -0.00090  -0.00090   2.03944
    R8        2.48795   0.00756   0.00000   0.01297   0.01296   2.50090
    R9        2.03960  -0.00021   0.00000  -0.00042  -0.00042   2.03918
   R10        2.76598  -0.08019   0.00000  -0.03968  -0.03975   2.72623
   R11        2.50304  -0.01452   0.00000  -0.03228  -0.03236   2.47068
   R12        2.27386  -0.00945   0.00000  -0.00382  -0.00382   2.27004
    A1        2.01050  -0.00153   0.00000   0.00078   0.00076   2.01126
    A2        2.15468  -0.01889   0.00000  -0.05854  -0.05848   2.09621
    A3        2.09679   0.02056   0.00000   0.05872   0.05870   2.15548
    A4        1.80712   0.00677   0.00000   0.01296   0.01293   1.82004
    A5        1.45166   0.01181   0.00000   0.05833   0.05842   1.51009
    A6        1.89763  -0.00825   0.00000  -0.01704  -0.01698   1.88066
    A7        2.12877   0.00259   0.00000   0.00534   0.00531   2.13408
    A8        2.25521   0.00570   0.00000   0.01187   0.01184   2.26705
    A9        1.89876   0.00059   0.00000   0.00206   0.00209   1.90085
   A10        2.26101  -0.00095   0.00000  -0.00186  -0.00187   2.25913
   A11        2.12304   0.00035   0.00000  -0.00022  -0.00023   2.12281
   A12        1.81070   0.00241   0.00000   0.00119   0.00115   1.81185
   A13        2.20516  -0.00040   0.00000   0.02383   0.02387   2.22903
   A14        1.99710  -0.02228   0.00000  -0.04812  -0.04822   1.94888
   A15        2.12270  -0.00625   0.00000  -0.01496  -0.01494   2.10776
   A16        2.16194   0.02870   0.00000   0.06348   0.06353   2.22546
   A17        1.59133   0.03041   0.00000   0.02857   0.02831   1.61964
   A18        3.25878   0.01858   0.00000   0.07130   0.07135   3.33013
   A19        3.08180   0.00195   0.00000   0.00476   0.00489   3.08669
    D1        0.00866   0.00085   0.00000   0.00196   0.00198   0.01064
    D2       -3.07314  -0.00110   0.00000  -0.00280  -0.00292  -3.07606
    D3        2.93001   0.00439   0.00000   0.01502   0.01490   2.94490
    D4       -0.15179   0.00244   0.00000   0.01026   0.01000  -0.14179
    D5       -0.01201  -0.00126   0.00000  -0.00310  -0.00305  -0.01506
    D6       -2.94125   0.00060   0.00000   0.00001  -0.00020  -2.94145
    D7        0.07444   0.00103   0.00000  -0.00437  -0.00435   0.07008
    D8       -3.01149  -0.00298   0.00000  -0.01400  -0.01359  -3.02508
    D9        2.98541   0.00177   0.00000   0.00141   0.00108   2.98649
   D10       -0.10052  -0.00225   0.00000  -0.00822  -0.00815  -0.10867
   D11       -0.00169  -0.00005   0.00000   0.00009   0.00004  -0.00166
   D12        3.08487   0.00072   0.00000   0.00355   0.00352   3.08839
   D13        0.22833   0.00043   0.00000  -0.00200  -0.00180   0.22653
   D14       -2.93526   0.00019   0.00000  -0.00150  -0.00142  -2.93668
   D15        0.22351  -0.00171   0.00000  -0.01329  -0.01365   0.20986
   D16       -0.00548  -0.00070   0.00000  -0.00195  -0.00185  -0.00733
   D17       -3.11737  -0.00027   0.00000  -0.00115  -0.00112  -3.11849
   D18       -3.08682  -0.00136   0.00000  -0.00536  -0.00530  -3.09212
   D19        0.08448  -0.00093   0.00000  -0.00456  -0.00458   0.07991
   D20        0.01001   0.00117   0.00000   0.00296   0.00289   0.01291
   D21        3.12470   0.00076   0.00000   0.00219   0.00220   3.12690
   D22       -0.19961   0.00270   0.00000   0.01409   0.01474  -0.18487
   D23        0.06982  -0.00245   0.00000  -0.01562  -0.01505   0.05477
   D24       -3.12887   0.00035   0.00000  -0.00870  -0.00826  -3.13712
         Item               Value     Threshold  Converged?
 Maximum Force            0.080185     0.000450     NO 
 RMS     Force            0.014358     0.000300     NO 
 Maximum Displacement     0.182001     0.001800     NO 
 RMS     Displacement     0.047068     0.001200     NO 
 Predicted change in Energy=-1.686573D-02
 GradGradGradGradGradGradGradGradGradGradGradGradGradGradGradGradGradGrad

                          Input orientation:                          
 ---------------------------------------------------------------------
 Center     Atomic      Atomic             Coordinates (Angstroms)
 Number     Number       Type             X           Y           Z
 ---------------------------------------------------------------------
      1          7           0       -0.044954   -0.081739    0.124953
      2          7           0       -0.695691    1.082790    0.048908
      3          6           0       -1.965808    0.739409   -0.064768
      4          6           0       -2.033146   -0.671898   -0.054529
      5          7           0       -0.807552   -1.158986    0.055498
      6          1           0       -2.759388    1.469984   -0.099610
      7          1           0       -2.892694   -1.317842   -0.145962
      8          1           0        0.616073    1.716547    0.082438
      9          6           0        1.398800   -0.115789    0.013850
     10          8           0        1.904698    1.086697   -0.072497
     11          8           0        1.986505   -1.162120   -0.039152
 ---------------------------------------------------------------------
                    Distance matrix (angstroms):
                    1          2          3          4          5
     1  N    0.000000
     2  N    1.336177   0.000000
     3  C    2.097607   1.320617   0.000000
     4  C    2.081684   2.208714   1.412950   0.000000
     5  N    1.321681   2.244575   2.227088   1.323420   0.000000
     6  H    3.134713   2.104952   1.079224   2.262105   3.277988
     7  H    3.116243   3.260036   2.257874   1.079086   2.100867
     8  H    1.916402   1.457222   2.764521   3.569565   3.208758
     9  C    1.448423   2.413444   3.472482   3.477382   2.440899
    10  O    2.281529   2.603224   3.886063   4.312725   3.523603
    11  O    2.306725   3.498793   4.386028   4.049463   2.795662
                    6          7          8          9         10
     6  H    0.000000
     7  H    2.791397   0.000000
     8  H    3.389347   4.644474   0.000000
     9  C    4.451750   4.459529   1.993695   0.000000
    10  O    4.679887   5.366767   1.442661   1.307425   0.000000
    11  O    5.427258   4.882852   3.190547   1.201256   2.250552
                   11
    11  O    0.000000
 Stoichiometry    C3H3N3O2
 Framework group  C1[X(C3H3N3O2)]
 Deg. of freedom    27
 Full point group                 C1      NOp   1
 Largest Abelian subgroup         C1      NOp   1
 Largest concise Abelian subgroup C1      NOp   1
                         Standard orientation:                         
 ---------------------------------------------------------------------
 Center     Atomic      Atomic             Coordinates (Angstroms)
 Number     Number       Type             X           Y           Z
 ---------------------------------------------------------------------
      1          7           0       -0.037934   -0.080795    0.125898
      2          7           0       -0.704598    1.075125    0.056789
      3          6           0       -1.969860    0.715026   -0.059266
      4          6           0       -2.017804   -0.697110   -0.057629
      5          7           0       -0.785649   -1.167975    0.049714
      6          1           0       -2.773398    1.434828   -0.089845
      7          1           0       -2.868383   -1.354233   -0.153188
      8          1           0        0.598330    1.726628    0.094476
      9          6           0        1.406168   -0.094331    0.014922
     10          8           0        1.895510    1.115495   -0.063991
     11          8           0        2.008201   -1.132147   -0.044311
 ---------------------------------------------------------------------
 Rotational constants (GHZ):           5.3044224           1.8481394           1.3744875
 Standard basis: 6-31+G(d,p) (6D, 7F)
 There are   167 symmetry adapted cartesian basis functions of A   symmetry.
 There are   167 symmetry adapted basis functions of A   symmetry.
   167 basis functions,   277 primitive gaussians,   167 cartesian basis functions
    29 alpha electrons       29 beta electrons
       nuclear repulsion energy       364.0310412828 Hartrees.
 NAtoms=   11 NActive=   11 NUniq=   11 SFac= 1.00D+00 NAtFMM=   60 NAOKFM=F Big=F
 Integral buffers will be    131072 words long.
 Raffenetti 2 integral format.
 Two-electron integral symmetry is turned on.
 One-electron integrals computed using PRISM.
 NBasis=   167 RedAO= T EigKep=  3.00D-05  NBF=   167
 NBsUse=   167 1.00D-06 EigRej= -1.00D+00 NBFU=   167
 Initial guess from the checkpoint file:  "/scratch/gongke2021/1-H-Tz-TS/Gau-12540.chk"
 B after Tr=     0.000000   -0.000000   -0.000000
         Rot=    0.999991   -0.002111   -0.000239   -0.003699 Ang=  -0.49 deg.
 ExpMin= 4.38D-02 ExpMax= 5.48D+03 ExpMxC= 8.25D+02 IAcc=2 IRadAn=         4 AccDes= 0.00D+00
 Harris functional with IExCor= 1009 and IRadAn=       4 diagonalized for initial guess.
 HarFok:  IExCor= 1009 AccDes= 0.00D+00 IRadAn=         4 IDoV= 1 UseB2=F ITyADJ=14
 ICtDFT=  3500011 ScaDFX=  1.000000  1.000000  1.000000  1.000000
 FoFCou: FMM=F IPFlag=           0 FMFlag=      100000 FMFlg1=           0
         NFxFlg=           0 DoJE=T BraDBF=F KetDBF=T FulRan=T
         wScrn=  0.000000 ICntrl=       500 IOpCl=  0 I1Cent=   200000004 NGrid=           0
         NMat0=    1 NMatS0=      1 NMatT0=    0 NMatD0=    1 NMtDS0=    0 NMtDT0=    0
 Petite list used in FoFCou.
 Keep R1 ints in memory in canonical form, NReq=118249495.
 Requested convergence on RMS density matrix=1.00D-08 within 128 cycles.
 Requested convergence on MAX density matrix=1.00D-06.
 Requested convergence on             energy=1.00D-06.
 No special actions if energy rises.
 SCF Done:  E(RM062X) =  -430.595901088     A.U. after   13 cycles
            NFock= 13  Conv=0.81D-08     -V/T= 2.0087
 Calling FoFJK, ICntrl=      2127 FMM=F ISym2X=0 I1Cent= 0 IOpClX= 0 NMat=1 NMatS=1 NMatT=0.
 ***** Axes restored to original set *****
 -------------------------------------------------------------------
 Center     Atomic                   Forces (Hartrees/Bohr)
 Number     Number              X              Y              Z
 -------------------------------------------------------------------
      1        7          -0.019895194   -0.021111967   -0.001600362
      2        7           0.036382130   -0.009142593    0.002518152
      3        6          -0.012291245    0.005773483    0.003483958
      4        6          -0.000997998    0.004643264   -0.000472888
      5        7           0.005012388    0.011502305   -0.000483937
      6        1           0.000974850    0.000833319   -0.001897459
      7        1          -0.000253666    0.000432230    0.001097479
      8        1           0.038686075   -0.020666538   -0.012591005
      9        6           0.052065109    0.007239912   -0.009260010
     10        8          -0.086592536    0.020881759    0.015318836
     11        8          -0.013089912   -0.000385173    0.003887235
 -------------------------------------------------------------------
 Cartesian Forces:  Max     0.086592536 RMS     0.021969778

 GradGradGradGradGradGradGradGradGradGradGradGradGradGradGradGradGradGrad
 Berny optimization.
 FormGI is forming the generalized inverse of G from B-inverse, IUseBI=4.
 Internal  Forces:  Max     0.062946870 RMS     0.011450796
 Search for a saddle point.
 Step number   2 out of a maximum of   65
 All quantities printed in internal units (Hartrees-Bohrs-Radians)
 Swapping is turned off.
 Update second derivatives using D2CorX and points    1    2
 ITU=  0  0
     Eigenvalues ---   -0.06843   0.00591   0.00654   0.00935   0.01506
     Eigenvalues ---    0.02806   0.03790   0.04202   0.06092   0.06333
     Eigenvalues ---    0.10199   0.10615   0.10945   0.19935   0.20838
     Eigenvalues ---    0.21774   0.26592   0.31696   0.36112   0.38136
     Eigenvalues ---    0.38590   0.40623   0.41925   0.43951   0.54169
     Eigenvalues ---    0.64356   0.92951
 Eigenvectors required to have negative eigenvalues:
                          R10       R5        A18       A5        A17
   1                    0.70746  -0.64306   0.16705   0.13976  -0.08099
                          R3        R11       A15       A16       A13
   1                    0.07852  -0.07596  -0.06942   0.06808  -0.03968
 RFO step:  Lambda0=8.113425072D-03 Lambda=-5.19559301D-02.
 Linear search not attempted -- option 19 set.
 Maximum step size (   0.300) exceeded in Quadratic search.
    -- Step size scaled by   0.403
 Iteration  1 RMS(Cart)=  0.04496817 RMS(Int)=  0.00528307
 Iteration  2 RMS(Cart)=  0.00550390 RMS(Int)=  0.00023017
 Iteration  3 RMS(Cart)=  0.00000959 RMS(Int)=  0.00022998
 Iteration  4 RMS(Cart)=  0.00000000 RMS(Int)=  0.00022998
 Variable       Old X    -DE/DX   Delta X   Delta X   Delta X     New X
                                 (Linear)    (Quad)   (Total)
    R1        2.52501  -0.00400   0.00000  -0.01541  -0.01544   2.50957
    R2        2.49762  -0.01032   0.00000  -0.02321  -0.02325   2.47437
    R3        2.73712   0.01153   0.00000   0.03454   0.03443   2.77155
    R4        2.49560   0.00379   0.00000   0.00778   0.00779   2.50340
    R5        2.75375  -0.01883   0.00000  -0.23825  -0.23815   2.51560
    R6        2.67009  -0.00360   0.00000  -0.00668  -0.00664   2.66345
    R7        2.03944  -0.00009   0.00000  -0.00086  -0.00086   2.03857
    R8        2.50090   0.00592   0.00000   0.01267   0.01268   2.51358
    R9        2.03918  -0.00015   0.00000  -0.00038  -0.00038   2.03880
   R10        2.72623  -0.06295   0.00000  -0.07561  -0.07551   2.65073
   R11        2.47068  -0.01036   0.00000  -0.02792  -0.02799   2.44268
   R12        2.27004  -0.00624   0.00000  -0.00380  -0.00380   2.26624
    A1        2.01126  -0.00133   0.00000   0.00044   0.00049   2.01175
    A2        2.09621  -0.01622   0.00000  -0.06267  -0.06287   2.03334
    A3        2.15548   0.01773   0.00000   0.06378   0.06392   2.21941
    A4        1.82004   0.00524   0.00000   0.01219   0.01215   1.83220
    A5        1.51009   0.00987   0.00000   0.05315   0.05316   1.56325
    A6        1.88066  -0.00613   0.00000  -0.01558  -0.01554   1.86511
    A7        2.13408   0.00185   0.00000   0.00477   0.00474   2.13883
    A8        2.26705   0.00432   0.00000   0.01109   0.01107   2.27812
    A9        1.90085   0.00051   0.00000   0.00219   0.00221   1.90306
   A10        2.25913  -0.00069   0.00000  -0.00136  -0.00137   2.25777
   A11        2.12281   0.00017   0.00000  -0.00084  -0.00085   2.12196
   A12        1.81185   0.00169   0.00000   0.00072   0.00064   1.81249
   A13        2.22903   0.00192   0.00000   0.03650   0.03672   2.26575
   A14        1.94888  -0.01794   0.00000  -0.05066  -0.05092   1.89796
   A15        2.10776  -0.00439   0.00000  -0.01189  -0.01180   2.09595
   A16        2.22546   0.02245   0.00000   0.06294   0.06307   2.28853
   A17        1.61964   0.02298   0.00000   0.02869   0.02858   1.64823
   A18        3.33013   0.01511   0.00000   0.06533   0.06531   3.39544
   A19        3.08669   0.00162   0.00000   0.00297   0.00312   3.08981
    D1        0.01064   0.00065   0.00000   0.00190   0.00195   0.01259
    D2       -3.07606  -0.00098   0.00000  -0.00107  -0.00117  -3.07722
    D3        2.94490   0.00385   0.00000   0.01806   0.01784   2.96274
    D4       -0.14179   0.00222   0.00000   0.01508   0.01472  -0.12707
    D5       -0.01506  -0.00097   0.00000  -0.00292  -0.00290  -0.01796
    D6       -2.94145   0.00032   0.00000  -0.00254  -0.00278  -2.94422
    D7        0.07008   0.00052   0.00000  -0.00555  -0.00550   0.06459
    D8       -3.02508  -0.00257   0.00000  -0.01552  -0.01494  -3.04002
    D9        2.98649   0.00117   0.00000   0.00242   0.00205   2.98854
   D10       -0.10867  -0.00191   0.00000  -0.00755  -0.00740  -0.11607
   D11       -0.00166  -0.00000   0.00000   0.00005  -0.00004  -0.00169
   D12        3.08839   0.00076   0.00000   0.00542   0.00537   3.09376
   D13        0.22653   0.00011   0.00000  -0.00632  -0.00611   0.22041
   D14       -2.93668   0.00001   0.00000  -0.00330  -0.00323  -2.93991
   D15        0.20986  -0.00194   0.00000  -0.01868  -0.01922   0.19065
   D16       -0.00733  -0.00056   0.00000  -0.00178  -0.00166  -0.00899
   D17       -3.11849  -0.00025   0.00000  -0.00155  -0.00152  -3.12001
   D18       -3.09212  -0.00127   0.00000  -0.00734  -0.00729  -3.09941
   D19        0.07991  -0.00095   0.00000  -0.00712  -0.00715   0.07276
   D20        0.01291   0.00093   0.00000   0.00279   0.00273   0.01563
   D21        3.12690   0.00063   0.00000   0.00257   0.00258   3.12948
   D22       -0.18487   0.00285   0.00000   0.02017   0.02083  -0.16405
   D23        0.05477  -0.00227   0.00000  -0.01683  -0.01601   0.03876
   D24       -3.13712   0.00007   0.00000  -0.00882  -0.00819   3.13787
         Item               Value     Threshold  Converged?
 Maximum Force            0.062947     0.000450     NO 
 RMS     Force            0.011451     0.000300     NO 
 Maximum Displacement     0.163806     0.001800     NO 
 RMS     Displacement     0.049249     0.001200     NO 
 Predicted change in Energy=-1.599787D-02
 GradGradGradGradGradGradGradGradGradGradGradGradGradGradGradGradGradGrad

                          Input orientation:                          
 ---------------------------------------------------------------------
 Center     Atomic      Atomic             Coordinates (Angstroms)
 Number     Number       Type             X           Y           Z
 ---------------------------------------------------------------------
      1          7           0       -0.036358   -0.129291    0.118167
      2          7           0       -0.652942    1.044592    0.044509
      3          6           0       -1.939782    0.749189   -0.063754
      4          6           0       -2.038982   -0.656699   -0.051484
      5          7           0       -0.819123   -1.176830    0.051715
      6          1           0       -2.707847    1.505818   -0.100166
      7          1           0       -2.914286   -1.281638   -0.136877
      8          1           0        0.529391    1.655794    0.069183
      9          6           0        1.426282   -0.108078    0.011999
     10          8           0        1.819794    1.121105   -0.059452
     11          8           0        2.040697   -1.136910   -0.034711
 ---------------------------------------------------------------------
                    Distance matrix (angstroms):
                    1          2          3          4          5
     1  N    0.000000
     2  N    1.328007   0.000000
     3  C    2.104245   1.324742   0.000000
     4  C    2.077846   2.196522   1.409437   0.000000
     5  N    1.309379   2.227640   2.231313   1.330128   0.000000
     6  H    3.139762   2.110994   1.078766   2.264118   3.284349
     7  H    3.110534   3.249296   2.253722   1.078888   2.106243
     8  H    1.873232   1.331198   2.633708   3.458138   3.137284
     9  C    1.466642   2.377578   3.474339   3.508998   2.487097
    10  O    2.245070   2.476102   3.777929   4.248623   3.500963
    11  O    2.313617   3.467119   4.404818   4.107878   2.861404
                    6          7          8          9         10
     6  H    0.000000
     7  H    2.795331   0.000000
     8  H    3.245132   4.530991   0.000000
     9  C    4.439399   4.498882   1.979628   0.000000
    10  O    4.544138   5.309490   1.402704   1.292613   0.000000
    11  O    5.434792   4.958149   3.177111   1.199243   2.268930
                   11
    11  O    0.000000
 Stoichiometry    C3H3N3O2
 Framework group  C1[X(C3H3N3O2)]
 Deg. of freedom    27
 Full point group                 C1      NOp   1
 Largest Abelian subgroup         C1      NOp   1
 Largest concise Abelian subgroup C1      NOp   1
                         Standard orientation:                         
 ---------------------------------------------------------------------
 Center     Atomic      Atomic             Coordinates (Angstroms)
 Number     Number       Type             X           Y           Z
 ---------------------------------------------------------------------
      1          7           0       -0.032960   -0.127711    0.117958
      2          7           0       -0.666164    1.037862    0.053972
      3          6           0       -1.948875    0.725128   -0.054612
      4          6           0       -2.028204   -0.682073   -0.052699
      5          7           0       -0.800966   -1.185677    0.044828
      6          1           0       -2.727598    1.471084   -0.084249
      7          1           0       -2.894735   -1.318659   -0.141478
      8          1           0        0.507462    1.665503    0.081482
      9          6           0        1.429067   -0.085050    0.009813
     10          8           0        1.805080    1.150066   -0.053030
     11          8           0        2.057866   -1.104726   -0.045478
 ---------------------------------------------------------------------
 Rotational constants (GHZ):           5.3312284           1.8653030           1.3851881
 Standard basis: 6-31+G(d,p) (6D, 7F)
 There are   167 symmetry adapted cartesian basis functions of A   symmetry.
 There are   167 symmetry adapted basis functions of A   symmetry.
   167 basis functions,   277 primitive gaussians,   167 cartesian basis functions
    29 alpha electrons       29 beta electrons
       nuclear repulsion energy       365.5325387986 Hartrees.
 NAtoms=   11 NActive=   11 NUniq=   11 SFac= 1.00D+00 NAtFMM=   60 NAOKFM=F Big=F
 Integral buffers will be    131072 words long.
 Raffenetti 2 integral format.
 Two-electron integral symmetry is turned on.
 One-electron integrals computed using PRISM.
 NBasis=   167 RedAO= T EigKep=  2.88D-05  NBF=   167
 NBsUse=   167 1.00D-06 EigRej= -1.00D+00 NBFU=   167
 Initial guess from the checkpoint file:  "/scratch/gongke2021/1-H-Tz-TS/Gau-12540.chk"
 B after Tr=    -0.000000    0.000000    0.000000
         Rot=    0.999990   -0.002120   -0.000197   -0.004050 Ang=  -0.52 deg.
 ExpMin= 4.38D-02 ExpMax= 5.48D+03 ExpMxC= 8.25D+02 IAcc=2 IRadAn=         4 AccDes= 0.00D+00
 Harris functional with IExCor= 1009 and IRadAn=       4 diagonalized for initial guess.
 HarFok:  IExCor= 1009 AccDes= 0.00D+00 IRadAn=         4 IDoV= 1 UseB2=F ITyADJ=14
 ICtDFT=  3500011 ScaDFX=  1.000000  1.000000  1.000000  1.000000
 FoFCou: FMM=F IPFlag=           0 FMFlag=      100000 FMFlg1=           0
         NFxFlg=           0 DoJE=T BraDBF=F KetDBF=T FulRan=T
         wScrn=  0.000000 ICntrl=       500 IOpCl=  0 I1Cent=   200000004 NGrid=           0
         NMat0=    1 NMatS0=      1 NMatT0=    0 NMatD0=    1 NMtDS0=    0 NMtDT0=    0
 Petite list used in FoFCou.
 Keep R1 ints in memory in canonical form, NReq=118249495.
 Requested convergence on RMS density matrix=1.00D-08 within 128 cycles.
 Requested convergence on MAX density matrix=1.00D-06.
 Requested convergence on             energy=1.00D-06.
 No special actions if energy rises.
 SCF Done:  E(RM062X) =  -430.611100865     A.U. after   14 cycles
            NFock= 14  Conv=0.33D-08     -V/T= 2.0084
 Calling FoFJK, ICntrl=      2127 FMM=F ISym2X=0 I1Cent= 0 IOpClX= 0 NMat=1 NMatS=1 NMatT=0.
 ***** Axes restored to original set *****
 -------------------------------------------------------------------
 Center     Atomic                   Forces (Hartrees/Bohr)
 Number     Number              X              Y              Z
 -------------------------------------------------------------------
      1        7          -0.015313470   -0.016493241   -0.001705082
      2        7           0.023418193   -0.006160041    0.003073579
      3        6          -0.008228002    0.004315307    0.003489302
      4        6          -0.001123863    0.003266725   -0.000780735
      5        7           0.001779624    0.007364071   -0.000521519
      6        1           0.000747790    0.000588872   -0.001701587
      7        1          -0.000166937    0.000240462    0.000996295
      8        1           0.026202861   -0.010802912   -0.010057491
      9        6           0.039314120    0.008042272   -0.006354008
     10        8          -0.057970652    0.010781676    0.010808526
     11        8          -0.008659665   -0.001143191    0.002752721
 -------------------------------------------------------------------
 Cartesian Forces:  Max     0.057970652 RMS     0.015087088

 GradGradGradGradGradGradGradGradGradGradGradGradGradGradGradGradGradGrad
 Berny optimization.
 FormGI is forming the generalized inverse of G from B-inverse, IUseBI=4.
 Internal  Forces:  Max     0.041376587 RMS     0.007822867
 Search for a saddle point.
 Step number   3 out of a maximum of   65
 All quantities printed in internal units (Hartrees-Bohrs-Radians)
 Swapping is turned off.
 Update second derivatives using D2CorX and points    2    3
 ITU=  0  0  0
     Eigenvalues ---   -0.07088   0.00589   0.00648   0.00930   0.01502
     Eigenvalues ---    0.02806   0.03825   0.06085   0.06269   0.06573
     Eigenvalues ---    0.10510   0.10731   0.11120   0.19882   0.20928
     Eigenvalues ---    0.21786   0.26589   0.31717   0.36510   0.38192
     Eigenvalues ---    0.38613   0.40673   0.41994   0.43893   0.54154
     Eigenvalues ---    0.64396   0.92978
 Eigenvectors required to have negative eigenvalues:
                          R10       R5        A18       A5        R3
   1                    0.71339  -0.63225   0.17092   0.14218   0.08939
                          A17       R11       A15       A16       A13
   1                   -0.08080  -0.07658  -0.07303   0.06980  -0.04503
 RFO step:  Lambda0=3.461330243D-03 Lambda=-2.48898996D-02.
 Linear search not attempted -- option 19 set.
 Maximum step size (   0.300) exceeded in Quadratic search.
    -- Step size scaled by   0.603
 Iteration  1 RMS(Cart)=  0.04955093 RMS(Int)=  0.00387556
 Iteration  2 RMS(Cart)=  0.00406197 RMS(Int)=  0.00047816
 Iteration  3 RMS(Cart)=  0.00000791 RMS(Int)=  0.00047805
 Iteration  4 RMS(Cart)=  0.00000001 RMS(Int)=  0.00047805
 Variable       Old X    -DE/DX   Delta X   Delta X   Delta X     New X
                                 (Linear)    (Quad)   (Total)
    R1        2.50957  -0.00157   0.00000  -0.01281  -0.01278   2.49679
    R2        2.47437  -0.00543   0.00000  -0.02131  -0.02134   2.45303
    R3        2.77155   0.01244   0.00000   0.05847   0.05849   2.83004
    R4        2.50340   0.00266   0.00000   0.00742   0.00744   2.51084
    R5        2.51560  -0.01194   0.00000  -0.22243  -0.22249   2.29311
    R6        2.66345  -0.00242   0.00000  -0.00771  -0.00767   2.65578
    R7        2.03857  -0.00006   0.00000  -0.00092  -0.00092   2.03765
    R8        2.51358   0.00440   0.00000   0.01423   0.01425   2.52783
    R9        2.03880  -0.00008   0.00000  -0.00037  -0.00037   2.03843
   R10        2.65073  -0.04138   0.00000  -0.07079  -0.07081   2.57992
   R11        2.44268  -0.00600   0.00000  -0.02875  -0.02877   2.41391
   R12        2.26624  -0.00356   0.00000  -0.00477  -0.00477   2.26147
    A1        2.01175  -0.00202   0.00000  -0.00434  -0.00442   2.00733
    A2        2.03334  -0.01212   0.00000  -0.06811  -0.06852   1.96482
    A3        2.21941   0.01434   0.00000   0.07661   0.07684   2.29625
    A4        1.83220   0.00400   0.00000   0.01574   0.01581   1.84801
    A5        1.56325   0.00692   0.00000   0.05848   0.05840   1.62165
    A6        1.86511  -0.00387   0.00000  -0.01660  -0.01662   1.84850
    A7        2.13883   0.00104   0.00000   0.00419   0.00416   2.14299
    A8        2.27812   0.00286   0.00000   0.01304   0.01301   2.29112
    A9        1.90306   0.00037   0.00000   0.00254   0.00258   1.90563
   A10        2.25777  -0.00042   0.00000  -0.00022  -0.00024   2.25753
   A11        2.12196   0.00005   0.00000  -0.00227  -0.00229   2.11967
   A12        1.81249   0.00151   0.00000   0.00263   0.00261   1.81510
   A13        2.26575   0.00255   0.00000   0.03510   0.03509   2.30083
   A14        1.89796  -0.01217   0.00000  -0.04989  -0.05020   1.84776
   A15        2.09595  -0.00314   0.00000  -0.01925  -0.01918   2.07678
   A16        2.28853   0.01539   0.00000   0.06963   0.06977   2.35830
   A17        1.64823   0.01531   0.00000   0.03301   0.03252   1.68075
   A18        3.39544   0.01092   0.00000   0.07422   0.07422   3.46966
   A19        3.08981   0.00120   0.00000  -0.00021  -0.00055   3.08926
    D1        0.01259   0.00033   0.00000   0.00010   0.00008   0.01268
    D2       -3.07722  -0.00088   0.00000   0.00031   0.00064  -3.07659
    D3        2.96274   0.00307   0.00000   0.03042   0.02927   2.99201
    D4       -0.12707   0.00187   0.00000   0.03063   0.02982  -0.09726
    D5       -0.01796  -0.00059   0.00000  -0.00146  -0.00145  -0.01941
    D6       -2.94422   0.00001   0.00000  -0.01556  -0.01607  -2.96029
    D7        0.06459   0.00014   0.00000  -0.01288  -0.01247   0.05212
    D8       -3.04002  -0.00199   0.00000  -0.02670  -0.02537  -3.06539
    D9        2.98854   0.00066   0.00000   0.00843   0.00823   2.99677
   D10       -0.11607  -0.00148   0.00000  -0.00539  -0.00467  -0.12074
   D11       -0.00169   0.00010   0.00000   0.00139   0.00140  -0.00029
   D12        3.09376   0.00082   0.00000   0.01458   0.01470   3.10846
   D13        0.22041  -0.00036   0.00000  -0.03075  -0.03122   0.18919
   D14       -2.93991  -0.00028   0.00000  -0.01918  -0.01975  -2.95966
   D15        0.19065  -0.00205   0.00000  -0.04459  -0.04501   0.14563
   D16       -0.00899  -0.00046   0.00000  -0.00234  -0.00233  -0.01132
   D17       -3.12001  -0.00024   0.00000  -0.00436  -0.00427  -3.12428
   D18       -3.09941  -0.00116   0.00000  -0.01653  -0.01676  -3.11617
   D19        0.07276  -0.00095   0.00000  -0.01856  -0.01870   0.05406
   D20        0.01563   0.00066   0.00000   0.00238   0.00240   0.01803
   D21        3.12948   0.00045   0.00000   0.00425   0.00419   3.13367
   D22       -0.16405   0.00276   0.00000   0.04381   0.04395  -0.12009
   D23        0.03876  -0.00175   0.00000  -0.02080  -0.01896   0.01981
   D24        3.13787   0.00005   0.00000  -0.00798  -0.00633   3.13155
         Item               Value     Threshold  Converged?
 Maximum Force            0.041377     0.000450     NO 
 RMS     Force            0.007823     0.000300     NO 
 Maximum Displacement     0.159339     0.001800     NO 
 RMS     Displacement     0.052150     0.001200     NO 
 Predicted change in Energy=-1.002828D-02
 GradGradGradGradGradGradGradGradGradGradGradGradGradGradGradGradGradGrad

                          Input orientation:                          
 ---------------------------------------------------------------------
 Center     Atomic      Atomic             Coordinates (Angstroms)
 Number     Number       Type             X           Y           Z
 ---------------------------------------------------------------------
      1          7           0       -0.029309   -0.183011    0.102654
      2          7           0       -0.613171    1.000536    0.039350
      3          6           0       -1.915948    0.758548   -0.058623
      4          6           0       -2.049796   -0.640403   -0.048450
      5          7           0       -0.836828   -1.197411    0.039946
      6          1           0       -2.654257    1.543435   -0.097860
      7          1           0       -2.941534   -1.242676   -0.123565
      8          1           0        0.446070    1.592479    0.049487
      9          6           0        1.462801   -0.093663    0.010956
     10          8           0        1.735475    1.153172   -0.041642
     11          8           0        2.103340   -1.103951   -0.023125
 ---------------------------------------------------------------------
                    Distance matrix (angstroms):
                    1          2          3          4          5
     1  N    0.000000
     2  N    1.321244   0.000000
     3  C    2.114698   1.328678   0.000000
     4  C    2.077115   2.182723   1.405376   0.000000
     5  N    1.298086   2.209297   2.236066   1.337671   0.000000
     6  H    3.148202   2.116506   1.078280   2.266487   3.291547
     7  H    3.107269   3.237254   2.249653   1.078690   2.111533
     8  H    1.838797   1.213462   2.507241   3.350329   3.070734
     9  C    1.497592   2.346856   3.485261   3.555389   2.550959
    10  O    2.218258   2.354994   3.672725   4.188703   3.485490
    11  O    2.326402   3.436889   4.429993   4.179002   2.942329
                    6          7          8          9         10
     6  H    0.000000
     7  H    2.801000   0.000000
     8  H    3.104214   4.420849   0.000000
     9  C    4.431940   4.553734   1.969340   0.000000
    10  O    4.407405   5.255588   1.365233   1.277386   0.000000
    11  O    5.445087   5.047780   3.165841   1.196719   2.286979
                   11
    11  O    0.000000
 Stoichiometry    C3H3N3O2
 Framework group  C1[X(C3H3N3O2)]
 Deg. of freedom    27
 Full point group                 C1      NOp   1
 Largest Abelian subgroup         C1      NOp   1
 Largest concise Abelian subgroup C1      NOp   1
                         Standard orientation:                         
 ---------------------------------------------------------------------
 Center     Atomic      Atomic             Coordinates (Angstroms)
 Number     Number       Type             X           Y           Z
 ---------------------------------------------------------------------
      1          7           0       -0.029774   -0.180286    0.101340
      2          7           0       -0.629218    0.996000    0.049331
      3          6           0       -1.929161    0.737812   -0.044864
      4          6           0       -2.044796   -0.662798   -0.044513
      5          7           0       -0.824327   -1.204616    0.034551
      6          1           0       -2.677758    1.513296   -0.075108
      7          1           0       -2.928963   -1.276051   -0.120286
      8          1           0        0.422287    1.601582    0.059334
      9          6           0        1.460635   -0.070860    0.003926
     10          8           0        1.716873    1.179771   -0.040572
     11          8           0        2.114077   -1.072451   -0.040401
 ---------------------------------------------------------------------
 Rotational constants (GHZ):           5.3757111           1.8698310           1.3897119
 Standard basis: 6-31+G(d,p) (6D, 7F)
 There are   167 symmetry adapted cartesian basis functions of A   symmetry.
 There are   167 symmetry adapted basis functions of A   symmetry.
   167 basis functions,   277 primitive gaussians,   167 cartesian basis functions
    29 alpha electrons       29 beta electrons
       nuclear repulsion energy       366.6579249308 Hartrees.
 NAtoms=   11 NActive=   11 NUniq=   11 SFac= 1.00D+00 NAtFMM=   60 NAOKFM=F Big=F
 Integral buffers will be    131072 words long.
 Raffenetti 2 integral format.
 Two-electron integral symmetry is turned on.
 One-electron integrals computed using PRISM.
 NBasis=   167 RedAO= T EigKep=  2.74D-05  NBF=   167
 NBsUse=   167 1.00D-06 EigRej= -1.00D+00 NBFU=   167
 Initial guess from the checkpoint file:  "/scratch/gongke2021/1-H-Tz-TS/Gau-12540.chk"
 B after Tr=     0.000000   -0.000000    0.000000
         Rot=    0.999991   -0.002085   -0.000124   -0.003817 Ang=  -0.50 deg.
 ExpMin= 4.38D-02 ExpMax= 5.48D+03 ExpMxC= 8.25D+02 IAcc=2 IRadAn=         4 AccDes= 0.00D+00
 Harris functional with IExCor= 1009 and IRadAn=       4 diagonalized for initial guess.
 HarFok:  IExCor= 1009 AccDes= 0.00D+00 IRadAn=         4 IDoV= 1 UseB2=F ITyADJ=14
 ICtDFT=  3500011 ScaDFX=  1.000000  1.000000  1.000000  1.000000
 FoFCou: FMM=F IPFlag=           0 FMFlag=      100000 FMFlg1=           0
         NFxFlg=           0 DoJE=T BraDBF=F KetDBF=T FulRan=T
         wScrn=  0.000000 ICntrl=       500 IOpCl=  0 I1Cent=   200000004 NGrid=           0
         NMat0=    1 NMatS0=      1 NMatT0=    0 NMatD0=    1 NMtDS0=    0 NMtDT0=    0
 Petite list used in FoFCou.
 Keep R1 ints in memory in canonical form, NReq=118249495.
 Requested convergence on RMS density matrix=1.00D-08 within 128 cycles.
 Requested convergence on MAX density matrix=1.00D-06.
 Requested convergence on             energy=1.00D-06.
 No special actions if energy rises.
 SCF Done:  E(RM062X) =  -430.619745272     A.U. after   13 cycles
            NFock= 13  Conv=0.85D-08     -V/T= 2.0081
 Calling FoFJK, ICntrl=      2127 FMM=F ISym2X=0 I1Cent= 0 IOpClX= 0 NMat=1 NMatS=1 NMatT=0.
 ***** Axes restored to original set *****
 -------------------------------------------------------------------
 Center     Atomic                   Forces (Hartrees/Bohr)
 Number     Number              X              Y              Z
 -------------------------------------------------------------------
      1        7          -0.009976708   -0.009015675   -0.001791960
      2        7          -0.001209507   -0.007288894    0.002610239
      3        6          -0.003357737    0.001694833    0.003059199
      4        6          -0.001177524    0.001321557   -0.001091196
      5        7          -0.001881161    0.002845199   -0.000197670
      6        1           0.000412879    0.000330250   -0.001154037
      7        1          -0.000091075    0.000031616    0.000773284
      8        1           0.018186873    0.003144371   -0.006163178
      9        6           0.024892629    0.005452556   -0.003107856
     10        8          -0.022055175    0.002242601    0.005626410
     11        8          -0.003743493   -0.000758414    0.001436765
 -------------------------------------------------------------------
 Cartesian Forces:  Max     0.024892629 RMS     0.007516828

 GradGradGradGradGradGradGradGradGradGradGradGradGradGradGradGradGradGrad
 Berny optimization.
 FormGI is forming the generalized inverse of G from B-inverse, IUseBI=4.
 Internal  Forces:  Max     0.014865690 RMS     0.003648563
 Search for a saddle point.
 Step number   4 out of a maximum of   65
 All quantities printed in internal units (Hartrees-Bohrs-Radians)
 Swapping is turned off.
 Update second derivatives using D2CorX and points    3    4
 ITU=  0  0  0  0
     Eigenvalues ---   -0.06785   0.00469   0.00631   0.00911   0.01475
     Eigenvalues ---    0.02804   0.03799   0.06065   0.06267   0.08336
     Eigenvalues ---    0.10567   0.10863   0.12744   0.19899   0.21202
     Eigenvalues ---    0.21827   0.26583   0.31790   0.37132   0.38341
     Eigenvalues ---    0.38717   0.40779   0.42229   0.43779   0.54136
     Eigenvalues ---    0.64442   0.93000
 Eigenvectors required to have negative eigenvalues:
                          R10       R5        A18       A5        R3
   1                   -0.75590   0.57368  -0.17395  -0.14264  -0.11014
                          A15       A17       R11       A13       A16
   1                    0.08106   0.08106   0.07767   0.06954  -0.06687
 RFO step:  Lambda0=1.733407288D-03 Lambda=-5.40403997D-03.
 Linear search not attempted -- option 19 set.
 Iteration  1 RMS(Cart)=  0.04653439 RMS(Int)=  0.00315836
 Iteration  2 RMS(Cart)=  0.00237522 RMS(Int)=  0.00222276
 Iteration  3 RMS(Cart)=  0.00000689 RMS(Int)=  0.00222275
 Iteration  4 RMS(Cart)=  0.00000002 RMS(Int)=  0.00222275
 Variable       Old X    -DE/DX   Delta X   Delta X   Delta X     New X
                                 (Linear)    (Quad)   (Total)
    R1        2.49679   0.00079   0.00000  -0.01159  -0.01138   2.48541
    R2        2.45303   0.00012   0.00000  -0.01452  -0.01436   2.43867
    R3        2.83004   0.01405   0.00000   0.09466   0.09570   2.92574
    R4        2.51084   0.00129   0.00000   0.00643   0.00637   2.51721
    R5        2.29311   0.00556   0.00000  -0.09589  -0.09697   2.19614
    R6        2.65578  -0.00116   0.00000  -0.00999  -0.01012   2.64566
    R7        2.03765  -0.00000   0.00000  -0.00100  -0.00100   2.03665
    R8        2.52783   0.00215   0.00000   0.01344   0.01354   2.54137
    R9        2.03843   0.00000   0.00000  -0.00036  -0.00036   2.03807
   R10        2.57992  -0.01487   0.00000   0.05609   0.05518   2.63509
   R11        2.41391  -0.00157   0.00000  -0.03027  -0.02983   2.38408
   R12        2.26147  -0.00141   0.00000  -0.00513  -0.00513   2.25634
    A1        2.00733  -0.00294   0.00000  -0.01370  -0.01498   1.99235
    A2        1.96482  -0.00516   0.00000  -0.03761  -0.04069   1.92413
    A3        2.29625   0.00826   0.00000   0.06833   0.06766   2.36391
    A4        1.84801   0.00258   0.00000   0.02180   0.02290   1.87091
    A5        1.62165   0.00216   0.00000   0.06666   0.06421   1.68587
    A6        1.84850  -0.00122   0.00000  -0.01708  -0.01760   1.83089
    A7        2.14299   0.00013   0.00000   0.00251   0.00246   2.14544
    A8        2.29112   0.00111   0.00000   0.01591   0.01571   2.30683
    A9        1.90563  -0.00004   0.00000   0.00200   0.00206   1.90770
   A10        2.25753  -0.00001   0.00000   0.00271   0.00260   2.26013
   A11        2.11967   0.00005   0.00000  -0.00425  -0.00436   2.11531
   A12        1.81510   0.00162   0.00000   0.00718   0.00774   1.82285
   A13        2.30083   0.00065   0.00000  -0.02028  -0.02436   2.27648
   A14        1.84776  -0.00435   0.00000  -0.01996  -0.02071   1.82706
   A15        2.07678  -0.00193   0.00000  -0.03920  -0.03895   2.03782
   A16        2.35830   0.00631   0.00000   0.05973   0.06000   2.41830
   A17        1.68075   0.00691   0.00000   0.03329   0.03007   1.71082
   A18        3.46966   0.00474   0.00000   0.08846   0.08711   3.55677
   A19        3.08926   0.00055   0.00000  -0.02534  -0.03047   3.05880
    D1        0.01268  -0.00010   0.00000  -0.01199  -0.01182   0.00085
    D2       -3.07659  -0.00065   0.00000   0.01335   0.01865  -3.05794
    D3        2.99201   0.00167   0.00000   0.08772   0.08272   3.07473
    D4       -0.09726   0.00112   0.00000   0.11306   0.11319   0.01593
    D5       -0.01941  -0.00009   0.00000   0.01146   0.01095  -0.00846
    D6       -2.96029  -0.00036   0.00000  -0.09696  -0.09915  -3.05944
    D7        0.05212  -0.00002   0.00000  -0.05633  -0.05344  -0.00132
    D8       -3.06539  -0.00106   0.00000  -0.07726  -0.07464  -3.14003
    D9        2.99677   0.00040   0.00000   0.05184   0.05539   3.05216
   D10       -0.12074  -0.00064   0.00000   0.03091   0.03419  -0.08655
   D11       -0.00029   0.00023   0.00000   0.00698   0.00716   0.00687
   D12        3.10846   0.00079   0.00000   0.04517   0.04569  -3.12904
   D13        0.18919  -0.00107   0.00000  -0.18755  -0.19160  -0.00240
   D14       -2.95966  -0.00079   0.00000  -0.14269  -0.14561  -3.10527
   D15        0.14563  -0.00152   0.00000  -0.18091  -0.17676  -0.03113
   D16       -0.01132  -0.00030   0.00000  -0.00052  -0.00089  -0.01221
   D17       -3.12428  -0.00022   0.00000  -0.01933  -0.01899   3.13992
   D18       -3.11617  -0.00090   0.00000  -0.04278  -0.04407   3.12295
   D19        0.05406  -0.00082   0.00000  -0.06159  -0.06217  -0.00811
   D20        0.01803   0.00027   0.00000  -0.00600  -0.00553   0.01250
   D21        3.13367   0.00020   0.00000   0.01118   0.01092  -3.13860
   D22       -0.12009   0.00180   0.00000   0.15690   0.15155   0.03146
   D23        0.01981  -0.00068   0.00000  -0.03335  -0.03145  -0.01164
   D24        3.13155   0.00039   0.00000  -0.00985  -0.00548   3.12607
         Item               Value     Threshold  Converged?
 Maximum Force            0.014866     0.000450     NO 
 RMS     Force            0.003649     0.000300     NO 
 Maximum Displacement     0.117600     0.001800     NO 
 RMS     Displacement     0.046827     0.001200     NO 
 Predicted change in Energy=-2.332340D-03
 GradGradGradGradGradGradGradGradGradGradGradGradGradGradGradGradGradGrad

                          Input orientation:                          
 ---------------------------------------------------------------------
 Center     Atomic      Atomic             Coordinates (Angstroms)
 Number     Number       Type             X           Y           Z
 ---------------------------------------------------------------------
      1          7           0       -0.026625   -0.225366    0.042691
      2          7           0       -0.597700    0.959351    0.031088
      3          6           0       -1.913408    0.761665   -0.033626
      4          6           0       -2.068085   -0.629693   -0.049679
      5          7           0       -0.856568   -1.212151   -0.010324
      6          1           0       -2.626138    1.569358   -0.068182
      7          1           0       -2.970115   -1.219107   -0.095450
      8          1           0        0.383839    1.580215   -0.010083
      9          6           0        1.514370   -0.077524    0.020227
     10          8           0        1.715827    1.167651   -0.004027
     11          8           0        2.151446   -1.087345    0.026492
 ---------------------------------------------------------------------
                    Distance matrix (angstroms):
                    1          2          3          4          5
     1  N    0.000000
     2  N    1.315224   0.000000
     3  C    2.130729   1.332049   0.000000
     4  C    2.083164   2.166475   1.400022   0.000000
     5  N    1.290489   2.187270   2.239064   1.344834   0.000000
     6  H    3.160822   2.120502   1.077751   2.268830   3.297199
     7  H    3.109781   3.223359   2.245865   1.078500   2.115272
     8  H    1.852401   1.162147   2.438836   3.301090   3.055474
     9  C    1.548233   2.352885   3.529419   3.625432   2.628623
    10  O    2.231326   2.323151   3.651992   4.189334   3.504385
    11  O    2.342490   3.427358   4.466037   4.244960   3.010827
                    6          7          8          9         10
     6  H    0.000000
     7  H    2.809733   0.000000
     8  H    3.010558   4.369496   0.000000
     9  C    4.456888   4.628952   2.006768   0.000000
    10  O    4.360980   5.259565   1.394431   1.261599   0.000000
    11  O    5.467389   5.124706   3.200257   1.194003   2.296889
                   11
    11  O    0.000000
 Stoichiometry    C3H3N3O2
 Framework group  C1[X(C3H3N3O2)]
 Deg. of freedom    27
 Full point group                 C1      NOp   1
 Largest Abelian subgroup         C1      NOp   1
 Largest concise Abelian subgroup C1      NOp   1
                         Standard orientation:                         
 ---------------------------------------------------------------------
 Center     Atomic      Atomic             Coordinates (Angstroms)
 Number     Number       Type             X           Y           Z
 ---------------------------------------------------------------------
      1          7           0       -0.033576   -0.217987    0.041906
      2          7           0       -0.616063    0.961212    0.038225
      3          6           0       -1.930575    0.750949   -0.008707
      4          6           0       -2.072138   -0.641825   -0.022890
      5          7           0       -0.854683   -1.212666   -0.000031
      6          1           0       -2.651402    1.551787   -0.033482
      7          1           0       -2.969026   -1.239840   -0.056543
      8          1           0        0.358844    1.591440   -0.016126
      9          6           0        1.505489   -0.055408   -0.001391
     10          8           0        1.694678    1.191638   -0.028167
     11          8           0        2.152221   -1.059087   -0.003912
 ---------------------------------------------------------------------
 Rotational constants (GHZ):           5.4246740           1.8379874           1.3733599
 Standard basis: 6-31+G(d,p) (6D, 7F)
 There are   167 symmetry adapted cartesian basis functions of A   symmetry.
 There are   167 symmetry adapted basis functions of A   symmetry.
   167 basis functions,   277 primitive gaussians,   167 cartesian basis functions
    29 alpha electrons       29 beta electrons
       nuclear repulsion energy       365.8498120536 Hartrees.
 NAtoms=   11 NActive=   11 NUniq=   11 SFac= 1.00D+00 NAtFMM=   60 NAOKFM=F Big=F
 Integral buffers will be    131072 words long.
 Raffenetti 2 integral format.
 Two-electron integral symmetry is turned on.
 One-electron integrals computed using PRISM.
 NBasis=   167 RedAO= T EigKep=  2.46D-05  NBF=   167
 NBsUse=   167 1.00D-06 EigRej= -1.00D+00 NBFU=   167
 Initial guess from the checkpoint file:  "/scratch/gongke2021/1-H-Tz-TS/Gau-12540.chk"
 B after Tr=    -0.000000    0.000000    0.000000
         Rot=    0.999999   -0.000958   -0.000032   -0.000568 Ang=  -0.13 deg.
 ExpMin= 4.38D-02 ExpMax= 5.48D+03 ExpMxC= 8.25D+02 IAcc=2 IRadAn=         4 AccDes= 0.00D+00
 Harris functional with IExCor= 1009 and IRadAn=       4 diagonalized for initial guess.
 HarFok:  IExCor= 1009 AccDes= 0.00D+00 IRadAn=         4 IDoV= 1 UseB2=F ITyADJ=14
 ICtDFT=  3500011 ScaDFX=  1.000000  1.000000  1.000000  1.000000
 FoFCou: FMM=F IPFlag=           0 FMFlag=      100000 FMFlg1=           0
         NFxFlg=           0 DoJE=T BraDBF=F KetDBF=T FulRan=T
         wScrn=  0.000000 ICntrl=       500 IOpCl=  0 I1Cent=   200000004 NGrid=           0
         NMat0=    1 NMatS0=      1 NMatT0=    0 NMatD0=    1 NMtDS0=    0 NMtDT0=    0
 Petite list used in FoFCou.
 Keep R1 ints in memory in canonical form, NReq=118249495.
 Requested convergence on RMS density matrix=1.00D-08 within 128 cycles.
 Requested convergence on MAX density matrix=1.00D-06.
 Requested convergence on             energy=1.00D-06.
 No special actions if energy rises.
 SCF Done:  E(RM062X) =  -430.621641721     A.U. after   13 cycles
            NFock= 13  Conv=0.65D-08     -V/T= 2.0080
[...]
   A19        3.14093  -0.00000   0.00000   0.00066   0.00066   3.14159
    D1        0.00030  -0.00001   0.00000  -0.00030  -0.00030   0.00000
    D2       -3.14064  -0.00001   0.00000  -0.00095  -0.00095  -3.14159
    D3        3.14044   0.00000   0.00000   0.00115   0.00115   3.14159
    D4       -0.00049   0.00000   0.00000   0.00049   0.00049  -0.00000
    D5       -0.00030   0.00000   0.00000   0.00030   0.00030  -0.00000
    D6       -3.13988  -0.00001   0.00000  -0.00172  -0.00172  -3.14159
    D7        0.00058  -0.00001   0.00000  -0.00058  -0.00058   0.00000
    D8       -3.14100  -0.00000   0.00000  -0.00059  -0.00059  -3.14159
    D9        3.14023   0.00001   0.00000   0.00137   0.00137   3.14159
   D10       -0.00136   0.00001   0.00000   0.00136   0.00136  -0.00000
   D11       -0.00016   0.00000   0.00000   0.00016   0.00016  -0.00000
   D12        3.14150   0.00000   0.00000   0.00009   0.00009   3.14159
   D13        0.00054   0.00000   0.00000  -0.00054  -0.00054  -0.00000
   D14       -3.14068   0.00000   0.00000  -0.00091  -0.00091   3.14159
   D15        0.00036  -0.00000   0.00000  -0.00036  -0.00036  -0.00000
   D16       -0.00001  -0.00000   0.00000   0.00001   0.00001  -0.00000
   D17        3.14154   0.00000   0.00000   0.00005   0.00005  -3.14159
   D18        3.14150  -0.00000   0.00000   0.00009   0.00009  -3.14159
   D19       -0.00013   0.00000   0.00000   0.00013   0.00013   0.00000
   D20        0.00018  -0.00000   0.00000  -0.00018  -0.00018   0.00000
   D21       -3.14138  -0.00000   0.00000  -0.00022  -0.00022   3.14159
   D22        0.00003  -0.00000   0.00000  -0.00003  -0.00003   0.00000
   D23       -0.00033   0.00000   0.00000   0.00033   0.00033  -0.00000
   D24        3.14125   0.00000   0.00000   0.00034   0.00034   3.14159
         Item               Value     Threshold  Converged?
 Maximum Force            0.000043     0.000450     YES
 RMS     Force            0.000012     0.000300     YES
 Maximum Displacement     0.001796     0.001800     YES
 RMS     Displacement     0.000372     0.001200     YES
 Predicted change in Energy=-4.360195D-08
 Optimization completed.
    -- Stationary point found.
                           ----------------------------
                           !   Optimized Parameters   !
                           ! (Angstroms and Degrees)  !
 --------------------------                            --------------------------
 ! Name  Definition              Value          Derivative Info.                !
 --------------------------------------------------------------------------------
 ! R1    R(1,2)                  1.3176         -DE/DX =    0.0                 !
 ! R2    R(1,5)                  1.2941         -DE/DX =    0.0                 !
 ! R3    R(1,9)                  1.6211         -DE/DX =    0.0                 !
 ! R4    R(2,3)                  1.3327         -DE/DX =    0.0                 !
 ! R5    R(2,8)                  1.1735         -DE/DX =    0.0                 !
 ! R6    R(3,4)                  1.3988         -DE/DX =    0.0                 !
 ! R7    R(3,6)                  1.0779         -DE/DX =    0.0                 !
 ! R8    R(4,5)                  1.3452         -DE/DX =    0.0                 !
 ! R9    R(4,7)                  1.0786         -DE/DX =    0.0                 !
 ! R10   R(8,10)                 1.3798         -DE/DX =    0.0                 !
 ! R11   R(9,10)                 1.2541         -DE/DX =    0.0                 !
 ! R12   R(9,11)                 1.1876         -DE/DX =    0.0                 !
 ! A1    A(2,1,5)              113.7334         -DE/DX =    0.0                 !
 ! A2    A(2,1,9)              109.0897         -DE/DX =    0.0                 !
 ! A3    A(5,1,9)              137.1769         -DE/DX =    0.0                 !
 ! A4    A(1,2,3)              107.2847         -DE/DX =    0.0                 !
 ! A5    A(1,2,8)               96.7184         -DE/DX =    0.0                 !
 ! A6    A(2,3,4)              105.096          -DE/DX =    0.0                 !
 ! A7    A(2,3,6)              122.8284         -DE/DX =    0.0                 !
 ! A8    A(4,3,6)              132.0756         -DE/DX =    0.0                 !
 ! A9    A(3,4,5)              109.1405         -DE/DX =    0.0                 !
 ! A10   A(3,4,7)              129.5652         -DE/DX =    0.0                 !
 ! A11   A(5,4,7)              121.2942         -DE/DX =    0.0                 !
 ! A12   A(1,5,4)              104.7453         -DE/DX =    0.0                 !
 ! A13   A(2,8,10)             131.4728         -DE/DX =    0.0                 !
 ! A14   A(1,9,10)             102.7653         -DE/DX =    0.0                 !
 ! A15   A(1,9,11)             116.4351         -DE/DX =    0.0                 !
 ! A16   A(10,9,11)            140.7996         -DE/DX =    0.0                 !
 ! A17   A(8,10,9)              99.9538         -DE/DX =    0.0                 !
 ! A18   L(3,2,8,1,-1)         204.0031         -DE/DX =    0.0                 !
 ! A19   L(3,2,8,1,-2)         179.9623         -DE/DX =    0.0                 !
 ! D1    D(5,1,2,3)              0.017          -DE/DX =    0.0                 !
 ! D2    D(5,1,2,8)           -179.9453         -DE/DX =    0.0                 !
 ! D3    D(9,1,2,3)            179.934          -DE/DX =    0.0                 !
 ! D4    D(9,1,2,8)             -0.0283         -DE/DX =    0.0                 !
 ! D5    D(2,1,5,4)             -0.017          -DE/DX =    0.0                 !
 ! D6    D(9,1,5,4)           -179.9016         -DE/DX =    0.0                 !
 ! D7    D(2,1,9,10)             0.0334         -DE/DX =    0.0                 !
 ! D8    D(2,1,9,11)          -179.9661         -DE/DX =    0.0                 !
 ! D9    D(5,1,9,10)           179.9217         -DE/DX =    0.0                 !
 ! D10   D(5,1,9,11)            -0.0779         -DE/DX =    0.0                 !
 ! D11   D(1,2,3,4)             -0.009          -DE/DX =    0.0                 !
 ! D12   D(1,2,3,6)            179.9949         -DE/DX =    0.0                 !
 ! D13   D(4,3,8,10)             0.031          -DE/DX =    0.0                 !
 ! D14   D(6,3,8,10)           180.0521         -DE/DX =    0.0                 !
 ! D15   D(1,2,8,10)             0.0206         -DE/DX =    0.0                 !
 ! D16   D(2,3,4,5)             -0.0008         -DE/DX =    0.0                 !
 ! D17   D(2,3,4,7)           -180.003          -DE/DX =    0.0                 !
 ! D18   D(6,3,4,5)           -180.0053         -DE/DX =    0.0                 !
 ! D19   D(6,3,4,7)             -0.0074         -DE/DX =    0.0                 !
 ! D20   D(3,4,5,1)              0.0104         -DE/DX =    0.0                 !
 ! D21   D(7,4,5,1)            180.0123         -DE/DX =    0.0                 !
 ! D22   D(2,8,10,9)             0.0016         -DE/DX =    0.0                 !
 ! D23   D(1,9,10,8)            -0.0189         -DE/DX =    0.0                 !
 ! D24   D(11,9,10,8)          179.9804         -DE/DX =    0.0                 !
 --------------------------------------------------------------------------------
 GradGradGradGradGradGradGradGradGradGradGradGradGradGradGradGradGradGrad


 ----------------------------------------------------------------------

 Electric dipole moment (input orientation):
 (Debye = 10**-18 statcoulomb cm , SI units = C m)
                  (au)            (Debye)         (10**-30 SI)
   Tot        0.267114D+01      0.678937D+01      0.226469D+02
   x         -0.246502D+01     -0.626546D+01     -0.208993D+02
   y          0.102785D+01      0.261253D+01      0.871446D+01
   z         -0.468492D-01     -0.119079D+00     -0.397204D+00

 Dipole polarizability, Alpha (input orientation).
 (esu units = cm**3 , SI units = C**2 m**2 J**-1)
 Alpha(0;0):
               (au)            (10**-24 esu)      (10**-40 SI)
   iso        0.589292D+02      0.873241D+01      0.971612D+01
   aniso      0.406094D+02      0.601769D+01      0.669558D+01
   xx         0.797523D+02      0.118181D+02      0.131494D+02
   yx        -0.283661D+01     -0.420342D+00     -0.467693D+00
   yy         0.632031D+02      0.936573D+01      0.104208D+02
   zx         0.893295D+00      0.132373D+00      0.147284D+00
   zy        -0.274416D-01     -0.406643D-02     -0.452451D-02
   zz         0.338323D+02      0.501343D+01      0.557819D+01

 ----------------------------------------------------------------------

 Dipole orientation:
     7         -0.18527505         -0.41711352         -0.10779568
     7          0.46864241          1.11748806          1.74064728
     6         -0.03640027         -0.06292000          3.90723674
     6         -1.03606611         -2.40505460          3.19839257
     7         -1.09748721         -2.55170195          0.66131025
     1          0.31990278          0.77395014          5.72987694
     1         -1.69304323         -3.94265267          4.36397786
     1          1.17795304          2.78137024          0.45778527
     6          0.39312389          0.94297229         -2.79111461
     8          1.28662246          3.03755242         -2.13467687
     8         -0.10915551         -0.23246712         -4.63583747

 Electric dipole moment (dipole orientation):
 (Debye = 10**-18 statcoulomb cm , SI units = C m)
                  (au)            (Debye)         (10**-30 SI)
   Tot        0.267114D+01      0.678937D+01      0.226469D+02
   x          0.000000D+00      0.000000D+00      0.000000D+00
   y          0.000000D+00      0.000000D+00      0.000000D+00
   z          0.267114D+01      0.678937D+01      0.226469D+02

 Dipole polarizability, Alpha (dipole orientation).
 (esu units = cm**3 , SI units = C**2 m**2 J**-1)
 Alpha(0;0):
               (au)            (10**-24 esu)      (10**-40 SI)
   iso        0.589292D+02      0.873241D+01      0.971612D+01
   aniso      0.406094D+02      0.601769D+01      0.669558D+01
   xx         0.384119D+02      0.569206D+01      0.633327D+01
   yx         0.107694D+02      0.159586D+01      0.177563D+01
   yy         0.590442D+02      0.874944D+01      0.973507D+01
   zx        -0.153008D+01     -0.226734D+00     -0.252276D+00
   zy        -0.357357D+01     -0.529549D+00     -0.589203D+00
   zz         0.793317D+02      0.117557D+02      0.130800D+02

 ----------------------------------------------------------------------
 1\1\GINC-NODE2\Freq\RM062X\6-31+G(d,p)\C3H3N3O2\ROOT\10-Mar-2023\0\\#N
  Geom=AllCheck Guess=TCheck SCRF=Check GenChk RM062X/6-31+G(d,p) Freq\
 \"Sketch 2"\\0,1\N,-0.0401958408,-0.2448478305,-0.004542138\N,-0.60326
 71536,0.94630276,-0.0148467668\C,-1.9226713103,0.7603749565,-0.0412277
 227\C,-2.0949357053,-0.627778683,-0.0459090893\N,-0.8883468172,-1.2220
 492064,-0.0224951366\H,-2.6275690826,1.5757703735,-0.0545545253\H,-3.0
 045326056,-1.2071267365,-0.0644624284\H,0.391443143,1.5685350064,0.004
 6370201\C,1.571085645,-0.0693574487,0.0258706712\O,1.714111324,1.17656
 16654,0.0296009209\O,2.2117226733,-1.0693310769,0.0370574048\\Version=
 ES64L-G16RevA.03\State=1-A\HF=-430.6226966\RMSD=2.416e-09\RMSF=2.461e-
 05\ZeroPoint=0.0708931\Thermal=0.076652\Dipole=-2.465022,1.0278484,-0.
 0468492\DipoleDeriv=-1.3679882,0.0785013,-0.0276063,-0.1154361,0.15750
 65,-0.0020628,-0.0276493,0.0017942,0.0517703,-0.5653884,-0.2640169,-0.
 0090273,-0.5423271,-0.5062319,-0.011141,-0.0091803,-0.005832,-0.095892
 7,-0.0559492,0.1200417,-0.0005112,-0.2336731,0.2822902,-0.0042829,-0.0
 007975,0.0027842,-0.0218623,-0.0799161,0.1259264,0.0003351,0.3137282,0
 .0576492,0.0063626,0.0002621,0.0025799,-0.0866499,0.1129842,-0.1454369
 ,0.0052629,0.1765041,-0.2648159,0.0034618,0.0057843,-0.0029759,-0.1459
 795,0.1108195,-0.0019015,-0.0014307,0.0178308,0.0932264,0.0002802,-0.0
 014378,-0.0001257,0.1826183,0.056957,-0.0128397,-0.0022647,-0.0321601,
 0.0944572,-0.0007164,-0.0023023,-0.0003235,0.1704541,1.3932704,0.04390
 68,0.0211125,0.1356087,0.3517427,0.0027047,0.0211229,0.0010238,0.29476
 65,2.8511547,-0.2403039,0.0464513,-0.3924583,2.1006986,-0.0059837,0.04
 58234,-0.0031397,0.4096835,-1.2989794,-0.0852389,-0.0173915,0.034583,-
 1.3308297,-0.0002079,-0.0170881,-0.0024169,-0.398896,-1.1569645,0.3813
 617,-0.0149303,0.6378,-1.0356932,0.0115854,-0.0145374,0.0066315,-0.360
 0122\Polar=79.7523397,-2.8366066,63.2030897,0.8932948,-0.0274416,33.83
 22936\Quadrupole=0.6406005,-1.1514897,0.5108892,-0.5550475,0.006568,-0
 .0124644\PG=C01 [X(C3H3N3O2)]\NImag=1\\0.73522190,0.04661170,0.7483621
 4,0.01218058,0.00147744,0.11745432,-0.14262084,0.11217747,-0.00106341,
 0.80041861,0.06315985,-0.28265291,0.00107520,0.07107289,0.63382084,-0.
 00114724,0.00212228,-0.08115202,0.01338854,0.00175255,0.12275433,-0.11
 974970,0.07140057,-0.00266186,-0.37924441,-0.04093087,-0.00630909,0.77
 782585,0.00816012,-0.03464793,0.00007919,-0.04462200,-0.12629937,-0.00
 089672,-0.17341765,0.77213089,-0.00270945,0.00137407,0.01588542,-0.006
 31351,-0.00084203,-0.06286932,0.01267892,-0.00290786,0.13283563,-0.147
 22884,-0.06365144,-0.00327963,-0.02028761,-0.01446590,-0.00064622,-0.1
 2335807,-0.05119541,-0.00111336,0.83792053,0.01986455,-0.00039367,0.00
 042736,-0.12248441,-0.02757996,-0.00248913,-0.00705470,-0.32315485,-0.
 00036343,0.16010240,0.68109221,-0.00321205,-0.00127996,0.01411110,-0.0
 0076424,-0.00032337,0.01242900,-0.00106914,-0.00123952,-0.06992774,0.0
 1401222,0.00367223,0.13960316,-0.21076596,-0.17084359,-0.00279387,-0.0
 5377772,-0.04446400,-0.00166598,0.01864122,0.10361046,0.00008094,-0.28
 916908,0.09837101,-0.00420758,0.55163479,-0.08998857,-0.27264161,-0.00
 200390,-0.01085563,-0.12805161,-0.00036227,0.00902985,-0.04271149,0.00
 012255,0.09992848,-0.16815043,0.00188321,0.01029780,0.59406419,-0.0027
 4338,-0.00364202,-0.07603055,-0.00164277,-0.00100907,0.02675058,0.0000
 0895,0.00201734,0.01943301,-0.00420284,0.00183839,-0.07234585,0.008814
 74,0.00069139,0.10849396,-0.00570856,-0.00347215,-0.00028467,-0.015289
 50,0.02634058,-0.00018792,-0.18739408,0.15101257,-0.00297383,0.0107076
 1,-0.00372820,0.00021085,0.00160479,-0.00413425,-0.00009243,0.19674526
 ,-0.00593408,-0.00093707,-0.00012675,-0.00732329,0.01207328,-0.0001318
 2,0.16181223,-0.24708596,0.00303632,0.01666821,-0.00209588,0.00033088,
 0.00237369,-0.00475758,0.00003824,-0.16748502,0.24244580,-0.00028838,-
 0.00007935,0.00863469,-0.00022127,0.00053307,-0.00480783,-0.00295900,0
 .00282673,-0.03156074,0.00022740,-0.00007729,-0.00000195,-0.00008470,-
 0.00008905,0.00600487,0.00329585,-0.00314690,0.02399482,-0.00555571,0.
 00190506,-0.00027286,0.00152811,0.00295275,-0.00008861,0.00625913,0.00
 309408,0.00014193,-0.27486308,-0.14179467,-0.00495151,-0.01843383,-0.0
 1529811,-0.00023855,-0.00037843,-0.00046498,0.00002447,0.29086335,0.00
 771151,0.00045571,0.00014370,-0.00270972,-0.00640204,-0.00006290,-0.02
 069785,-0.00198365,-0.00041221,-0.14908881,-0.15538232,-0.00306975,0.0
 1404691,0.01280597,0.00029813,0.00035092,-0.00023055,0.00000812,0.1508
 0487,0.14889054,-0.00027325,0.00003389,0.00849486,-0.00009066,0.000042
 88,0.00607847,0.00011920,0.00005844,-0.00076179,-0.00495529,-0.0029253
 2,-0.03162943,-0.00021319,-0.00028037,-0.00722840,0.00002533,-0.000007
 98,-0.00162812,0.00540922,0.00310277,0.02501896,-0.01162069,-0.0358431
 3,-0.00026595,-0.02869971,-0.05650281,-0.00005929,-0.01920046,0.009464
 95,-0.00025382,-0.00390063,0.01239152,-0.00014902,0.01116583,0.0228340
 9,0.00018725,-0.00081891,-0.00027553,0.00000942,-0.00107546,0.00227633
 ,-0.00004381,-0.02023182,-0.02759611,-0.04222365,-0.00055864,-0.040682
 45,-0.08714813,-0.00079989,0.00062014,0.00755849,0.00001241,0.00394108
 ,-0.00014733,0.00007840,0.00200056,-0.00355386,0.00003321,0.00013650,-
 0.00003926,0.00000327,-0.00029145,0.00068093,-0.00000477,0.04960421,0.
 16886964,-0.00025679,-0.00071036,0.00130121,-0.00005116,-0.00109682,-0
 .02784123,-0.00023887,0.00017051,-0.00687531,-0.00017015,0.00023961,0.
 00435507,0.00014843,0.00043208,0.00372555,0.00001204,-0.00000389,-0.00
 139736,-0.00004644,0.00004163,0.00131032,-0.00125549,0.00102006,0.0472
 8122,0.00201370,0.04295174,0.00069553,-0.05876143,0.01035619,-0.001052
 19,0.02539129,0.00404503,0.00046806,0.02112413,-0.01350776,0.00032043,
 -0.00518940,-0.02724899,0.00011741,0.00109897,0.00103842,-0.00000433,0
 .00229509,-0.00231998,0.00001408,0.05902994,0.02546113,0.00117288,0.36
 139484,0.00316355,-0.06878081,0.00002782,-0.02551982,-0.00420945,-0.00
 049105,0.01337507,-0.00997147,0.00026076,-0.00064635,-0.01158469,-0.00
 003304,-0.02249781,-0.00210527,-0.00042673,0.00152828,0.00078357,0.000
 03251,-0.00002164,-0.00035276,-0.00000352,0.09267092,-0.01279364,0.001
 76498,-0.35107121,1.23267437,0.00073702,0.00077646,-0.03446439,-0.0010
 9462,0.00020718,-0.00386352,0.00045405,0.00008497,0.00252584,0.0002989
 6,-0.00029532,0.00523972,0.00012709,-0.00050035,-0.01480976,-0.0000092
 8,0.00001895,0.00149148,0.00000750,-0.00004431,0.00168149,0.00122034,0
 .00047149,-0.00138133,0.00282425,-0.00573686,0.19573867,-0.03718419,-0
 .03769417,-0.00098293,-0.09804240,-0.01392536,-0.00210022,0.00717933,-
 0.01176554,0.00011710,-0.00648992,-0.00559314,-0.00011576,-0.00885178,
 0.00105539,-0.00024902,0.00024643,0.00015125,0.00000761,-0.00017562,-0
 .00075647,0.00001272,0.02335976,-0.00968867,0.00090192,-0.11865893,-0.
 05823394,-0.00087141,0.21418830,-0.05335606,-0.04745978,-0.00105005,0.
 05409748,0.01161622,0.00103638,-0.01408199,0.00376488,-0.00028221,-0.0
 0544386,0.00634349,-0.00010173,0.00216978,0.01572202,0.00007025,-0.000
 59885,-0.00036304,-0.00001296,-0.00117425,0.00159164,-0.00002259,-0.06
 949176,-0.03008374,-0.00133424,-0.01459337,-0.50209295,-0.00062519,0.0
 8843094,0.63683733,-0.00099474,-0.00073841,0.01299657,-0.00203790,-0.0
 0027498,0.01074435,0.00009552,-0.00022211,0.00152711,-0.00010391,-0.00
 009781,-0.00114218,-0.00024266,0.00002492,0.00431327,0.00000681,0.0000
 0276,-0.00012157,0.00001748,-0.00001242,-0.00105890,0.00084880,-0.0001
 8660,-0.02371226,-0.00083955,-0.00146410,-0.07506673,0.00325239,0.0021
 6361,0.04624961,-0.05680111,0.03645793,-0.00127093,-0.00522312,-0.0035
 9333,-0.00013177,-0.00635009,0.00161336,-0.00012298,-0.00445505,0.0034
 3339,-0.00007420,0.00314114,0.00437994,0.00004064,-0.00081357,-0.00056
 088,-0.00000707,-0.00046354,0.00038228,-0.00000435,-0.00800784,-0.0035
 0493,-0.00021637,-0.28973821,0.34725293,-0.00369392,0.02442903,0.01404
 193,-0.00000225,0.34428237,0.02820353,0.00091958,0.00050864,0.01684947
 ,0.00483313,0.00032256,-0.00005480,0.00240047,0.00000162,0.00385160,0.
 00105343,0.00008266,0.00493518,-0.00062034,0.00009086,0.00004962,0.000
 20669,0.00000183,0.00028834,-0.00007348,0.00000658,-0.02712880,-0.0011
 1945,-0.00052357,0.32488880,-0.62156690,0.00564298,0.04801969,-0.09587
 608,0.00080514,-0.39990263,0.70984296,-0.00129232,0.00066597,0.0127687
 7,-0.00010900,-0.00006461,0.00177717,-0.00011868,0.00002902,-0.0002121
 3,-0.00006719,0.00007071,-0.00069090,0.00003678,0.00008177,0.00169332,
 -0.00000276,-0.00000979,-0.00060829,-0.00000262,0.00000724,-0.00027746
 ,-0.00023842,-0.00006894,0.00323410,-0.00371657,0.00606921,-0.07709147
 ,0.00002759,0.00015872,0.02527074,0.00548319,-0.00693929,0.03413614\\0
 .00010623,0.00001091,0.00005058,0.00000254,-0.00002849,-0.00001871,-0.
 00001736,0.00001040,0.00000782,-0.00002914,-0.00000839,-0.00001111,-0.
 00002743,-0.00001108,-0.00001804,0.00000042,-0.00000060,0.00000088,-0.
 00000031,0.00000039,0.00000345,0.00000755,0.00001528,-0.00000302,-0.00
 003169,0.00000870,-0.00001287,0.00000672,-0.00000916,0.00000177,-0.000
 01751,0.00001202,-0.00000075\\\@


 WHAT THE SLIME CONTAINS, THE GLOWING REVEALS
 BY THE FLAME'S BRIGHT HUE WHEN YOU IGNITE IT.
   --  LEONARD THURNEYSSER, 1531-1596
 DESCRIBING HIS FLAME PHOTOLYSIS ANALYTIC METHOD
 Job cpu time:       0 days  0 hours 23 minutes 30.7 seconds.
 Elapsed time:       0 days  0 hours  1 minutes 11.2 seconds.
 File lengths (MBytes):  RWF=     39 Int=      0 D2E=      0 Chk=      3 Scr=      1
 Normal termination of Gaussian 16 at Fri Mar 10 01:50:09 2023.
