 Entering Gaussian System, Link 0=/opt/soft/g16/g16
 Initial command:
 /opt/soft/g16/l1.exe "/scratch/gongke2021/2-H-1-H-Tz-PC/Gau-4373.inp" -scrdir="/scratch/gongke2021/2-H-1-H-Tz-PC/"
 Entering Link 1 = /opt/soft/g16/l1.exe PID=      4375.
  
 Copyright (c) 1988,1990,1992,1993,1995,1998,2003,2009,2016,
            Gaussian, Inc.  All Rights Reserved.
  
 This is part of the Gaussian(R) 16 program.  It is based on
 the Gaussian(R) 09 system (copyright 2009, Gaussian, Inc.),
 the Gaussian(R) 03 system (copyright 2003, Gaussian, Inc.),
 the Gaussian(R) 98 system (copyright 1998, Gaussian, Inc.),
 the Gaussian(R) 94 system (copyright 1995, Gaussian, Inc.),
 the Gaussian 92(TM) system (copyright 1992, Gaussian, Inc.),
 the Gaussian 90(TM) system (copyright 1990, Gaussian, Inc.),
 the Gaussian 88(TM) system (copyright 1988, Gaussian, Inc.),
 the Gaussian 86(TM) system (copyright 1986, Carnegie Mellon
 University), and the Gaussian 82(TM) system (copyright 1983,
 Carnegie Mellon University). Gaussian is a federally registered
 trademark of Gaussian, Inc.
  
 This software contains proprietary and confidential information,
 including trade secrets, belonging to Gaussian, Inc.
  
 This software is provided under written license and may be
 used, copied, transmitted, or stored only in accord with that
 written license.
  
 The following legend is applicable only to US Government
 contracts under FAR:
  
                    RESTRICTED RIGHTS LEGEND
  
 Use, reproduction and disclosure by the US Government is
 subject to restrictions as set forth in subparagraphs (a)
 and (c) of the Commercial Computer Software - Restricted
 Rights clause in FAR 52.227-19.
  
 Gaussian, Inc.
 340 Quinnipiac St., Bldg. 40, Wallingford CT 06492
  
  
 ---------------------------------------------------------------
 Warning -- This program may not be used in any manner that
 competes with the business of Gaussian, Inc. or will provide
 assistance to any competitor of Gaussian, Inc.  The licensee
 of this program is prohibited from giving any competitor of
 Gaussian, Inc. access to this program.  By using this program,
 the user acknowledges that Gaussian, Inc. is engaged in the
 business of creating and licensing software in the field of
 computational chemistry and represents and warrants to the
 licensee that it is not a competitor of Gaussian, Inc. and that
 it will not use this program in any manner prohibited above.
 ---------------------------------------------------------------
  

 Cite this work as:
 Gaussian 16, Revision A.03,
 M. J. Frisch, G. W. Trucks, H. B. Schlegel, G. E. Scuseria, 
 M. A. Robb, J. R. Cheeseman, G. Scalmani, V. Barone, 
 G. A. Petersson, H. Nakatsuji, X. Li, M. Caricato, A. V. Marenich, 
 J. Bloino, B. G. Janesko, R. Gomperts, B. Mennucci, H. P. Hratchian, 
 J. V. Ortiz, A. F. Izmaylov, J. L. Sonnenberg, D. Williams-Young, 
 F. Ding, F. Lipparini, F. Egidi, J. Goings, B. Peng, A. Petrone, 
 T. Henderson, D. Ranasinghe, V. G. Zakrzewski, J. Gao, N. Rega, 
 G. Zheng, W. Liang, M. Hada, M. Ehara, K. Toyota, R. Fukuda, 
 J. Hasegawa, M. Ishida, T. Nakajima, Y. Honda, O. Kitao, H. Nakai, 
 T. Vreven, K. Throssell, J. A. Montgomery, Jr., J. E. Peralta, 
 F. Ogliaro, M. J. Bearpark, J. J. Heyd, E. N. Brothers, K. N. Kudin, 
 V. N. Staroverov, T. A. Keith, R. Kobayashi, J. Normand, 
 K. Raghavachari, A. P. Rendell, J. C. Burant, S. S. Iyengar, 
 J. Tomasi, M. Cossi, J. M. Millam, M. Klene, C. Adamo, R. Cammi, 
 J. W. Ochterski, R. L. Martin, K. Morokuma, O. Farkas, 
 J. B. Foresman, and D. J. Fox, Gaussian, Inc., Wallingford CT, 2016.
 
 ******************************************
 Gaussian 16:  ES64L-G16RevA.03 25-Dec-2016
                16-Jul-2023 
 ******************************************
 %mem=10GB
 %nprocshared=24
 Will use up to   24 processors via shared memory.
 ----------------------------
 # opt freq 6-31+g(d,p) m062x
 ----------------------------
 1/18=20,19=15,26=3,38=1/1,3;
 2/9=110,12=2,17=6,18=5,40=1/2;
 3/5=1,6=6,7=111,11=2,25=1,30=1,71=1,74=-55/1,2,3;
 4//1;
 5/5=2,38=5/2;
 6/7=2,8=2,9=2,10=2,28=1/1;
 7//1,2,3,16;
 1/18=20,19=15,26=3/3(2);
 2/9=110/2;
 99//99;
 2/9=110/2;
 3/5=1,6=6,7=111,11=2,25=1,30=1,71=1,74=-55/1,2,3;
 4/5=5,16=3,69=1/1;
 5/5=2,38=5/2;
 7//1,2,3,16;
 1/18=20,19=15,26=3/3(-5);
 2/9=110/2;
 6/7=2,8=2,9=2,10=2,19=2,28=1/1;
 99/9=1/99;
 ----------
 2-H-1-H-Tz
 ----------
 Symbolic Z-matrix:
 Charge =  1 Multiplicity = 1
 N                    -0.56169  -0.90033   0.00024 
 N                    -1.85149  -0.74439   0.00004 
 C                    -2.15738   0.5638   -0.00013 
 C                    -0.94048   1.23404  -0.00008 
 N                    -0.01213   0.27006   0.00015 
 H                    -3.17822   0.91514  -0.00025 
 H                    -0.69855   2.28624  -0.00021 
 H                    -2.47669  -1.55686  -0.00001 
 H                     0.98024  -2.10686   0.01815 
 C                     1.60514   0.03445  -0.00003 
 O                     1.72417  -1.20409  -0.00023 
 O                     2.26462   1.02828   0.0001 
 
 Add virtual bond connecting atoms O11        and H9         Dist= 2.21D+00.

 GradGradGradGradGradGradGradGradGradGradGradGradGradGradGradGradGradGrad
 Berny optimization.
 Initialization pass.
                           ----------------------------
                           !    Initial Parameters    !
                           ! (Angstroms and Degrees)  !
 --------------------------                            --------------------------
 ! Name  Definition              Value          Derivative Info.                !
 --------------------------------------------------------------------------------
 ! R1    R(1,2)                  1.2992         estimate D2E/DX2                !
 ! R2    R(1,5)                  1.293          estimate D2E/DX2                !
 ! R3    R(2,3)                  1.3435         estimate D2E/DX2                !
 ! R4    R(2,8)                  1.0252         estimate D2E/DX2                !
 ! R5    R(3,4)                  1.3893         estimate D2E/DX2                !
 ! R6    R(3,6)                  1.0796         estimate D2E/DX2                !
 ! R7    R(4,5)                  1.3383         estimate D2E/DX2                !
 ! R8    R(4,7)                  1.0797         estimate D2E/DX2                !
 ! R9    R(5,10)                 1.6343         estimate D2E/DX2                !
 ! R10   R(9,11)                 1.1699         estimate D2E/DX2                !
 ! R11   R(10,11)                1.2442         estimate D2E/DX2                !
 ! R12   R(10,12)                1.1927         estimate D2E/DX2                !
 ! A1    A(2,1,5)              108.2587         estimate D2E/DX2                !
 ! A2    A(1,2,3)              110.0544         estimate D2E/DX2                !
 ! A3    A(1,2,8)              120.6852         estimate D2E/DX2                !
 ! A4    A(3,2,8)              129.2604         estimate D2E/DX2                !
 ! A5    A(2,3,4)              105.6843         estimate D2E/DX2                !
 ! A6    A(2,3,6)              122.1524         estimate D2E/DX2                !
 ! A7    A(4,3,6)              132.1633         estimate D2E/DX2                !
 ! A8    A(3,4,5)              105.0761         estimate D2E/DX2                !
 ! A9    A(3,4,7)              131.7942         estimate D2E/DX2                !
 ! A10   A(5,4,7)              123.1296         estimate D2E/DX2                !
 ! A11   A(1,5,4)              110.9265         estimate D2E/DX2                !
 ! A12   A(1,5,10)             106.8638         estimate D2E/DX2                !
 ! A13   A(4,5,10)             142.2098         estimate D2E/DX2                !
 ! A14   A(5,10,11)            103.7779         estimate D2E/DX2                !
 ! A15   A(5,10,12)            115.2787         estimate D2E/DX2                !
 ! A16   A(11,10,12)           140.9433         estimate D2E/DX2                !
 ! A17   A(9,11,10)            135.0132         estimate D2E/DX2                !
 ! D1    D(5,1,2,3)             -0.0024         estimate D2E/DX2                !
 ! D2    D(5,1,2,8)            179.9948         estimate D2E/DX2                !
 ! D3    D(2,1,5,4)              0.0016         estimate D2E/DX2                !
 ! D4    D(2,1,5,10)          -179.9844         estimate D2E/DX2                !
 ! D5    D(1,2,3,4)              0.0023         estimate D2E/DX2                !
 ! D6    D(1,2,3,6)           -179.9965         estimate D2E/DX2                !
 ! D7    D(8,2,3,4)           -179.9946         estimate D2E/DX2                !
 ! D8    D(8,2,3,6)              0.0066         estimate D2E/DX2                !
 ! D9    D(2,3,4,5)             -0.0012         estimate D2E/DX2                !
 ! D10   D(2,3,4,7)            179.9974         estimate D2E/DX2                !
 ! D11   D(6,3,4,5)            179.9974         estimate D2E/DX2                !
 ! D12   D(6,3,4,7)             -0.004          estimate D2E/DX2                !
 ! D13   D(3,4,5,1)             -0.0002         estimate D2E/DX2                !
 ! D14   D(3,4,5,10)           179.978          estimate D2E/DX2                !
 ! D15   D(7,4,5,1)           -179.999          estimate D2E/DX2                !
 ! D16   D(7,4,5,10)            -0.0208         estimate D2E/DX2                !
 ! D17   D(1,5,10,11)            0.0105         estimate D2E/DX2                !
 ! D18   D(1,5,10,12)         -179.9877         estimate D2E/DX2                !
 ! D19   D(4,5,10,11)         -179.9682         estimate D2E/DX2                !
 ! D20   D(4,5,10,12)            0.0336         estimate D2E/DX2                !
 ! D21   D(5,10,11,9)           -1.2785         estimate D2E/DX2                !
 ! D22   D(12,10,11,9)         178.719          estimate D2E/DX2                !
 --------------------------------------------------------------------------------
 Trust Radius=3.00D-01 FncErr=1.00D-07 GrdErr=1.00D-06 EigMax=2.50D+02 EigMin=1.00D-04
 Number of steps in this run=     61 maximum allowed number of steps=    100.
 GradGradGradGradGradGradGradGradGradGradGradGradGradGradGradGradGradGrad

                          Input orientation:                          
 ---------------------------------------------------------------------
 Center     Atomic      Atomic             Coordinates (Angstroms)
 Number     Number       Type             X           Y           Z
 ---------------------------------------------------------------------
      1          7           0       -0.561687   -0.900331    0.000239
      2          7           0       -1.851485   -0.744394    0.000043
      3          6           0       -2.157375    0.563800   -0.000131
      4          6           0       -0.940484    1.234040   -0.000081
      5          7           0       -0.012134    0.270058    0.000146
      6          1           0       -3.178217    0.915136   -0.000253
      7          1           0       -0.698549    2.286240   -0.000208
      8          1           0       -2.476693   -1.556864   -0.000006
      9          1           0        0.980244   -2.106859    0.018147
     10          6           0        1.605141    0.034454   -0.000028
     11          8           0        1.724168   -1.204088   -0.000230
     12          8           0        2.264617    1.028277    0.000103
 ---------------------------------------------------------------------
                    Distance matrix (angstroms):
                    1          2          3          4          5
     1  N    0.000000
     2  N    1.299190   0.000000
     3  C    2.165618   1.343481   0.000000
     4  C    2.167724   2.178101   1.389261   0.000000
     5  N    1.292988   2.100553   2.165258   1.338318   0.000000
     6  H    3.184674   2.124678   1.079609   2.260343   3.231131
     7  H    3.189509   3.242530   2.257205   1.079656   2.129825
     8  H    2.024422   1.025179   2.144570   3.185763   3.067849
     9  H    1.957953   3.142503   4.120365   3.853717   2.575824
    10  C    2.359866   3.543285   3.799570   2.814110   1.634346
    11  O    2.305949   3.605082   4.265185   3.611764   2.277685
    12  O    3.421626   4.481591   4.446319   3.211699   2.399686
                    6          7          8          9         10
     6  H    0.000000
     7  H    2.833492   0.000000
     8  H    2.569615   4.234530   0.000000
     9  H    5.140583   4.702978   3.500462   0.000000
    10  C    4.863755   3.221417   4.381057   2.230706   0.000000
    11  O    5.340832   4.248758   4.215648   1.169938   1.244248
    12  O    5.444010   3.219134   5.400275   3.388070   1.192725
                   11         12
    11  O    0.000000
    12  O    2.296854   0.000000
 Stoichiometry    C3H4N3O2(1+)
 Framework group  C1[X(C3H4N3O2)]
 Deg. of freedom    30
 Full point group                 C1      NOp   1
 Largest Abelian subgroup         C1      NOp   1
 Largest concise Abelian subgroup C1      NOp   1
                         Standard orientation:                         
 ---------------------------------------------------------------------
 Center     Atomic      Atomic             Coordinates (Angstroms)
 Number     Number       Type             X           Y           Z
 ---------------------------------------------------------------------
      1          7           0       -0.559309   -0.899855   -0.000637
      2          7           0       -1.851174   -0.762086   -0.000587
      3          6           0       -2.175445    0.541674    0.000192
      4          6           0       -0.968107    1.228973    0.000585
      5          7           0       -0.026282    0.278152    0.000036
      6          1           0       -3.201130    0.878608    0.000425
      7          1           0       -0.741004    2.284474    0.001173
      8          1           0       -2.464886   -1.583274   -0.001142
      9          1           0        0.999451   -2.084575    0.016260
     10          6           0        1.594149    0.065332   -0.000475
     11          8           0        1.730594   -1.171411   -0.001561
     12          8           0        2.239573    1.068338    0.000286
 ---------------------------------------------------------------------
 Rotational constants (GHZ):           5.2995620           1.7025572           1.2885844
 Standard basis: 6-31+G(d,p) (6D, 7F)
 There are   172 symmetry adapted cartesian basis functions of A   symmetry.
 There are   172 symmetry adapted basis functions of A   symmetry.
   172 basis functions,   284 primitive gaussians,   172 cartesian basis functions
    29 alpha electrons       29 beta electrons
       nuclear repulsion energy       373.2744014125 Hartrees.
 NAtoms=   12 NActive=   12 NUniq=   12 SFac= 1.00D+00 NAtFMM=   60 NAOKFM=F Big=F
 Integral buffers will be    131072 words long.
 Raffenetti 2 integral format.
 Two-electron integral symmetry is turned on.
 One-electron integrals computed using PRISM.
 NBasis=   172 RedAO= T EigKep=  2.31D-05  NBF=   172
 NBsUse=   172 1.00D-06 EigRej= -1.00D+00 NBFU=   172
 ExpMin= 4.38D-02 ExpMax= 5.48D+03 ExpMxC= 8.25D+02 IAcc=3 IRadAn=         5 AccDes= 0.00D+00
 Harris functional with IExCor= 1009 and IRadAn=       5 diagonalized for initial guess.
 HarFok:  IExCor= 1009 AccDes= 0.00D+00 IRadAn=         5 IDoV= 1 UseB2=F ITyADJ=14
 ICtDFT=  3500011 ScaDFX=  1.000000  1.000000  1.000000  1.000000
 FoFCou: FMM=F IPFlag=           0 FMFlag=      100000 FMFlg1=           0
         NFxFlg=           0 DoJE=T BraDBF=F KetDBF=T FulRan=T
         wScrn=  0.000000 ICntrl=       500 IOpCl=  0 I1Cent=   200000004 NGrid=           0
         NMat0=    1 NMatS0=      1 NMatT0=    0 NMatD0=    1 NMtDS0=    0 NMtDT0=    0
 Petite list used in FoFCou.
 Keep R1 ints in memory in canonical form, NReq=134699993.
 Requested convergence on RMS density matrix=1.00D-08 within 128 cycles.
 Requested convergence on MAX density matrix=1.00D-06.
 Requested convergence on             energy=1.00D-06.
 No special actions if energy rises.
 SCF Done:  E(RM062X) =  -430.923210681     A.U. after   14 cycles
            NFock= 14  Conv=0.61D-08     -V/T= 2.0085

 **********************************************************************

            Population analysis using the SCF density.

 **********************************************************************

 Orbital symmetries:
       Occupied  (A) (A) (A) (A) (A) (A) (A) (A) (A) (A) (A) (A)
                 (A) (A) (A) (A) (A) (A) (A) (A) (A) (A) (A) (A)
                 (A) (A) (A) (A) (A)
       Virtual   (A) (A) (A) (A) (A) (A) (A) (A) (A) (A) (A) (A)
                 (A) (A) (A) (A) (A) (A) (A) (A) (A) (A) (A) (A)
                 (A) (A) (A) (A) (A) (A) (A) (A) (A) (A) (A) (A)
                 (A) (A) (A) (A) (A) (A) (A) (A) (A) (A) (A) (A)
                 (A) (A) (A) (A) (A) (A) (A) (A) (A) (A) (A) (A)
                 (A) (A) (A) (A) (A) (A) (A) (A) (A) (A) (A) (A)
                 (A) (A) (A) (A) (A) (A) (A) (A) (A) (A) (A) (A)
                 (A) (A) (A) (A) (A) (A) (A) (A) (A) (A) (A) (A)
                 (A) (A) (A) (A) (A) (A) (A) (A) (A) (A) (A) (A)
                 (A) (A) (A) (A) (A) (A) (A) (A) (A) (A) (A) (A)
                 (A) (A) (A) (A) (A) (A) (A) (A) (A) (A) (A) (A)
                 (A) (A) (A) (A) (A) (A) (A) (A) (A) (A) (A)
 The electronic state is 1-A.
 Alpha  occ. eigenvalues --  -19.90416 -19.85031 -15.10491 -15.08776 -15.07723
 Alpha  occ. eigenvalues --  -10.94233 -10.82668 -10.82143  -1.50297  -1.44534
 Alpha  occ. eigenvalues --   -1.36459  -1.28116  -1.15719  -1.00391  -0.97961
 Alpha  occ. eigenvalues --   -0.92351  -0.88602  -0.83462  -0.81638  -0.75952
 Alpha  occ. eigenvalues --   -0.74617  -0.74402  -0.73750  -0.66904  -0.62770
 Alpha  occ. eigenvalues --   -0.62154  -0.59165  -0.57487  -0.55212
 Alpha virt. eigenvalues --   -0.21374  -0.17148  -0.15727  -0.14121  -0.11008
 Alpha virt. eigenvalues --   -0.10020  -0.09816  -0.08669  -0.08538  -0.07983
 Alpha virt. eigenvalues --   -0.05890  -0.05076  -0.03690  -0.03283  -0.02853
 Alpha virt. eigenvalues --   -0.01723  -0.01464   0.00527   0.00986   0.02118
 Alpha virt. eigenvalues --    0.03950   0.04230   0.05928   0.07220   0.07250
 Alpha virt. eigenvalues --    0.08280   0.08633   0.09314   0.10072   0.12102
 Alpha virt. eigenvalues --    0.12797   0.14104   0.14766   0.15931   0.16337
 Alpha virt. eigenvalues --    0.16737   0.18171   0.19717   0.20204   0.21883
 Alpha virt. eigenvalues --    0.23719   0.24906   0.27314   0.28047   0.32655
 Alpha virt. eigenvalues --    0.34221   0.46610   0.51483   0.53525   0.55904
 Alpha virt. eigenvalues --    0.60348   0.63865   0.65137   0.68334   0.69960
 Alpha virt. eigenvalues --    0.71719   0.71845   0.73270   0.74128   0.75282
 Alpha virt. eigenvalues --    0.76169   0.78304   0.79836   0.84769   0.88884
 Alpha virt. eigenvalues --    0.94682   0.97413   1.01331   1.03342   1.04962
 Alpha virt. eigenvalues --    1.05121   1.05943   1.10334   1.13871   1.14621
 Alpha virt. eigenvalues --    1.15405   1.15827   1.16448   1.21200   1.22777
 Alpha virt. eigenvalues --    1.24401   1.27386   1.29045   1.31780   1.36853
 Alpha virt. eigenvalues --    1.40243   1.41482   1.46903   1.52106   1.52669
 Alpha virt. eigenvalues --    1.57999   1.62124   1.68183   1.71906   1.75682
 Alpha virt. eigenvalues --    1.77268   1.79189   1.84922   1.86622   1.88389
 Alpha virt. eigenvalues --    1.93442   1.94717   1.97534   1.99267   2.00717
 Alpha virt. eigenvalues --    2.05003   2.12858   2.15075   2.16152   2.17986
 Alpha virt. eigenvalues --    2.19089   2.22903   2.30069   2.30601   2.31072
 Alpha virt. eigenvalues --    2.34923   2.41925   2.43238   2.49219   2.55265
 Alpha virt. eigenvalues --    2.56084   2.57558   2.64643   2.66647   2.70600
 Alpha virt. eigenvalues --    2.76017   2.82149   2.96696   2.98211   3.01135
 Alpha virt. eigenvalues --    3.07744   3.13374   3.30603   3.36676   3.58112
 Alpha virt. eigenvalues --    3.80908   3.97286   4.05233   4.10692   4.24634
 Alpha virt. eigenvalues --    4.39790   4.51292   4.60015
          Condensed to atoms (all electrons):
               1          2          3          4          5          6
     1  N    8.344900  -1.246350   0.422461  -0.403141  -0.221332   0.020476
     2  N   -1.246350   7.869764  -0.116868   0.279527   0.250966  -0.040940
     3  C    0.422461  -0.116868   5.480573   0.012227  -0.121963   0.356618
     4  C   -0.403141   0.279527   0.012227   5.511739   0.443751   0.013526
     5  N   -0.221332   0.250966  -0.121963   0.443751   6.970120  -0.011580
     6  H    0.020476  -0.040940   0.356618   0.013526  -0.011580   0.390898
     7  H   -0.005089   0.005207  -0.016881   0.396908  -0.035319   0.000153
     8  H    0.007455   0.284605   0.014689  -0.022753   0.008325  -0.000684
     9  H    0.005047   0.053371  -0.008565   0.007130   0.005444  -0.000000
    10  C    0.094537  -0.034420   0.009411  -0.068905  -0.026872   0.000025
    11  O    0.078992  -0.037274   0.022664  -0.018471  -0.196134   0.000049
    12  O    0.021681  -0.008955   0.027019  -0.068253  -0.027354  -0.000034
               7          8          9         10         11         12
     1  N   -0.005089   0.007455   0.005047   0.094537   0.078992   0.021681
     2  N    0.005207   0.284605   0.053371  -0.034420  -0.037274  -0.008955
     3  C   -0.016881   0.014689  -0.008565   0.009411   0.022664   0.027019
     4  C    0.396908  -0.022753   0.007130  -0.068905  -0.018471  -0.068253
     5  N   -0.035319   0.008325   0.005444  -0.026872  -0.196134  -0.027354
     6  H    0.000153  -0.000684  -0.000000   0.000025   0.000049  -0.000034
     7  H    0.385459  -0.000057   0.000002  -0.004294  -0.000780   0.000948
     8  H   -0.000057   0.292225  -0.000073   0.001622   0.000495   0.000021
     9  H    0.000002  -0.000073   0.240142  -0.014674   0.183417   0.000396
    10  C   -0.004294   0.001622  -0.014674   4.391824   0.317988   0.526576
    11  O   -0.000780   0.000495   0.183417   0.317988   8.117774  -0.091061
    12  O    0.000948   0.000021   0.000396   0.526576  -0.091061   7.955273
 Mulliken charges:
               1
     1  N   -0.119637
     2  N   -0.258635
     3  C   -0.081384
     4  C   -0.083286
     5  N   -0.038051
     6  H    0.271493
     7  H    0.273743
     8  H    0.414130
     9  H    0.528363
    10  C    0.807183
    11  O   -0.377660
    12  O   -0.336258
 Sum of Mulliken charges =   1.00000
 Mulliken charges with hydrogens summed into heavy atoms:
               1
     1  N   -0.119637
     2  N    0.155495
     3  C    0.190109
     4  C    0.190458
     5  N   -0.038051
    10  C    0.807183
    11  O    0.150702
    12  O   -0.336258
 Electronic spatial extent (au):  <R**2>=            828.6920
 Charge=              1.0000 electrons
 Dipole moment (field-independent basis, Debye):
    X=             -7.2641    Y=             -2.7136    Z=              0.0350  Tot=              7.7545
 Quadrupole moment (field-independent basis, Debye-Ang):
   XX=            -26.7201   YY=            -28.1934   ZZ=            -43.9222
   XY=             -1.8427   XZ=              0.0403   YZ=             -0.0846
 Traceless Quadrupole moment (field-independent basis, Debye-Ang):
   XX=              6.2251   YY=              4.7519   ZZ=            -10.9770
   XY=             -1.8427   XZ=              0.0403   YZ=             -0.0846
 Octapole moment (field-independent basis, Debye-Ang**2):
  XXX=            -62.1296  YYY=            -18.8918  ZZZ=              0.0032  XYY=            -12.1564
  XXY=            -13.9472  XXZ=              0.0165  XZZ=              5.1708  YZZ=             -1.8661
  YYZ=              0.2087  XYZ=             -0.1058
 Hexadecapole moment (field-independent basis, Debye-Ang**3):
 XXXX=           -572.1515 YYYY=           -169.0206 ZZZZ=            -39.2272 XXXY=             11.7838
 XXXZ=              0.0395 YYYX=             -8.0540 YYYZ=             -0.4339 ZZZX=              0.0162
 ZZZY=             -0.0320 XXYY=           -128.4842 XXZZ=           -127.8207 YYZZ=            -51.9148
 XXYZ=             -0.0657 YYXZ=              0.2219 ZZXY=              3.1211
 N-N= 3.732744014125D+02 E-N=-1.740796396976D+03  KE= 4.272986678913D+02
 Calling FoFJK, ICntrl=      2127 FMM=F ISym2X=0 I1Cent= 0 IOpClX= 0 NMat=1 NMatS=1 NMatT=0.
 ***** Axes restored to original set *****
 -------------------------------------------------------------------
 Center     Atomic                   Forces (Hartrees/Bohr)
 Number     Number              X              Y              Z
 -------------------------------------------------------------------
      1        7          -0.019746622   -0.032060947    0.000089276
      2        7           0.005579985    0.011822971    0.000036644
      3        6          -0.006503143    0.017194271   -0.000021772
      4        6          -0.013392171    0.010300009   -0.000014806
      5        7           0.002001463   -0.027253056   -0.000003814
      6        1           0.000572599    0.002700203   -0.000013087
      7        1          -0.000383917    0.000454203   -0.000007069
      8        1           0.005476641    0.004737267   -0.000002009
      9        1           0.050258170    0.094855155   -0.001644114
     10        6          -0.022174933    0.062548157    0.000672700
     11        8           0.011505979   -0.106699304    0.001133176
     12        8          -0.013194052   -0.038598931   -0.000225125
 -------------------------------------------------------------------
 Cartesian Forces:  Max     0.106699304 RMS     0.029875781

 GradGradGradGradGradGradGradGradGradGradGradGradGradGradGradGradGradGrad
 Berny optimization.
 FormGI is forming the generalized inverse of G from B-inverse, IUseBI=4.
 Internal  Forces:  Max     0.105176563 RMS     0.024368739
 Search for a local minimum.
 Step number   1 out of a maximum of   61
 All quantities printed in internal units (Hartrees-Bohrs-Radians)
 Mixed Optimization -- RFO/linear search
 Second derivative matrix not updated -- first step.
 ITU=  0
     Eigenvalues ---    0.00230   0.01619   0.02017   0.02304   0.02376
     Eigenvalues ---    0.02406   0.02494   0.02608   0.03752   0.16000
     Eigenvalues ---    0.16000   0.16000   0.16000   0.21563   0.22204
     Eigenvalues ---    0.24092   0.25000   0.25000   0.25000   0.26996
     Eigenvalues ---    0.36036   0.36042   0.43522   0.44668   0.49505
     Eigenvalues ---    0.56514   0.63783   0.66665   0.85399   1.08565
 RFO step:  Lambda=-8.53036910D-02 EMin= 2.30000000D-03
 Linear search not attempted -- first point.
 Maximum step size (   0.300) exceeded in Quadratic search.
    -- Step size scaled by   0.595
 Iteration  1 RMS(Cart)=  0.12199405 RMS(Int)=  0.00450437
 Iteration  2 RMS(Cart)=  0.00691899 RMS(Int)=  0.00002709
 Iteration  3 RMS(Cart)=  0.00000527 RMS(Int)=  0.00002669
 Iteration  4 RMS(Cart)=  0.00000000 RMS(Int)=  0.00002669
 Variable       Old X    -DE/DX   Delta X   Delta X   Delta X     New X
                                 (Linear)    (Quad)   (Total)
    R1        2.45511   0.00838   0.00000   0.00692   0.00697   2.46209
    R2        2.44339   0.02136   0.00000   0.01791   0.01794   2.46134
    R3        2.53881   0.00774   0.00000   0.00554   0.00554   2.54435
    R4        1.93731  -0.00709   0.00000  -0.00811  -0.00811   1.92919
    R5        2.62532  -0.01739   0.00000  -0.02011  -0.02016   2.60516
    R6        2.04017   0.00034   0.00000   0.00045   0.00045   2.04062
    R7        2.52905   0.02108   0.00000   0.01979   0.01977   2.54882
    R8        2.04025   0.00036   0.00000   0.00048   0.00048   2.04073
    R9        3.08847   0.02437   0.00000   0.04822   0.04822   3.13669
   R10        2.21086  -0.10518   0.00000  -0.17626  -0.17626   2.03460
   R11        2.35129   0.01770   0.00000   0.01122   0.01122   2.36251
   R12        2.25392  -0.03946   0.00000  -0.02006  -0.02006   2.23386
    A1        1.88947  -0.01887   0.00000  -0.02903  -0.02893   1.86054
    A2        1.92081   0.01868   0.00000   0.03341   0.03344   1.95426
    A3        2.10635  -0.01074   0.00000  -0.02011  -0.02013   2.08622
    A4        2.25602  -0.00793   0.00000  -0.01329  -0.01331   2.24271
    A5        1.84454  -0.00690   0.00000  -0.02011  -0.02017   1.82437
    A6        2.13196   0.00625   0.00000   0.01684   0.01687   2.14883
    A7        2.30668   0.00065   0.00000   0.00327   0.00330   2.30998
    A8        1.83392   0.00969   0.00000   0.01682   0.01673   1.85066
    A9        2.30024  -0.00533   0.00000  -0.00958  -0.00954   2.29070
   A10        2.14902  -0.00436   0.00000  -0.00723  -0.00719   2.14183
   A11        1.93603  -0.00260   0.00000  -0.00108  -0.00108   1.93495
   A12        1.86512   0.06115   0.00000   0.10681   0.10681   1.97194
   A13        2.48203  -0.05855   0.00000  -0.10573  -0.10573   2.37630
   A14        1.81127   0.05508   0.00000   0.09781   0.09781   1.90907
   A15        2.01199  -0.01588   0.00000  -0.02819  -0.02819   1.98380
   A16        2.45993  -0.03920   0.00000  -0.06961  -0.06961   2.39031
   A17        2.35643  -0.04761   0.00000  -0.11556  -0.11556   2.24087
    D1       -0.00004   0.00001   0.00000   0.00003   0.00003  -0.00001
    D2        3.14150  -0.00000   0.00000  -0.00003  -0.00003   3.14147
    D3        0.00003   0.00001   0.00000   0.00006   0.00006   0.00009
    D4       -3.14132   0.00000   0.00000  -0.00005  -0.00006  -3.14138
    D5        0.00004  -0.00002   0.00000  -0.00010  -0.00010  -0.00006
    D6       -3.14153  -0.00001   0.00000  -0.00005  -0.00005  -3.14159
    D7       -3.14150  -0.00001   0.00000  -0.00003  -0.00003  -3.14153
    D8        0.00012   0.00000   0.00000   0.00002   0.00002   0.00013
    D9       -0.00002   0.00002   0.00000   0.00013   0.00013   0.00011
   D10        3.14155   0.00001   0.00000   0.00006   0.00005  -3.14159
   D11        3.14155   0.00001   0.00000   0.00008   0.00008  -3.14156
   D12       -0.00007   0.00000   0.00000  -0.00000  -0.00000  -0.00007
   D13       -0.00000  -0.00002   0.00000  -0.00012  -0.00012  -0.00013
   D14        3.14121   0.00002   0.00000   0.00011   0.00010   3.14131
   D15       -3.14158  -0.00001   0.00000  -0.00005  -0.00005   3.14156
   D16       -0.00036   0.00003   0.00000   0.00018   0.00017  -0.00019
   D17        0.00018   0.00015   0.00000   0.00094   0.00095   0.00113
   D18       -3.14138   0.00004   0.00000   0.00031   0.00030  -3.14108
   D19       -3.14104   0.00011   0.00000   0.00073   0.00074  -3.14030
   D20        0.00059   0.00000   0.00000   0.00010   0.00009   0.00068
   D21       -0.02231   0.00018   0.00000   0.00082   0.00084  -0.02148
   D22        3.11923   0.00034   0.00000   0.00172   0.00170   3.12094
         Item               Value     Threshold  Converged?
 Maximum Force            0.105177     0.000450     NO 
 RMS     Force            0.024369     0.000300     NO 
 Maximum Displacement     0.513374     0.001800     NO 
 RMS     Displacement     0.120768     0.001200     NO 
 Predicted change in Energy=-3.950782D-02
 GradGradGradGradGradGradGradGradGradGradGradGradGradGradGradGradGradGrad

                          Input orientation:                          
 ---------------------------------------------------------------------
 Center     Atomic      Atomic             Coordinates (Angstroms)
 Number     Number       Type             X           Y           Z
 ---------------------------------------------------------------------
      1          7           0       -0.668700   -0.982399    0.000673
      2          7           0       -1.945112   -0.721118    0.000137
      3          6           0       -2.188210    0.603166   -0.000480
      4          6           0       -0.938080    1.184272   -0.000210
      5          7           0       -0.053812    0.165806    0.000399
      6          1           0       -3.184287    1.020180   -0.000978
      7          1           0       -0.634684    2.220685   -0.000491
      8          1           0       -2.616221   -1.490416    0.000122
      9          1           0        1.251910   -2.051390    0.017065
     10          6           0        1.599258    0.015766    0.000697
     11          8           0        1.905844   -1.196244   -0.000203
     12          8           0        2.169639    1.051162    0.001011
 ---------------------------------------------------------------------
                    Distance matrix (angstroms):
                    1          2          3          4          5
     1  N    0.000000
     2  N    1.302880   0.000000
     3  C    2.196117   1.346412   0.000000
     4  C    2.183353   2.155139   1.378590   0.000000
     5  N    1.302483   2.088935   2.178747   1.348778   0.000000
     6  H    3.215355   2.137212   1.079847   2.252193   3.244970
     7  H    3.203265   3.220470   2.242725   1.079908   2.135402
     8  H    2.012690   1.020885   2.136885   3.157548   3.051067
     9  H    2.198124   3.462782   4.345273   3.907155   2.573158
    10  C    2.477896   3.620160   3.832748   2.793473   1.659865
    11  O    2.583410   3.880156   4.472042   3.708740   2.386510
    12  O    3.491639   4.480196   4.380817   3.110568   2.393239
                    6          7          8          9         10
     6  H    0.000000
     7  H    2.818101   0.000000
     8  H    2.574061   4.206990   0.000000
     9  H    5.395805   4.670136   3.908634   0.000000
    10  C    4.887858   3.138816   4.476478   2.096199   0.000000
    11  O    5.551754   4.257897   4.531624   1.076663   1.250185
    12  O    5.354016   3.038423   5.418863   3.235477   1.182108
                   11         12
    11  O    0.000000
    12  O    2.262835   0.000000
 Stoichiometry    C3H4N3O2(1+)
 Framework group  C1[X(C3H4N3O2)]
 Deg. of freedom    30
 Full point group                 C1      NOp   1
 Largest Abelian subgroup         C1      NOp   1
 Largest concise Abelian subgroup C1      NOp   1
                         Standard orientation:                         
 ---------------------------------------------------------------------
 Center     Atomic      Atomic             Coordinates (Angstroms)
 Number     Number       Type             X           Y           Z
 ---------------------------------------------------------------------
      1          7           0       -0.631905   -0.978438   -0.000253
      2          7           0       -1.915742   -0.756495   -0.000270
      3          6           0       -2.199410    0.559695   -0.000004
      4          6           0       -0.967723    1.178934    0.000274
      5          7           0       -0.052583    0.188116    0.000009
      6          1           0       -3.207829    0.945911    0.000033
      7          1           0       -0.696311    2.224179    0.000547
      8          1           0       -2.562900   -1.546047   -0.000572
      9          1           0        1.320645   -1.987928    0.014944
     10          6           0        1.604317    0.088933   -0.000248
     11          8           0        1.947993   -1.113085   -0.001980
     12          8           0        2.142619    1.141363    0.000545
 ---------------------------------------------------------------------
 Rotational constants (GHZ):           5.3012612           1.6282619           1.2456635
 Standard basis: 6-31+G(d,p) (6D, 7F)
 There are   172 symmetry adapted cartesian basis functions of A   symmetry.
 There are   172 symmetry adapted basis functions of A   symmetry.
   172 basis functions,   284 primitive gaussians,   172 cartesian basis functions
    29 alpha electrons       29 beta electrons
       nuclear repulsion energy       369.7364619515 Hartrees.
 NAtoms=   12 NActive=   12 NUniq=   12 SFac= 1.00D+00 NAtFMM=   60 NAOKFM=F Big=F
 Integral buffers will be    131072 words long.
 Raffenetti 2 integral format.
 Two-electron integral symmetry is turned on.
 One-electron integrals computed using PRISM.
 NBasis=   172 RedAO= T EigKep=  2.75D-05  NBF=   172
 NBsUse=   172 1.00D-06 EigRej= -1.00D+00 NBFU=   172
 Initial guess from the checkpoint file:  "/scratch/gongke2021/2-H-1-H-Tz-PC/Gau-4375.chk"
 B after Tr=    -0.000000    0.000000    0.000000
         Rot=    0.999930    0.000017   -0.000013   -0.011853 Ang=   1.36 deg.
 ExpMin= 4.38D-02 ExpMax= 5.48D+03 ExpMxC= 8.25D+02 IAcc=2 IRadAn=         4 AccDes= 0.00D+00
 Harris functional with IExCor= 1009 and IRadAn=       4 diagonalized for initial guess.
 HarFok:  IExCor= 1009 AccDes= 0.00D+00 IRadAn=         4 IDoV= 1 UseB2=F ITyADJ=14
 ICtDFT=  3500011 ScaDFX=  1.000000  1.000000  1.000000  1.000000
 FoFCou: FMM=F IPFlag=           0 FMFlag=      100000 FMFlg1=           0
         NFxFlg=           0 DoJE=T BraDBF=F KetDBF=T FulRan=T
         wScrn=  0.000000 ICntrl=       500 IOpCl=  0 I1Cent=   200000004 NGrid=           0
         NMat0=    1 NMatS0=      1 NMatT0=    0 NMatD0=    1 NMtDS0=    0 NMtDT0=    0
 Petite list used in FoFCou.
 Keep R1 ints in memory in canonical form, NReq=134699993.
 Requested convergence on RMS density matrix=1.00D-08 within 128 cycles.
 Requested convergence on MAX density matrix=1.00D-06.
 Requested convergence on             energy=1.00D-06.
 No special actions if energy rises.
 SCF Done:  E(RM062X) =  -430.958980802     A.U. after   12 cycles
            NFock= 12  Conv=0.82D-08     -V/T= 2.0086
 Calling FoFJK, ICntrl=      2127 FMM=F ISym2X=0 I1Cent= 0 IOpClX= 0 NMat=1 NMatS=1 NMatT=0.
 ***** Axes restored to original set *****
 -------------------------------------------------------------------
 Center     Atomic                   Forces (Hartrees/Bohr)
 Number     Number              X              Y              Z
 -------------------------------------------------------------------
      1        7           0.000140141   -0.014264288    0.000029601
      2        7           0.004609594   -0.000442377    0.000027180
      3        6           0.000854651    0.008544578   -0.000003445
      4        6           0.000910638    0.014512753   -0.000017841
      5        7           0.006106178   -0.027402960    0.000018496
      6        1           0.000724961    0.001096080   -0.000008189
      7        1           0.000473153    0.000325304   -0.000004036
      8        1           0.003093567    0.001373828    0.000000102
      9        1           0.031953957    0.067674154   -0.001242689
     10        6          -0.035714201    0.058844395    0.000473226
     11        8          -0.008304725   -0.087615286    0.000924264
     12        8          -0.004847914   -0.022646180   -0.000196670
 -------------------------------------------------------------------
 Cartesian Forces:  Max     0.087615286 RMS     0.023532059

 GradGradGradGradGradGradGradGradGradGradGradGradGradGradGradGradGradGrad
 Berny optimization.
 Using GEDIIS/GDIIS optimizer.
 FormGI is forming the generalized inverse of G from B-inverse, IUseBI=4.
 Internal  Forces:  Max     0.073181442 RMS     0.013639733
 Search for a local minimum.
 Step number   2 out of a maximum of   61
 All quantities printed in internal units (Hartrees-Bohrs-Radians)
 Mixed Optimization -- RFO/linear search
 Update second derivatives using D2CorX and points    1    2
 DE= -3.58D-02 DEPred=-3.95D-02 R= 9.05D-01
 TightC=F SS=  1.41D+00  RLast= 3.00D-01 DXNew= 5.0454D-01 9.0003D-01
 Trust test= 9.05D-01 RLast= 3.00D-01 DXMaxT set to 5.05D-01
 ITU=  1  0
 Use linear search instead of GDIIS.
     Eigenvalues ---    0.00230   0.01608   0.01899   0.02305   0.02376
     Eigenvalues ---    0.02408   0.02494   0.02605   0.03752   0.13324
     Eigenvalues ---    0.16000   0.16000   0.16003   0.18850   0.22221
     Eigenvalues ---    0.22973   0.24437   0.25000   0.25352   0.36035
     Eigenvalues ---    0.36040   0.42807   0.43639   0.46217   0.53130
     Eigenvalues ---    0.56459   0.65170   0.67213   0.86059   1.07769
 RFO step:  Lambda=-5.22165633D-02 EMin= 2.30001195D-03
 Quartic linear search produced a step of  1.30003.
 Iteration  1 RMS(Cart)=  0.11742462 RMS(Int)=  0.05152322
 Iteration  2 RMS(Cart)=  0.04915427 RMS(Int)=  0.02175971
 Iteration  3 RMS(Cart)=  0.01982299 RMS(Int)=  0.00025992
 Iteration  4 RMS(Cart)=  0.00028280 RMS(Int)=  0.00017308
 Iteration  5 RMS(Cart)=  0.00000018 RMS(Int)=  0.00017308
 Variable       Old X    -DE/DX   Delta X   Delta X   Delta X     New X
                                 (Linear)    (Quad)   (Total)
    R1        2.46209   0.00061   0.00906  -0.00645   0.00285   2.46494
    R2        2.46134   0.00304   0.02333  -0.01257   0.01105   2.47238
    R3        2.54435   0.01004   0.00720   0.02829   0.03536   2.57971
    R4        1.92919  -0.00307  -0.01055  -0.00408  -0.01463   1.91456
    R5        2.60516  -0.00738  -0.02621  -0.00709  -0.03365   2.57151
    R6        2.04062  -0.00025   0.00059  -0.00183  -0.00124   2.03937
    R7        2.54882   0.00558   0.02570  -0.00440   0.02126   2.57008
    R8        2.04073   0.00044   0.00062   0.00179   0.00241   2.04314
    R9        3.13669  -0.01831   0.06269  -0.20223  -0.13954   2.99715
   R10        2.03460  -0.07318  -0.22915  -0.29662  -0.52577   1.50882
   R11        2.36251   0.02513   0.01459   0.04661   0.06119   2.42370
   R12        2.23386  -0.02217  -0.02608  -0.01734  -0.04343   2.19043
    A1        1.86054  -0.01283  -0.03760  -0.05881  -0.09571   1.76483
    A2        1.95426   0.00705   0.04348   0.01855   0.06209   2.01634
    A3        2.08622  -0.00491  -0.02617  -0.01993  -0.04613   2.04009
    A4        2.24271  -0.00214  -0.01731   0.00138  -0.01595   2.22675
    A5        1.82437  -0.00071  -0.02622   0.01387  -0.01284   1.81153
    A6        2.14883   0.00167   0.02193  -0.00048   0.02170   2.17053
    A7        2.30998  -0.00096   0.00429  -0.01339  -0.00885   2.30113
    A8        1.85066  -0.00444   0.02175  -0.05498  -0.03365   1.81701
    A9        2.29070   0.00259  -0.01241   0.03250   0.02031   2.31100
   A10        2.14183   0.00185  -0.00935   0.02248   0.01335   2.15517
   A11        1.93495   0.01093  -0.00141   0.08137   0.08012   2.01507
   A12        1.97194   0.01540   0.13886  -0.00894   0.12984   2.10178
   A13        2.37630  -0.02633  -0.13745  -0.07243  -0.20997   2.16633
   A14        1.90907   0.00212   0.12715  -0.09430   0.03284   1.94192
   A15        1.98380   0.00640  -0.03665   0.07786   0.04121   2.02501
   A16        2.39031  -0.00852  -0.09050   0.01644  -0.07406   2.31626
   A17        2.24087  -0.03199  -0.15023  -0.20890  -0.35913   1.88174
    D1       -0.00001   0.00001   0.00004   0.00015   0.00017   0.00016
    D2        3.14147  -0.00000  -0.00005  -0.00002  -0.00007   3.14139
    D3        0.00009  -0.00000   0.00008  -0.00004   0.00006   0.00015
    D4       -3.14138  -0.00001  -0.00008  -0.00031  -0.00050   3.14130
    D5       -0.00006  -0.00001  -0.00013  -0.00020  -0.00032  -0.00038
    D6       -3.14159  -0.00001  -0.00007  -0.00016  -0.00024   3.14136
    D7       -3.14153  -0.00000  -0.00004  -0.00001  -0.00005  -3.14158
    D8        0.00013   0.00000   0.00002   0.00003   0.00004   0.00017
    D9        0.00011   0.00001   0.00017   0.00016   0.00031   0.00042
   D10       -3.14159   0.00000   0.00007   0.00010   0.00014  -3.14145
   D11       -3.14156   0.00001   0.00010   0.00012   0.00022  -3.14135
   D12       -0.00007   0.00000  -0.00000   0.00006   0.00005  -0.00003
   D13       -0.00013  -0.00000  -0.00016  -0.00008  -0.00025  -0.00038
   D14        3.14131   0.00001   0.00013   0.00029   0.00037  -3.14151
   D15        3.14156  -0.00000  -0.00007  -0.00003  -0.00010   3.14146
   D16       -0.00019   0.00001   0.00022   0.00034   0.00052   0.00033
   D17        0.00113   0.00008   0.00123   0.00245   0.00375   0.00488
   D18       -3.14108   0.00000   0.00039   0.00040   0.00071  -3.14036
   D19       -3.14030   0.00007   0.00096   0.00207   0.00310  -3.13720
   D20        0.00068  -0.00001   0.00012   0.00002   0.00007   0.00075
   D21       -0.02148   0.00018   0.00109   0.00327   0.00447  -0.01701
   D22        3.12094   0.00028   0.00222   0.00601   0.00811   3.12905
         Item               Value     Threshold  Converged?
 Maximum Force            0.073181     0.000450     NO 
 RMS     Force            0.013640     0.000300     NO 
 Maximum Displacement     0.679234     0.001800     NO 
 RMS     Displacement     0.153301     0.001200     NO 
 Predicted change in Energy=-2.722178D-02
 GradGradGradGradGradGradGradGradGradGradGradGradGradGradGradGradGradGrad

                          Input orientation:                          
 ---------------------------------------------------------------------
 Center     Atomic      Atomic             Coordinates (Angstroms)
 Number     Number       Type             X           Y           Z
 ---------------------------------------------------------------------
      1          7           0       -0.743253   -1.147460    0.002860
      2          7           0       -1.979524   -0.731448    0.001287
      3          6           0       -2.144223    0.623703   -0.001142
      4          6           0       -0.871473    1.105204   -0.000568
      5          7           0       -0.094718   -0.011183    0.001573
      6          1           0       -3.102061    1.120890   -0.002864
      7          1           0       -0.471910    2.109849   -0.001691
      8          1           0       -2.701985   -1.441734    0.001673
      9          1           0        1.357603   -1.691955    0.010541
     10          6           0        1.491186    0.008404    0.003134
     11          8           0        1.971050   -1.181008   -0.000186
     12          8           0        1.986854    1.056207    0.003124
 ---------------------------------------------------------------------
                    Distance matrix (angstroms):
                    1          2          3          4          5
     1  N    0.000000
     2  N    1.304390   0.000000
     3  C    2.258263   1.365125   0.000000
     4  C    2.256312   2.145011   1.360785   0.000000
     5  N    1.308329   2.017740   2.145590   1.360026   0.000000
     6  H    3.272525   2.165932   1.079190   2.230645   3.213366
     7  H    3.268594   3.216500   2.237243   1.081186   2.154311
     8  H    1.980715   1.013142   2.139424   3.136506   2.973940
     9  H    2.170283   3.472617   4.198237   3.576730   2.221331
    10  C    2.515698   3.548691   3.687114   2.604830   1.586025
    11  O    2.714512   3.976071   4.493601   3.647835   2.374003
    12  O    3.508508   4.350617   4.153658   2.858749   2.339287
                    6          7          8          9         10
     6  H    0.000000
     7  H    2.809935   0.000000
     8  H    2.593669   4.193684   0.000000
     9  H    5.272654   4.219120   4.067302   0.000000
    10  C    4.726053   2.875733   4.436844   1.705614   0.000000
    11  O    5.570924   4.098511   4.680304   0.798436   1.282568
    12  O    5.089330   2.675015   5.312713   2.819291   1.159128
                   11         12
    11  O    0.000000
    12  O    2.237273   0.000000
 Stoichiometry    C3H4N3O2(1+)
 Framework group  C1[X(C3H4N3O2)]
 Deg. of freedom    30
 Full point group                 C1      NOp   1
 Largest Abelian subgroup         C1      NOp   1
 Largest concise Abelian subgroup C1      NOp   1
                         Standard orientation:                         
 ---------------------------------------------------------------------
 Center     Atomic      Atomic             Coordinates (Angstroms)
 Number     Number       Type             X           Y           Z
 ---------------------------------------------------------------------
      1          7           0       -0.681758   -1.100807    0.001247
      2          7           0       -1.927394   -0.713735    0.000532
      3          6           0       -2.123648    0.637208   -0.001044
      4          6           0       -0.862472    1.148256   -0.000836
      5          7           0       -0.059896    0.050284    0.000280
      6          1           0       -3.092821    1.111926   -0.002002
      7          1           0       -0.486444    2.161944   -0.001589
      8          1           0       -2.633097   -1.440674    0.000878
      9          1           0        1.431226   -1.596171    0.007563
     10          6           0        1.525121    0.106844    0.001055
     11          8           0        2.032587   -1.071053   -0.003182
     12          8           0        1.996222    1.165920    0.001392
 ---------------------------------------------------------------------
 Rotational constants (GHZ):           5.2845906           1.6951383           1.2834490
 Standard basis: 6-31+G(d,p) (6D, 7F)
 There are   172 symmetry adapted cartesian basis functions of A   symmetry.
 There are   172 symmetry adapted basis functions of A   symmetry.
   172 basis functions,   284 primitive gaussians,   172 cartesian basis functions
    29 alpha electrons       29 beta electrons
       nuclear repulsion energy       374.4382351868 Hartrees.
 NAtoms=   12 NActive=   12 NUniq=   12 SFac= 1.00D+00 NAtFMM=   60 NAOKFM=F Big=F
 Integral buffers will be    131072 words long.
 Raffenetti 2 integral format.
 Two-electron integral symmetry is turned on.
 One-electron integrals computed using PRISM.
 NBasis=   172 RedAO= T EigKep=  2.59D-05  NBF=   172
 NBsUse=   172 1.00D-06 EigRej= -1.00D+00 NBFU=   172
 Initial guess from the checkpoint file:  "/scratch/gongke2021/2-H-1-H-Tz-PC/Gau-4375.chk"
 B after Tr=     0.000000    0.000000    0.000000
         Rot=    0.999999    0.000055    0.000017   -0.001062 Ang=   0.12 deg.
 ExpMin= 4.38D-02 ExpMax= 5.48D+03 ExpMxC= 8.25D+02 IAcc=2 IRadAn=         4 AccDes= 0.00D+00
 Harris functional with IExCor= 1009 and IRadAn=       4 diagonalized for initial guess.
 HarFok:  IExCor= 1009 AccDes= 0.00D+00 IRadAn=         4 IDoV= 1 UseB2=F ITyADJ=14
 ICtDFT=  3500011 ScaDFX=  1.000000  1.000000  1.000000  1.000000
 FoFCou: FMM=F IPFlag=           0 FMFlag=      100000 FMFlg1=           0
         NFxFlg=           0 DoJE=T BraDBF=F KetDBF=T FulRan=T
         wScrn=  0.000000 ICntrl=       500 IOpCl=  0 I1Cent=   200000004 NGrid=           0
         NMat0=    1 NMatS0=      1 NMatT0=    0 NMatD0=    1 NMtDS0=    0 NMtDT0=    0
 Petite list used in FoFCou.
 Keep R1 ints in memory in canonical form, NReq=134699993.
 Requested convergence on RMS density matrix=1.00D-08 within 128 cycles.
 Requested convergence on MAX density matrix=1.00D-06.
 Requested convergence on             energy=1.00D-06.
 No special actions if energy rises.
 SCF Done:  E(RM062X) =  -430.931727592     A.U. after   14 cycles
            NFock= 14  Conv=0.64D-08     -V/T= 2.0069
 Calling FoFJK, ICntrl=      2127 FMM=F ISym2X=0 I1Cent= 0 IOpClX= 0 NMat=1 NMatS=1 NMatT=0.
 ***** Axes restored to original set *****
 -------------------------------------------------------------------
 Center     Atomic                   Forces (Hartrees/Bohr)
 Number     Number              X              Y              Z
 -------------------------------------------------------------------
      1        7          -0.008995418    0.031495693   -0.000071247
      2        7          -0.016587164   -0.010107964   -0.000018491
      3        6          -0.001557748   -0.012509277    0.000049681
      4        6           0.008710177   -0.003028576   -0.000001874
      5        7           0.042573520   -0.001108220    0.000171477
      6        1          -0.001468109   -0.002320728    0.000001509
      7        1           0.002456647   -0.001339600    0.000002309
      8        1          -0.005095931   -0.002101543   -0.000002104
      9        1          -0.234357752   -0.225427215    0.004043339
     10        6          -0.030553510    0.005893577   -0.000440224
     11        8           0.231951452    0.192737762   -0.003777101
     12        8           0.012923836    0.027816092    0.000042725
 -------------------------------------------------------------------
 Cartesian Forces:  Max     0.234357752 RMS     0.074941422

 GradGradGradGradGradGradGradGradGradGradGradGradGradGradGradGradGradGrad
 Berny optimization.
 Using GEDIIS/GDIIS optimizer.
 FormGI is forming the generalized inverse of G from B-inverse, IUseBI=4.
 Internal  Forces:  Max     0.324376936 RMS     0.046581509
 Search for a local minimum.
 Step number   3 out of a maximum of   61
 All quantities printed in internal units (Hartrees-Bohrs-Radians)
 Mixed Optimization -- RFO/linear search
 Update second derivatives using D2CorX and points    1    3    2
 DE=  2.73D-02 DEPred=-2.72D-02 R=-1.00D+00
 Trust test=-1.00D+00 RLast= 7.26D-01 DXMaxT set to 2.52D-01
 ITU= -1  1  0
 Use linear search instead of GDIIS.
     Eigenvalues ---    0.00230   0.01644   0.01737   0.02305   0.02375
     Eigenvalues ---    0.02415   0.02493   0.02601   0.03752   0.13754
     Eigenvalues ---    0.16000   0.16001   0.16006   0.20086   0.22321
     Eigenvalues ---    0.23564   0.24564   0.25000   0.36035   0.36040
     Eigenvalues ---    0.41953   0.43569   0.45637   0.52008   0.56419
     Eigenvalues ---    0.64984   0.66767   0.72772   0.87977   1.08561
 RFO step:  Lambda=-2.87935512D-02 EMin= 2.30000141D-03
 Quartic linear search produced a step of -0.54783.
 Maximum step size (   0.252) exceeded in Quadratic search.
    -- Step size scaled by   0.674
 Iteration  1 RMS(Cart)=  0.02972983 RMS(Int)=  0.01965342
 Iteration  2 RMS(Cart)=  0.01764681 RMS(Int)=  0.00009475
 Iteration  3 RMS(Cart)=  0.00011672 RMS(Int)=  0.00006528
 Iteration  4 RMS(Cart)=  0.00000003 RMS(Int)=  0.00006528
 Variable       Old X    -DE/DX   Delta X   Delta X   Delta X     New X
                                 (Linear)    (Quad)   (Total)
    R1        2.46494   0.00095  -0.00156   0.00135  -0.00029   2.46465
    R2        2.47238  -0.00222  -0.00605   0.00316  -0.00302   2.46937
    R3        2.57971  -0.00894  -0.01937   0.01027  -0.00903   2.57068
    R4        1.91456   0.00511   0.00802  -0.00312   0.00489   1.91945
    R5        2.57151   0.01871   0.01843  -0.00316   0.01539   2.58690
    R6        2.03937   0.00023   0.00068  -0.00041   0.00027   2.03964
    R7        2.57008  -0.00636  -0.01164   0.00545  -0.00620   2.56388
    R8        2.04314  -0.00034  -0.00132   0.00087  -0.00045   2.04269
    R9        2.99715  -0.02003   0.07644  -0.10383  -0.02739   2.96977
   R10        1.50882   0.32438   0.28804   0.05268   0.34072   1.84954
   R11        2.42370   0.02942  -0.03352   0.03308  -0.00044   2.42326
   R12        2.19043   0.03067   0.02379  -0.00775   0.01604   2.20648
    A1        1.76483   0.02415   0.05244  -0.02480   0.02739   1.79222
    A2        2.01634  -0.01688  -0.03401   0.01371  -0.02029   1.99605
    A3        2.04009   0.01043   0.02527  -0.01318   0.01209   2.05218
    A4        2.22675   0.00645   0.00874  -0.00054   0.00820   2.23495
    A5        1.81153   0.00520   0.00704   0.00019   0.00743   1.81895
    A6        2.17053  -0.00538  -0.01189   0.00497  -0.00702   2.16351
    A7        2.30113   0.00019   0.00485  -0.00515  -0.00040   2.30073
    A8        1.81701   0.00355   0.01843  -0.01464   0.00393   1.82094
    A9        2.31100   0.00107  -0.01112   0.01400   0.00280   2.31381
   A10        2.15517  -0.00462  -0.00731   0.00064  -0.00674   2.14844
   A11        2.01507  -0.01601  -0.04389   0.02553  -0.01846   1.99661
   A12        2.10178   0.01010  -0.07113   0.07659   0.00551   2.10729
   A13        2.16633   0.00591   0.11503  -0.10212   0.01295   2.17928
   A14        1.94192   0.00014  -0.01799   0.01486  -0.00313   1.93878
   A15        2.02501  -0.00030  -0.02257   0.02230  -0.00027   2.02474
   A16        2.31626   0.00016   0.04057  -0.03718   0.00339   2.31965
   A17        1.88174   0.03505   0.19674  -0.16815   0.02860   1.91034
    D1        0.00016  -0.00001  -0.00009   0.00017   0.00009   0.00024
    D2        3.14139   0.00000   0.00004  -0.00012  -0.00008   3.14132
    D3        0.00015  -0.00000  -0.00003   0.00011   0.00007   0.00022
    D4        3.14130   0.00000   0.00028  -0.00082  -0.00050   3.14080
    D5       -0.00038   0.00001   0.00018  -0.00038  -0.00020  -0.00059
    D6        3.14136   0.00001   0.00013  -0.00030  -0.00017   3.14120
    D7       -3.14158   0.00001   0.00002  -0.00004  -0.00002   3.14159
    D8        0.00017  -0.00000  -0.00002   0.00003   0.00002   0.00019
    D9        0.00042  -0.00001  -0.00017   0.00038   0.00023   0.00065
   D10       -3.14145  -0.00000  -0.00008   0.00018   0.00012  -3.14133
   D11       -3.14135  -0.00000  -0.00012   0.00030   0.00019  -3.14116
   D12       -0.00003   0.00001  -0.00002   0.00010   0.00008   0.00005
   D13       -0.00038   0.00001   0.00014  -0.00034  -0.00019  -0.00057
   D14       -3.14151   0.00001  -0.00020   0.00059   0.00040  -3.14111
   D15        3.14146   0.00001   0.00006  -0.00016  -0.00010   3.14136
   D16        0.00033  -0.00000  -0.00028   0.00076   0.00050   0.00083
   D17        0.00488  -0.00009  -0.00205   0.00652   0.00444   0.00932
   D18       -3.14036   0.00005  -0.00039   0.00253   0.00218  -3.13819
   D19       -3.13720  -0.00008  -0.00170   0.00554   0.00381  -3.13339
   D20        0.00075   0.00006  -0.00004   0.00155   0.00154   0.00228
   D21       -0.01701   0.00019  -0.00245   0.00569   0.00319  -0.01382
   D22        3.12905   0.00002  -0.00444   0.01037   0.00598   3.13503
         Item               Value     Threshold  Converged?
 Maximum Force            0.324377     0.000450     NO 
 RMS     Force            0.046582     0.000300     NO 
 Maximum Displacement     0.211061     0.001800     NO 
 RMS     Displacement     0.046853     0.001200     NO 
 Predicted change in Energy=-4.228497D-02
 GradGradGradGradGradGradGradGradGradGradGradGradGradGradGradGradGradGrad

                          Input orientation:                          
 ---------------------------------------------------------------------
 Center     Atomic      Atomic             Coordinates (Angstroms)
 Number     Number       Type             X           Y           Z
 ---------------------------------------------------------------------
      1          7           0       -0.721869   -1.121359    0.004866
      2          7           0       -1.968019   -0.736471    0.002480
      3          6           0       -2.138546    0.613139   -0.001794
      4          6           0       -0.864168    1.113070   -0.001297
      5          7           0       -0.071455    0.012003    0.002358
      6          1           0       -3.102293    1.099081   -0.004568
      7          1           0       -0.474118    2.121187   -0.003479
      8          1           0       -2.683051   -1.457884    0.003513
      9          1           0        1.245914   -1.800424    0.006122
     10          6           0        1.499886    0.036370    0.005002
     11          8           0        1.979700   -1.152796   -0.001507
     12          8           0        1.995564    1.093552    0.006044
 ---------------------------------------------------------------------
                    Distance matrix (angstroms):
                    1          2          3          4          5
     1  N    0.000000
     2  N    1.304238   0.000000
     3  C    2.239531   1.360347   0.000000
     4  C    2.238964   2.153904   1.368930   0.000000
     5  N    1.306734   2.038913   2.152730   1.356744   0.000000
     6  H    3.255282   2.157748   1.079331   2.238171   3.219901
     7  H    3.252008   3.224590   2.246003   1.080946   2.147284
     8  H    1.989846   1.015731   2.141413   3.149312   2.996832
     9  H    2.081658   3.385466   4.156912   3.597353   2.240618
    10  C    2.505301   3.552979   3.683870   2.597706   1.571533
    11  O    2.701759   3.969613   4.480901   3.636170   2.358815
    12  O    3.505748   4.365660   4.161937   2.859808   2.332880
                    6          7          8          9         10
     6  H    0.000000
     7  H    2.819930   0.000000
     8  H    2.591120   4.205851   0.000000
     9  H    5.226294   4.282247   3.943870   0.000000
    10  C    4.723293   2.871103   4.441820   1.854270   0.000000
    11  O    5.558562   4.091478   4.672724   0.978735   1.282333
    12  O    5.097871   2.674968   5.329097   2.989494   1.167618
                   11         12
    11  O    0.000000
    12  O    2.246417   0.000000
 Stoichiometry    C3H4N3O2(1+)
 Framework group  C1[X(C3H4N3O2)]
 Deg. of freedom    30
 Full point group                 C1      NOp   1
 Largest Abelian subgroup         C1      NOp   1
 Largest concise Abelian subgroup C1      NOp   1
                         Standard orientation:                         
 ---------------------------------------------------------------------
 Center     Atomic      Atomic             Coordinates (Angstroms)
 Number     Number       Type             X           Y           Z
 ---------------------------------------------------------------------
      1          7           0       -0.683857   -1.080365    0.002929
      2          7           0       -1.934086   -0.708932    0.001511
      3          6           0       -2.119153    0.638763   -0.002138
      4          6           0       -0.850238    1.152402   -0.002292
      5          7           0       -0.045700    0.059942    0.000423
      6          1           0       -3.088084    1.114289   -0.004092
      7          1           0       -0.471079    2.164666   -0.004347
      8          1           0       -2.641299   -1.438011    0.002740
      9          1           0        1.291131   -1.738180    0.002630
     10          6           0        1.525289    0.101245    0.002041
     11          8           0        2.017888   -1.082677   -0.005237
     12          8           0        2.009542    1.163709    0.003157
 ---------------------------------------------------------------------
 Rotational constants (GHZ):           5.2720746           1.6984955           1.2846351
 Standard basis: 6-31+G(d,p) (6D, 7F)
 There are   172 symmetry adapted cartesian basis functions of A   symmetry.
 There are   172 symmetry adapted basis functions of A   symmetry.
   172 basis functions,   284 primitive gaussians,   172 cartesian basis functions
    29 alpha electrons       29 beta electrons
       nuclear repulsion energy       373.4339662927 Hartrees.
 NAtoms=   12 NActive=   12 NUniq=   12 SFac= 1.00D+00 NAtFMM=   60 NAOKFM=F Big=F
 Integral buffers will be    131072 words long.
 Raffenetti 2 integral format.
 Two-electron integral symmetry is turned on.
 One-electron integrals computed using PRISM.
 NBasis=   172 RedAO= T EigKep=  2.57D-05  NBF=   172
 NBsUse=   172 1.00D-06 EigRej= -1.00D+00 NBFU=   172
 Lowest energy guess from the checkpoint file:  "/scratch/gongke2021/2-H-1-H-Tz-PC/Gau-4375.chk"
 B after Tr=     0.000000   -0.000000    0.000000
         Rot=    0.999997    0.000006    0.000045    0.002276 Ang=   0.26 deg.
 B after Tr=    -0.000000   -0.000000   -0.000000
         Rot=    0.999995   -0.000003    0.000002    0.003269 Ang=  -0.37 deg.
 Keep R1 ints in memory in canonical form, NReq=134699993.
 Requested convergence on RMS density matrix=1.00D-08 within 128 cycles.
 Requested convergence on MAX density matrix=1.00D-06.
 Requested convergence on             energy=1.00D-06.
 No special actions if energy rises.
 SCF Done:  E(RM062X) =  -430.978630127     A.U. after   13 cycles
            NFock= 13  Conv=0.40D-08     -V/T= 2.0081
 Calling FoFJK, ICntrl=      2127 FMM=F ISym2X=0 I1Cent= 0 IOpClX= 0 NMat=1 NMatS=1 NMatT=0.
 ***** Axes restored to original set *****
 -------------------------------------------------------------------
 Center     Atomic                   Forces (Hartrees/Bohr)
 Number     Number              X              Y              Z
 -------------------------------------------------------------------
      1        7          -0.004715625    0.018764449   -0.000054988
      2        7          -0.007575546   -0.005750452   -0.000051839
      3        6           0.000936498   -0.005212796    0.000068446
      4        6           0.002103345   -0.002336505   -0.000013990
      5        7           0.024666571    0.000549103    0.000259476
      6        1          -0.001000919   -0.001505354    0.000008145
      7        1           0.001638056   -0.000735486    0.000004376
      8        1          -0.002718828   -0.001034325   -0.000001146
      9        1           0.010752931   -0.006704890   -0.000176114
     10        6          -0.024804956    0.007626480   -0.000681673
     11        8          -0.006130201   -0.017879445    0.000416171
     12        8           0.006848676    0.014219222    0.000223137
 -------------------------------------------------------------------
 Cartesian Forces:  Max     0.024804956 RMS     0.008445246

 GradGradGradGradGradGradGradGradGradGradGradGradGradGradGradGradGradGrad
 Berny optimization.
 Using GEDIIS/GDIIS optimizer.
 FormGI is forming the generalized inverse of G from B-inverse, IUseBI=4.
 Internal  Forces:  Max     0.024529033 RMS     0.006489264
 Search for a local minimum.
 Step number   4 out of a maximum of   61
 All quantities printed in internal units (Hartrees-Bohrs-Radians)
 Mixed Optimization -- RFO/linear search
 Update second derivatives using D2CorX and points    3    2    4
 DE= -1.96D-02 DEPred=-4.23D-02 R= 4.65D-01
 Trust test= 4.65D-01 RLast= 5.05D-01 DXMaxT set to 2.52D-01
 ITU=  0 -1  1  0
 Use linear search instead of GDIIS.
     Eigenvalues ---    0.00230   0.01631   0.01743   0.02305   0.02374
     Eigenvalues ---    0.02413   0.02493   0.02602   0.03751   0.12784
     Eigenvalues ---    0.16000   0.16001   0.16102   0.19114   0.22302
     Eigenvalues ---    0.24512   0.24994   0.27145   0.36035   0.36040
     Eigenvalues ---    0.41995   0.43571   0.45959   0.51927   0.56518
     Eigenvalues ---    0.57410   0.65279   0.67194   0.86301   1.10321
 RFO step:  Lambda=-5.15998229D-03 EMin= 2.30010722D-03
 Quartic linear search produced a step of -0.09317.
 Iteration  1 RMS(Cart)=  0.04222704 RMS(Int)=  0.00190662
 Iteration  2 RMS(Cart)=  0.00186893 RMS(Int)=  0.00002779
 Iteration  3 RMS(Cart)=  0.00000273 RMS(Int)=  0.00002772
 Iteration  4 RMS(Cart)=  0.00000000 RMS(Int)=  0.00002772
 Variable       Old X    -DE/DX   Delta X   Delta X   Delta X     New X
                                 (Linear)    (Quad)   (Total)
    R1        2.46465  -0.00016  -0.00024   0.00048   0.00028   2.46493
    R2        2.46937  -0.00327  -0.00075  -0.00258  -0.00331   2.46606
    R3        2.57068  -0.00462  -0.00245  -0.00157  -0.00401   2.56667
    R4        1.91945   0.00265   0.00091   0.00330   0.00421   1.92366
    R5        2.58690   0.00786   0.00170   0.01120   0.01287   2.59978
    R6        2.03964   0.00022   0.00009   0.00035   0.00044   2.04008
    R7        2.56388  -0.00284  -0.00140  -0.00127  -0.00270   2.56117
    R8        2.04269  -0.00009  -0.00018   0.00017  -0.00001   2.04268
    R9        2.96977  -0.01338   0.01555  -0.08824  -0.07269   2.89707
   R10        1.84954  -0.00362   0.01724  -0.04346  -0.02622   1.82333
   R11        2.42326   0.02453  -0.00566   0.03766   0.03200   2.45526
   R12        2.20648   0.01578   0.00255   0.00735   0.00990   2.21638
    A1        1.79222   0.01278   0.00637   0.02934   0.03578   1.82799
    A2        1.99605  -0.00872  -0.00389  -0.02401  -0.02787   1.96818
    A3        2.05218   0.00552   0.00317   0.01539   0.01854   2.07072
    A4        2.23495   0.00320   0.00072   0.00862   0.00933   2.24428
    A5        1.81895   0.00230   0.00050   0.01002   0.01049   1.82945
    A6        2.16351  -0.00298  -0.00137  -0.01221  -0.01356   2.14994
    A7        2.30073   0.00068   0.00086   0.00219   0.00307   2.30379
    A8        1.82094   0.00212   0.00277   0.00327   0.00598   1.82692
    A9        2.31381   0.00077  -0.00215   0.01013   0.00800   2.32181
   A10        2.14844  -0.00289  -0.00062  -0.01340  -0.01398   2.13445
   A11        1.99661  -0.00848  -0.00575  -0.01862  -0.02438   1.97223
   A12        2.10729   0.00556  -0.01261   0.05114   0.03853   2.14582
   A13        2.17928   0.00292   0.01836  -0.03251  -0.01415   2.16513
   A14        1.93878   0.00691  -0.00277   0.03287   0.03008   1.96887
   A15        2.02474  -0.00327  -0.00381  -0.00371  -0.00754   2.01719
   A16        2.31965  -0.00364   0.00658  -0.02910  -0.02253   2.29711
   A17        1.91034   0.02246   0.03080   0.04790   0.07869   1.98903
    D1        0.00024  -0.00002  -0.00002  -0.00051  -0.00054  -0.00029
    D2        3.14132  -0.00000   0.00001  -0.00009  -0.00008   3.14124
    D3        0.00022   0.00000  -0.00001   0.00013   0.00012   0.00033
    D4        3.14080   0.00001   0.00009  -0.00010   0.00001   3.14081
    D5       -0.00059   0.00003   0.00005   0.00069   0.00073   0.00015
    D6        3.14120   0.00002   0.00004   0.00029   0.00032   3.14152
    D7        3.14159   0.00001   0.00001   0.00021   0.00022  -3.14138
    D8        0.00019  -0.00001  -0.00001  -0.00019  -0.00019  -0.00000
    D9        0.00065  -0.00002  -0.00005  -0.00053  -0.00059   0.00006
   D10       -3.14133  -0.00001  -0.00002  -0.00020  -0.00022  -3.14156
   D11       -3.14116  -0.00001  -0.00004  -0.00009  -0.00013  -3.14129
   D12        0.00005   0.00001  -0.00001   0.00024   0.00023   0.00028
   D13       -0.00057   0.00002   0.00004   0.00028   0.00032  -0.00025
   D14       -3.14111   0.00001  -0.00007   0.00046   0.00040  -3.14071
   D15        3.14136   0.00000   0.00002  -0.00002   0.00000   3.14136
   D16        0.00083  -0.00001  -0.00009   0.00017   0.00008   0.00090
   D17        0.00932  -0.00018  -0.00076  -0.00425  -0.00506   0.00426
   D18       -3.13819   0.00013  -0.00027   0.00580   0.00558  -3.13261
   D19       -3.13339  -0.00018  -0.00064  -0.00449  -0.00518  -3.13857
   D20        0.00228   0.00013  -0.00015   0.00556   0.00546   0.00774
   D21       -0.01382   0.00024  -0.00071   0.01040   0.00961  -0.00421
   D22        3.13503  -0.00015  -0.00131  -0.00211  -0.00335   3.13169
         Item               Value     Threshold  Converged?
 Maximum Force            0.024529     0.000450     NO 
 RMS     Force            0.006489     0.000300     NO 
 Maximum Displacement     0.209721     0.001800     NO 
 RMS     Displacement     0.042237     0.001200     NO 
 Predicted change in Energy=-2.852877D-03
 GradGradGradGradGradGradGradGradGradGradGradGradGradGradGradGradGradGrad

                          Input orientation:                          
 ---------------------------------------------------------------------
 Center     Atomic      Atomic             Coordinates (Angstroms)
 Number     Number       Type             X           Y           Z
 ---------------------------------------------------------------------
      1          7           0       -0.748320   -1.108159    0.004113
      2          7           0       -1.997247   -0.731860    0.002573
      3          6           0       -2.139245    0.618915   -0.001202
      4          6           0       -0.853342    1.107912   -0.002224
      5          7           0       -0.066394    0.004471    0.000957
      6          1           0       -3.099585    1.112071   -0.003013
      7          1           0       -0.444755    2.108650   -0.004859
      8          1           0       -2.722200   -1.446477    0.004191
      9          1           0        1.356894   -1.860979    0.004395
     10          6           0        1.466184    0.043072    0.002340
     11          8           0        1.999830   -1.141544    0.001839
     12          8           0        1.945726    1.113397    0.008633
 ---------------------------------------------------------------------
                    Distance matrix (angstroms):
                    1          2          3          4          5
     1  N    0.000000
     2  N    1.304385   0.000000
     3  C    2.217540   1.358224   0.000000
     4  C    2.218568   2.166404   1.375742   0.000000
     5  N    1.304983   2.066489   2.162003   1.355315   0.000000
     6  H    3.233870   2.148317   1.079564   2.246247   3.229092
     7  H    3.231113   3.237095   2.256240   1.080938   2.137933
     8  H    2.002663   1.017957   2.146092   3.165056   3.026312
     9  H    2.235769   3.539092   4.286361   3.701283   2.346415
    10  C    2.495870   3.549067   3.651127   2.552275   1.533066
    11  O    2.748354   4.018017   4.497907   3.633271   2.362760
    12  O    3.491879   4.353395   4.114802   2.799094   2.297478
                    6          7          8          9         10
     6  H    0.000000
     7  H    2.835718   0.000000
     8  H    2.586241   4.222057   0.000000
     9  H    5.357171   4.359355   4.100100   0.000000
    10  C    4.689247   2.813957   4.445371   1.907186   0.000000
    11  O    5.575198   4.066915   4.731866   0.964863   1.299266
    12  O    5.045324   2.589422   5.323768   3.032104   1.172858
                   11         12
    11  O    0.000000
    12  O    2.255600   0.000000
 Stoichiometry    C3H4N3O2(1+)
 Framework group  C1[X(C3H4N3O2)]
 Deg. of freedom    30
 Full point group                 C1      NOp   1
 Largest Abelian subgroup         C1      NOp   1
 Largest concise Abelian subgroup C1      NOp   1
                         Standard orientation:                         
 ---------------------------------------------------------------------
 Center     Atomic      Atomic             Coordinates (Angstroms)
 Number     Number       Type             X           Y           Z
 ---------------------------------------------------------------------
      1          7           0       -0.698934   -1.073205    0.002133
      2          7           0       -1.952111   -0.711311    0.002060
      3          6           0       -2.109656    0.637742   -0.000948
      4          6           0       -0.829470    1.141513   -0.003079
      5          7           0       -0.029868    0.047205   -0.001219
      6          1           0       -3.075612    1.119809   -0.001537
      7          1           0       -0.432435    2.146890   -0.005679
      8          1           0       -2.668787   -1.434228    0.004102
      9          1           0        1.414807   -1.801735   -0.000112
     10          6           0        1.502166    0.103449   -0.001407
     11          8           0        2.049414   -1.074944   -0.003004
     12          8           0        1.969359    1.179221    0.004880
 ---------------------------------------------------------------------
 Rotational constants (GHZ):           5.2741540           1.7019357           1.2867252
 Standard basis: 6-31+G(d,p) (6D, 7F)
 There are   172 symmetry adapted cartesian basis functions of A   symmetry.
 There are   172 symmetry adapted basis functions of A   symmetry.
   172 basis functions,   284 primitive gaussians,   172 cartesian basis functions
    29 alpha electrons       29 beta electrons
       nuclear repulsion energy       373.4445736321 Hartrees.
 NAtoms=   12 NActive=   12 NUniq=   12 SFac= 1.00D+00 NAtFMM=   60 NAOKFM=F Big=F
 Integral buffers will be    131072 words long.
 Raffenetti 2 integral format.
 Two-electron integral symmetry is turned on.
 One-electron integrals computed using PRISM.
 NBasis=   172 RedAO= T EigKep=  2.50D-05  NBF=   172
 NBsUse=   172 1.00D-06 EigRej= -1.00D+00 NBFU=   172
 Initial guess from the checkpoint file:  "/scratch/gongke2021/2-H-1-H-Tz-PC/Gau-4375.chk"
 B after Tr=     0.000000    0.000000   -0.000000
         Rot=    0.999999    0.000011    0.000022   -0.001687 Ang=   0.19 deg.
 ExpMin= 4.38D-02 ExpMax= 5.48D+03 ExpMxC= 8.25D+02 IAcc=2 IRadAn=         4 AccDes= 0.00D+00
 Harris functional with IExCor= 1009 and IRadAn=       4 diagonalized for initial guess.
 HarFok:  IExCor= 1009 AccDes= 0.00D+00 IRadAn=         4 IDoV= 1 UseB2=F ITyADJ=14
 ICtDFT=  3500011 ScaDFX=  1.000000  1.000000  1.000000  1.000000
 FoFCou: FMM=F IPFlag=           0 FMFlag=      100000 FMFlg1=           0
         NFxFlg=           0 DoJE=T BraDBF=F KetDBF=T FulRan=T
         wScrn=  0.000000 ICntrl=       500 IOpCl=  0 I1Cent=   200000004 NGrid=           0
         NMat0=    1 NMatS0=      1 NMatT0=    0 NMatD0=    1 NMtDS0=    0 NMtDT0=    0
 Petite list used in FoFCou.
 Keep R1 ints in memory in canonical form, NReq=134699993.
 Requested convergence on RMS density matrix=1.00D-08 within 128 cycles.
 Requested convergence on MAX density matrix=1.00D-06.
 Requested convergence on             energy=1.00D-06.
 No special actions if energy rises.
 SCF Done:  E(RM062X) =  -430.981452726     A.U. after   12 cycles
            NFock= 12  Conv=0.74D-08     -V/T= 2.0082
 Calling FoFJK, ICntrl=      2127 FMM=F ISym2X=0 I1Cent= 0 IOpClX= 0 NMat=1 NMatS=1 NMatT=0.
 ***** Axes restored to original set *****
 -------------------------------------------------------------------
 Center     Atomic                   Forces (Hartrees/Bohr)
 Number     Number              X              Y              Z
 -------------------------------------------------------------------
      1        7           0.001916908   -0.003560971   -0.000094539
      2        7           0.007940019    0.004163368    0.000017234
      3        6           0.001652266    0.002056825   -0.000031140
      4        6          -0.005471268    0.001102431    0.000000083
      5        7           0.001326510   -0.001289769   -0.000110021
      6        1          -0.000107430    0.000007979    0.000004759
      7        1          -0.000038214   -0.000109179    0.000010851
      8        1           0.000003885   -0.000727719    0.000022970
      9        1          -0.003390592   -0.007920032   -0.000093610
     10        6          -0.013507847   -0.006141414    0.000774860
     11        8           0.003356230    0.005693103   -0.000129371
     12        8           0.006319533    0.006725377   -0.000372077
 -------------------------------------------------------------------
 Cartesian Forces:  Max     0.013507847 RMS     0.003954088

 GradGradGradGradGradGradGradGradGradGradGradGradGradGradGradGradGradGrad
 Berny optimization.
 Using GEDIIS/GDIIS optimizer.
 FormGI is forming the generalized inverse of G from B-inverse, IUseBI=4.
 Internal  Forces:  Max     0.008717354 RMS     0.002852593
 Search for a local minimum.
 Step number   5 out of a maximum of   61
 All quantities printed in internal units (Hartrees-Bohrs-Radians)
 Mixed Optimization -- RFO/linear search
 Update second derivatives using D2CorX and points    3    2    4    5
 DE= -2.82D-03 DEPred=-2.85D-03 R= 9.89D-01
 TightC=F SS=  1.41D+00  RLast= 1.43D-01 DXNew= 4.2426D-01 4.3014D-01
 Trust test= 9.89D-01 RLast= 1.43D-01 DXMaxT set to 4.24D-01
 ITU=  1  0 -1  1  0
 Use linear search instead of GDIIS.
     Eigenvalues ---    0.00230   0.01608   0.01719   0.02304   0.02372
     Eigenvalues ---    0.02411   0.02493   0.02604   0.03748   0.11337
     Eigenvalues ---    0.15859   0.16000   0.16074   0.16135   0.22646
     Eigenvalues ---    0.24566   0.24819   0.30698   0.36036   0.36041
     Eigenvalues ---    0.43511   0.45058   0.47257   0.52504   0.54916
     Eigenvalues ---    0.61460   0.66010   0.67660   0.83768   1.08025
 RFO step:  Lambda=-1.12160271D-03 EMin= 2.30024071D-03
 Quartic linear search produced a step of  0.01633.
 Iteration  1 RMS(Cart)=  0.01514915 RMS(Int)=  0.00032118
 Iteration  2 RMS(Cart)=  0.00028990 RMS(Int)=  0.00004170
 Iteration  3 RMS(Cart)=  0.00000011 RMS(Int)=  0.00004170
 Variable       Old X    -DE/DX   Delta X   Delta X   Delta X     New X
                                 (Linear)    (Quad)   (Total)
    R1        2.46493  -0.00336   0.00000  -0.00492  -0.00491   2.46002
    R2        2.46606  -0.00342  -0.00005  -0.00440  -0.00446   2.46160
    R3        2.56667   0.00049  -0.00007  -0.00047  -0.00053   2.56614
    R4        1.92366   0.00051   0.00007   0.00148   0.00155   1.92521
    R5        2.59978  -0.00527   0.00021  -0.00936  -0.00915   2.59063
[...]
   D12       -0.00000   0.00000   0.00000   0.00000   0.00000   0.00000
   D13        0.00001  -0.00000   0.00000  -0.00001  -0.00001   0.00000
   D14       -3.14157   0.00000   0.00000  -0.00002  -0.00002  -3.14159
   D15       -3.14157  -0.00000   0.00000  -0.00003  -0.00003  -3.14159
   D16        0.00003  -0.00000   0.00000  -0.00003  -0.00003   0.00000
   D17        0.00107  -0.00000   0.00000  -0.00107  -0.00107   0.00000
   D18       -3.14062  -0.00001   0.00000  -0.00096  -0.00096  -3.14159
   D19       -3.14053  -0.00001   0.00000  -0.00106  -0.00106   3.14159
   D20        0.00096  -0.00001   0.00000  -0.00096  -0.00096   0.00000
   D21       -0.00085   0.00001   0.00000   0.00087   0.00087   0.00002
   D22        3.14085   0.00001   0.00000   0.00075   0.00075  -3.14158
         Item               Value     Threshold  Converged?
 Maximum Force            0.000106     0.000450     YES
 RMS     Force            0.000021     0.000300     YES
 Maximum Displacement     0.001850     0.001800     NO 
 RMS     Displacement     0.000447     0.001200     YES
 Predicted change in Energy=-4.377954D-08
                           ----------------------------
                           ! Non-Optimized Parameters !
                           ! (Angstroms and Degrees)  !
 --------------------------                            --------------------------
 ! Name  Definition              Value          Derivative Info.                !
 --------------------------------------------------------------------------------
 ! R1    R(1,2)                  1.3002         -DE/DX =    0.0                 !
 ! R2    R(1,5)                  1.3042         -DE/DX =    0.0                 !
 ! R3    R(2,3)                  1.3592         -DE/DX =    0.0                 !
 ! R4    R(2,8)                  1.0188         -DE/DX =    0.0                 !
 ! R5    R(3,4)                  1.3712         -DE/DX =    0.0                 !
 ! R6    R(3,6)                  1.0797         -DE/DX =    0.0                 !
 ! R7    R(4,5)                  1.3594         -DE/DX =    0.0                 !
 ! R8    R(4,7)                  1.0809         -DE/DX =    0.0                 !
 ! R9    R(5,10)                 1.5037         -DE/DX =    0.0                 !
 ! R10   R(9,11)                 0.9719         -DE/DX =   -0.0001              !
 ! R11   R(10,11)                1.3027         -DE/DX =    0.0                 !
 ! R12   R(10,12)                1.1798         -DE/DX =   -0.0001              !
 ! A1    A(2,1,5)              104.1652         -DE/DX =    0.0                 !
 ! A2    A(1,2,3)              113.3982         -DE/DX =    0.0                 !
 ! A3    A(1,2,8)              118.2929         -DE/DX =    0.0                 !
 ! A4    A(3,2,8)              128.3088         -DE/DX =    0.0                 !
 ! A5    A(2,3,4)              104.6128         -DE/DX =    0.0                 !
 ! A6    A(2,3,6)              123.1424         -DE/DX =    0.0                 !
 ! A7    A(4,3,6)              132.2448         -DE/DX =    0.0                 !
 ! A8    A(3,4,5)              104.508          -DE/DX =    0.0                 !
 ! A9    A(3,4,7)              133.408          -DE/DX =    0.0                 !
 ! A10   A(5,4,7)              122.084          -DE/DX =    0.0                 !
 ! A11   A(1,5,4)              113.3158         -DE/DX =    0.0                 !
 ! A12   A(1,5,10)             121.6207         -DE/DX =    0.0                 !
 ! A13   A(4,5,10)             125.0634         -DE/DX =    0.0                 !
 ! A14   A(5,10,11)            113.5005         -DE/DX =    0.0                 !
 ! A15   A(5,10,12)            116.7142         -DE/DX =    0.0                 !
 ! A16   A(11,10,12)           129.7853         -DE/DX =    0.0                 !
 ! A17   A(9,11,10)            115.7492         -DE/DX =    0.0                 !
 ! D1    D(5,1,2,3)              0.0            -DE/DX =    0.0                 !
 ! D2    D(5,1,2,8)           -180.0            -DE/DX =    0.0                 !
 ! D3    D(2,1,5,4)              0.0            -DE/DX =    0.0                 !
 ! D4    D(2,1,5,10)           179.9998         -DE/DX =    0.0                 !
 ! D5    D(1,2,3,4)              0.0            -DE/DX =    0.0                 !
 ! D6    D(1,2,3,6)            180.0            -DE/DX =    0.0                 !
 ! D7    D(8,2,3,4)            180.0            -DE/DX =    0.0                 !
 ! D8    D(8,2,3,6)             -0.0001         -DE/DX =    0.0                 !
 ! D9    D(2,3,4,5)              0.0            -DE/DX =    0.0                 !
 ! D10   D(2,3,4,7)            180.0            -DE/DX =    0.0                 !
 ! D11   D(6,3,4,5)           -180.0            -DE/DX =    0.0                 !
 ! D12   D(6,3,4,7)              0.0            -DE/DX =    0.0                 !
 ! D13   D(3,4,5,1)              0.0            -DE/DX =    0.0                 !
 ! D14   D(3,4,5,10)          -179.9998         -DE/DX =    0.0                 !
 ! D15   D(7,4,5,1)           -180.0            -DE/DX =    0.0                 !
 ! D16   D(7,4,5,10)             0.0002         -DE/DX =    0.0                 !
 ! D17   D(1,5,10,11)            0.0            -DE/DX =    0.0                 !
 ! D18   D(1,5,10,12)         -179.9998         -DE/DX =    0.0                 !
 ! D19   D(4,5,10,11)          179.9999         -DE/DX =    0.0                 !
 ! D20   D(4,5,10,12)            0.0            -DE/DX =    0.0                 !
 ! D21   D(5,10,11,9)            0.0009         -DE/DX =    0.0                 !
 ! D22   D(12,10,11,9)        -179.9993         -DE/DX =    0.0                 !
 --------------------------------------------------------------------------------
 GradGradGradGradGradGradGradGradGradGradGradGradGradGradGradGradGradGrad


 ----------------------------------------------------------------------

 Electric dipole moment (input orientation):
 (Debye = 10**-18 statcoulomb cm , SI units = C m)
                  (au)            (Debye)         (10**-30 SI)
   Tot        0.310060D+01      0.788093D+01      0.262880D+02
   x         -0.304504D+01     -0.773971D+01     -0.258169D+02
   y         -0.584344D+00     -0.148525D+01     -0.495427D+01
   z         -0.215418D-02     -0.547538D-02     -0.182639D-01

 Dipole polarizability, Alpha (input orientation).
 (esu units = cm**3 , SI units = C**2 m**2 J**-1)
 Alpha(0;0):
               (au)            (10**-24 esu)      (10**-40 SI)
   iso        0.533593D+02      0.790703D+01      0.879776D+01
   aniso      0.353761D+02      0.524220D+01      0.583274D+01
   xx         0.683043D+02      0.101217D+02      0.112619D+02
   yx         0.125435D+01      0.185875D+00      0.206814D+00
   yy         0.616369D+02      0.913365D+01      0.101626D+02
   zx         0.314843D-01      0.466550D-02      0.519107D-02
   zy        -0.468590D-01     -0.694378D-02     -0.772600D-02
   zz         0.301367D+02      0.446580D+01      0.496887D+01

 ----------------------------------------------------------------------

 Dipole orientation:
     7          0.34317572         -1.74786469          1.74874634
     7          0.12771782         -0.63478373          3.92851008
     6         -0.36019666          1.88031017          3.74556560
     6         -0.45088806          2.34505033          1.19805803
     7         -0.00785711          0.06005693          0.11081403
     1         -0.59495186          3.09210857          5.37018228
     1         -0.77779961          4.02893810          0.08904925
     1          0.33420779         -1.69771162          5.52041126
     1          0.76078074         -3.91724275         -1.83730654
     6          0.08594173         -0.42628670         -2.68736832
     8          0.53940227         -2.77709332         -3.26029961
     8         -0.25260146          1.32767860         -4.02146399

 Electric dipole moment (dipole orientation):
 (Debye = 10**-18 statcoulomb cm , SI units = C m)
                  (au)            (Debye)         (10**-30 SI)
   Tot        0.310060D+01      0.788093D+01      0.262880D+02
   x          0.000000D+00      0.000000D+00      0.000000D+00
   y          0.000000D+00      0.000000D+00      0.000000D+00
   z          0.310060D+01      0.788093D+01      0.262880D+02

 Dipole polarizability, Alpha (dipole orientation).
 (esu units = cm**3 , SI units = C**2 m**2 J**-1)
 Alpha(0;0):
               (au)            (10**-24 esu)      (10**-40 SI)
   iso        0.533593D+02      0.790703D+01      0.879776D+01
   aniso      0.353761D+02      0.524220D+01      0.583274D+01
   xx         0.312666D+02      0.463324D+01      0.515517D+01
   yx        -0.583631D+01     -0.864852D+00     -0.962278D+00
   yy         0.602795D+02      0.893249D+01      0.993874D+01
   zx        -0.846681D-02     -0.125465D-02     -0.139599D-02
   zy         0.684574D-01      0.101443D-01      0.112871D-01
   zz         0.685318D+02      0.101554D+02      0.112994D+02

 ----------------------------------------------------------------------
 1\1\GINC-NODE6\Freq\RM062X\6-31+G(d,p)\C3H4N3O2(1+)\GONGKE2021\16-Jul-
 2023\0\\#N Geom=AllCheck Guess=TCheck SCRF=Check GenChk RM062X/6-31+G(
 d,p) Freq\\2-H-1-H-Tz\\1,1\N,-0.7311763314,-1.1000924489,0.0033897884\
 N,-1.9770544636,-0.7282802748,0.0016232047\C,-2.1374824108,0.621411292
 6,-0.0010467444\C,-0.8607785302,1.1215508251,-0.000893629\N,-0.0636205
 489,0.020369837,0.0018654132\H,-3.1048848667,1.100861709,-0.0027928803
 \H,-0.4554999729,2.1235966217,-0.0024466091\H,-2.6963708309,-1.4497635
 017,0.0023442883\H,1.3527985447,-1.8905697821,0.0053840821\C,1.4399760
 07,0.0420234347,0.0031380702\O,1.9764912123,-1.1450609824,0.0045647014
 \O,1.9551481615,1.1034224697,0.0026117444\\Version=ES64L-G16RevA.03\St
 ate=1-A\HF=-430.9821634\RMSD=2.841e-09\RMSF=2.685e-05\ZeroPoint=0.0882
 058\Thermal=0.0945123\Dipole=-3.0450364,-0.5843437,-0.0021542\DipoleDe
 riv=0.2143668,0.2943779,-0.000356,0.4004486,-0.3909325,0.0010791,-0.00
 04688,0.0009843,-0.0056019,-0.4615062,-0.3403578,0.0002766,-0.229372,0
 .1698153,-0.0006356,0.0001099,-0.0007444,-0.0594385,0.1222617,-0.19304
 31,0.0004579,0.142349,-0.0597078,0.0002616,-0.0001771,-0.0000051,0.015
 3761,0.0288341,0.2649427,-0.0005001,-0.1512623,0.0273436,-0.0001016,0.
 0002526,0.000239,0.0388787,-1.0399746,-0.0792402,-0.0007409,-0.2803191
 ,0.0788305,-0.0004871,-0.0005133,-0.0002895,0.0496346,0.2239882,-0.046
 231,0.0001004,-0.0658332,0.1701941,0.0000224,0.0001389,0.0000388,0.210
 6649,0.1631847,0.0208367,-0.0000821,0.0352746,0.2725418,-0.0000994,-0.
 0000931,-0.0001254,0.2046534,0.3953986,0.1440302,-0.0002143,0.1608615,
 0.3684529,0.0000684,-0.0002472,0.0000459,0.3303318,0.3823728,-0.048171
 9,0.0001549,-0.0923854,0.5018439,-0.0002411,0.0001752,-0.0001153,0.379
 7546,2.4263734,-0.14348,0.0018526,0.0803705,1.9515924,-0.0010784,0.001
 6056,-0.0013501,0.481325,-0.6345637,0.3028448,-0.0006447,0.2944952,-1.
 2143488,0.0009986,-0.0006533,0.0008942,-0.3422848,-0.820736,-0.1765083
 ,-0.0003041,-0.2946273,-0.8756252,0.0002133,-0.0001293,0.0004278,-0.30
 3294\Polar=68.3043202,1.2543471,61.6369117,0.0314843,-0.046859,30.1367
 055\Quadrupole=6.2988531,1.0938992,-7.3927523,-1.6988353,0.0130309,-0.
 0175402\PG=C01 [X(C3H4N3O2)]\NImag=0\\0.64902634,-0.01479153,0.6202975
 5,0.00047512,-0.00094799,0.11794677,-0.37580560,0.05442066,-0.00035520
 ,0.90715815,0.11929862,-0.14587636,0.00022820,0.17821748,0.86373580,-0
 .00047904,0.00017740,-0.07592228,0.00033760,-0.00120676,0.13274815,-0.
 04351958,0.01300975,-0.00007831,-0.14341314,0.03267545,-0.00013237,0.9
 3645291,0.08797817,-0.06791318,0.00024664,0.00661163,-0.32524553,0.000
 48788,-0.11607117,0.63888153,-0.00022250,0.00017878,0.02136576,-0.0000
 8067,0.00051363,-0.06562668,0.00091435,-0.00104946,0.13391316,-0.00887
 147,0.04194343,-0.00010697,0.00848276,-0.10342945,0.00019640,-0.370071
 82,-0.08138894,-0.00010477,0.68994742,-0.02538782,-0.10204980,0.000207
 55,-0.01755990,-0.04978948,0.00009675,-0.11257350,-0.16172079,0.000077
 92,0.16279885,0.87990496,0.00002549,0.00026572,0.01955012,0.00003039,0
 .00002732,0.01019053,-0.00004840,0.00010143,-0.07010272,0.00016467,-0.
 00126273,0.13688653,-0.16348454,-0.05858219,0.00004660,-0.16263581,-0.
 03897892,-0.00008410,-0.07878106,-0.01374062,-0.00004810,-0.19079725,0
 .08833981,-0.00027455,0.78702845,-0.14608178,-0.32634085,0.00033519,-0
 .05425579,-0.05600568,0.00008579,0.07842820,0.03763415,0.00001192,0.07
 380688,-0.25577148,0.00041170,0.01118901,0.74742121,0.00021229,0.00040
 260,-0.08006366,-0.00005113,0.00010311,0.01630450,-0.00022167,-0.00005
 995,0.00979664,-0.00024935,0.00041799,-0.06840248,0.00053149,-0.001060
 59,0.13233144,0.00292778,-0.00357212,0.00000269,0.00792949,-0.00303717
 ,0.00001561,-0.32044750,0.12870042,-0.00049460,-0.00587978,0.01119481,
 -0.00002763,-0.00333687,-0.00115342,-0.00000631,0.31889949,-0.00068336
 ,-0.00532199,0.00002303,0.03048366,-0.00904743,0.00003715,0.11886445,-
 0.11656368,0.00026227,-0.00986605,0.01362889,-0.00003178,-0.00647308,-
 0.00127530,0.00000779,-0.13304735,0.11728491,-0.00000304,0.00002032,0.
 00739298,-0.00004678,0.00000718,-0.00345459,-0.00047607,0.00027133,-0.
 03251427,0.00001209,-0.00001335,0.00148183,0.00000427,0.00001336,0.006
 05985,0.00050884,-0.00029113,0.02424853,-0.00298606,0.00627331,-0.0000
 2029,-0.00586978,-0.00260040,-0.00000498,0.00289166,-0.01927913,0.0000
 3733,-0.10365761,-0.11889207,0.00016982,0.01353754,0.02106674,-0.00002
 661,0.00002476,0.00039771,0.00000139,0.09393059,0.00292972,0.00050488,
 0.00001483,0.00190599,0.00186371,0.00000860,0.00066014,0.00498405,-0.0
 0000608,-0.10882647,-0.32912611,0.00046862,-0.00901437,-0.01697813,0.0
 0001921,-0.00032266,-0.00004957,-0.00000458,0.11402785,0.33877705,-0.0
 0001432,0.00001737,0.00700011,-0.00001322,0.00000449,0.00547358,-0.000
 00019,-0.00002268,0.00155861,0.00014958,0.00046033,-0.03375753,0.00003
 170,0.00004538,-0.00247204,0.00000261,-0.00000400,-0.00233881,-0.00016
 171,-0.00049728,0.02533209,-0.02232492,-0.02714351,0.00004043,-0.25054
 996,-0.17957822,0.00013424,0.01363392,0.00395522,0.00000675,0.00147806
 ,0.00455155,-0.00001152,-0.00491257,0.00566562,-0.00002127,0.00023735,
 -0.00014708,0.00000184,0.00072067,-0.00041752,0.00000047,0.26252081,0.
 00848088,0.01698562,-0.00004373,-0.19297342,-0.27144898,0.00029351,-0.
 01978918,-0.00489380,-0.00001262,0.00101799,-0.00627025,0.00002199,0.0
 1156668,0.00281989,0.00001945,0.00051766,0.00016741,-0.00000281,-0.000
 74388,0.00033870,0.00000066,0.19395651,0.26058084,-0.00002607,-0.00007
 299,-0.01019509,0.00015925,0.00030422,-0.02333774,0.00005106,0.0000078
 2,-0.00252271,-0.00000451,0.00002483,0.00490766,-0.00003370,0.00001338
 ,0.00821271,0.00000060,-0.00000340,-0.00156022,0.00000113,0.00000094,0
 .00101246,-0.00015041,-0.00027435,0.02218640,-0.00139047,0.00556133,-0
 .00001000,-0.00296088,-0.00122540,-0.00000101,-0.00028752,-0.00222945,
 0.00000441,0.00223976,-0.00197878,0.00000613,-0.00481829,0.00437001,-0
 .00001063,-0.00027064,-0.00017184,0.00000015,0.00040774,0.00008000,0.0
 0000023,-0.00050139,-0.00005283,-0.00000057,0.23241007,0.00206637,0.00
 099670,-0.00000157,-0.00202670,0.00074396,-0.00000387,-0.00111934,0.00
 026796,-0.00000117,-0.00024039,-0.00215141,0.00000422,-0.00234300,0.00
 065534,-0.00000143,0.00002292,-0.00013966,0.00000050,-0.00000903,-0.00
 019648,0.00000051,0.00018988,0.00064053,-0.00000076,0.22785684,0.33506
 369,-0.00000545,-0.00000033,0.00036555,0.00000222,-0.00000260,-0.00111
 606,0.00000067,-0.00000070,0.00045268,0.00000246,0.00000201,-0.0001924
 3,0.00000111,0.00000098,0.00062131,-0.00000035,0.00000066,0.00022434,0
 .00000024,0.00000056,0.00006941,-0.00000064,-0.00000090,0.00007494,-0.
 00024079,-0.00036150,0.00764513,-0.02781600,-0.03267141,0.00004901,0.0
 2963640,0.00193436,0.00001831,0.00668180,0.00514839,-0.00000802,-0.021
 00890,0.02116702,-0.00005456,-0.09250209,0.02339072,-0.00007107,-0.000
 22412,0.00159922,-0.00000433,0.00304099,0.00070650,0.00000244,-0.00072
 845,-0.00444137,0.00000530,0.02120721,-0.02112914,0.00003531,0.4886288
 3,-0.02489093,0.00711291,-0.00005886,-0.00898413,-0.01118448,0.0000232
 3,0.00716295,-0.00864212,0.00003246,0.02497899,0.01433058,-0.00000902,
 0.03776230,-0.10655337,0.00011516,0.00063466,0.00099532,0.00000072,0.0
 0335909,-0.00144178,0.00000390,-0.00101558,0.00140351,0.00000118,0.015
 50043,-0.03805211,0.00002870,0.18077720,1.25132476,0.00004239,-0.00006
 300,-0.01201853,0.00003190,0.00003025,0.00501578,-0.00000989,0.0000236
 1,0.00423646,-0.00005863,-0.00001046,-0.00303614,-0.00008695,0.0001124
 1,-0.05204200,-0.00000212,0.00000165,0.00107017,0.00000078,-0.00000044
 ,-0.00135877,-0.00000092,-0.00000160,0.00241767,-0.00000867,0.00002564
 ,-0.01011144,0.00006369,-0.00085392,0.19491686,-0.00035214,0.00496402,
 -0.00000827,-0.00315865,0.00165962,-0.00000523,-0.00354828,0.00165656,
 -0.00000765,-0.00301298,-0.00813227,0.00001472,-0.04440175,0.04385963,
 -0.00008874,-0.00008886,-0.00068668,0.00000093,-0.00027835,-0.00035791
 ,0.00000077,0.00050389,0.00087238,-0.00000115,-0.24390673,-0.20709468,
 0.00021201,-0.15965799,0.08785858,-0.00012487,0.42909489,-0.00589331,-
 0.00518874,0.00000764,0.00768862,0.00198562,0.00000408,0.00104059,0.00
 222089,-0.00000399,-0.00300580,0.00495169,-0.00001047,0.02712073,-0.00
 917829,0.00004303,0.00007604,0.00053598,-0.00000175,-0.00156801,0.0005
 1176,-0.00000360,0.00006311,-0.00106857,0.00000145,-0.25657856,-0.2993
 3586,0.00032899,0.12781825,-0.36847363,0.00038218,0.09359155,0.7717989
 2,0.00000853,0.00001295,0.00041600,-0.00001307,0.00000116,0.00074164,-
 0.00000384,-0.00000429,-0.00050932,0.00000018,-0.00000676,0.00251705,-
 0.00007569,0.00005512,0.01199225,0.00000029,-0.00000218,-0.00052464,0.
 00000060,-0.00000088,0.00006866,0.00000062,0.00000142,-0.00035579,0.00
 027081,0.00032982,-0.00512169,-0.00017101,0.00037712,-0.05000631,-0.00
 000966,-0.00085696,0.02399418,-0.00540335,0.01058827,-0.00003480,-0.00
 881298,-0.00493597,0.00000455,0.00040859,-0.00134109,0.00000347,0.0011
 5182,-0.00352770,0.00000543,-0.05489575,-0.06028584,0.00000301,0.00022
 889,-0.00026960,0.00000071,-0.00176215,-0.00137127,0.00000163,-0.00007
 741,0.00158858,-0.00000092,-0.00212887,0.00382628,-0.00000679,-0.24725
 768,-0.32314357,0.00015329,0.02880695,0.00964679,-0.00000777,0.2897419
 3,-0.00302502,0.00679325,-0.00001093,-0.00352809,0.00026885,-0.0000037
 5,-0.00228834,0.00099054,-0.00000366,0.00221096,-0.00593679,0.00001301
 ,-0.04684638,-0.01642746,-0.00000636,-0.00001379,-0.00021488,0.0000002
 0,-0.00203217,0.00081193,-0.00000508,-0.00007998,0.00074510,-0.0000023
 2,0.00886825,0.00150733,0.00000411,-0.30429975,-0.74081957,0.00035367,
 -0.01819081,-0.09875977,0.00009347,0.36922512,0.85104148,-0.00001340,0
 .00000916,0.00416228,-0.00000130,-0.00001020,-0.00101683,0.00000466,-0
 .00000165,-0.00004762,-0.00000115,0.00000592,-0.00004242,-0.00001208,-
 0.00002467,0.01766149,0.00000037,-0.00000007,-0.00008516,0.00000229,-0
 .00000348,-0.00058776,0.00000042,-0.00000100,-0.00084030,-0.00001007,0
 .00000962,0.00708825,0.00013493,0.00033934,-0.07908373,0.00001714,0.00
 010940,0.01678798,-0.00012182,-0.00043236,0.03600383\\-0.00002921,0.00
 002194,0.00000468,0.00001310,-0.00003651,-0.00000003,0.00001676,0.0000
 0592,0.00000179,-0.00002647,-0.00000788,-0.00000586,0.00001193,0.00004
 007,0.00000419,0.00000088,0.00000334,-0.00000002,0.00001291,-0.0000050
 3,-0.00000254,-0.00001139,0.00000060,-0.00000152,-0.00001831,-0.000058
 61,0.00000744,-0.00001121,-0.00006804,-0.00000607,-0.00000483,0.000010
 90,-0.00001321,0.00004583,0.00009331,0.00001114\\\@


 THE ATTENTION SPAN OF A COMPUTER IS AS LONG
 AS ITS EXTENSION CORD.
 Job cpu time:       0 days  0 hours 25 minutes 26.6 seconds.
 Elapsed time:       0 days  0 hours  1 minutes  5.1 seconds.
 File lengths (MBytes):  RWF=     43 Int=      0 D2E=      0 Chk=      4 Scr=      1
 Normal termination of Gaussian 16 at Sun Jul 16 13:07:35 2023.
