 Entering Gaussian System, Link 0=/opt/soft/g16b/g16/g16
 Initial command:
 /opt/soft/g16b/g16/l1.exe "/scratch/gongke2021/1-H-Tz-2-eletron/Gau-8557.inp" -scrdir="/scratch/gongke2021/1-H-Tz-2-eletron/"
 Entering Link 1 = /opt/soft/g16b/g16/l1.exe PID=      8558.
  
 Copyright (c) 1988,1990,1992,1993,1995,1998,2003,2009,2016,
            Gaussian, Inc.  All Rights Reserved.
  
 This is part of the Gaussian(R) 16 program.  It is based on
 the Gaussian(R) 09 system (copyright 2009, Gaussian, Inc.),
 the Gaussian(R) 03 system (copyright 2003, Gaussian, Inc.),
 the Gaussian(R) 98 system (copyright 1998, Gaussian, Inc.),
 the Gaussian(R) 94 system (copyright 1995, Gaussian, Inc.),
 the Gaussian 92(TM) system (copyright 1992, Gaussian, Inc.),
 the Gaussian 90(TM) system (copyright 1990, Gaussian, Inc.),
 the Gaussian 88(TM) system (copyright 1988, Gaussian, Inc.),
 the Gaussian 86(TM) system (copyright 1986, Carnegie Mellon
 University), and the Gaussian 82(TM) system (copyright 1983,
 Carnegie Mellon University). Gaussian is a federally registered
 trademark of Gaussian, Inc.
  
 This software contains proprietary and confidential information,
 including trade secrets, belonging to Gaussian, Inc.
  
 This software is provided under written license and may be
 used, copied, transmitted, or stored only in accord with that
 written license.
  
 The following legend is applicable only to US Government
 contracts under FAR:
  
                    RESTRICTED RIGHTS LEGEND
  
 Use, reproduction and disclosure by the US Government is
 subject to restrictions as set forth in subparagraphs (a)
 and (c) of the Commercial Computer Software - Restricted
 Rights clause in FAR 52.227-19.
  
 Gaussian, Inc.
 340 Quinnipiac St., Bldg. 40, Wallingford CT 06492
  
  
 ---------------------------------------------------------------
 Warning -- This program may not be used in any manner that
 competes with the business of Gaussian, Inc. or will provide
 assistance to any competitor of Gaussian, Inc.  The licensee
 of this program is prohibited from giving any competitor of
 Gaussian, Inc. access to this program.  By using this program,
 the user acknowledges that Gaussian, Inc. is engaged in the
 business of creating and licensing software in the field of
 computational chemistry and represents and warrants to the
 licensee that it is not a competitor of Gaussian, Inc. and that
 it will not use this program in any manner prohibited above.
 ---------------------------------------------------------------
  

 Cite this work as:
 Gaussian 16, Revision A.03,
 M. J. Frisch, G. W. Trucks, H. B. Schlegel, G. E. Scuseria, 
 M. A. Robb, J. R. Cheeseman, G. Scalmani, V. Barone, 
 G. A. Petersson, H. Nakatsuji, X. Li, M. Caricato, A. V. Marenich, 
 J. Bloino, B. G. Janesko, R. Gomperts, B. Mennucci, H. P. Hratchian, 
 J. V. Ortiz, A. F. Izmaylov, J. L. Sonnenberg, D. Williams-Young, 
 F. Ding, F. Lipparini, F. Egidi, J. Goings, B. Peng, A. Petrone, 
 T. Henderson, D. Ranasinghe, V. G. Zakrzewski, J. Gao, N. Rega, 
 G. Zheng, W. Liang, M. Hada, M. Ehara, K. Toyota, R. Fukuda, 
 J. Hasegawa, M. Ishida, T. Nakajima, Y. Honda, O. Kitao, H. Nakai, 
 T. Vreven, K. Throssell, J. A. Montgomery, Jr., J. E. Peralta, 
 F. Ogliaro, M. J. Bearpark, J. J. Heyd, E. N. Brothers, K. N. Kudin, 
 V. N. Staroverov, T. A. Keith, R. Kobayashi, J. Normand, 
 K. Raghavachari, A. P. Rendell, J. C. Burant, S. S. Iyengar, 
 J. Tomasi, M. Cossi, J. M. Millam, M. Klene, C. Adamo, R. Cammi, 
 J. W. Ochterski, R. L. Martin, K. Morokuma, O. Farkas, 
 J. B. Foresman, and D. J. Fox, Gaussian, Inc., Wallingford CT, 2016.
 
 ******************************************
 Gaussian 16:  ES64L-G16RevA.03 25-Dec-2016
                23-Jul-2023 
 ******************************************
 %mem=10GB
 %nprocshared=24
 Will use up to   24 processors via shared memory.
 ----------------------------
 # opt freq 6-31+g(d,p) m062x
 ----------------------------
 1/18=20,19=15,26=3,38=1/1,3;
 2/9=110,12=2,17=6,18=5,40=1/2;
 3/5=1,6=6,7=111,11=2,25=1,30=1,71=1,74=-55/1,2,3;
 4//1;
 5/5=2,38=5/2;
 6/7=2,8=2,9=2,10=2,28=1/1;
 7//1,2,3,16;
 1/18=20,19=15,26=3/3(2);
 2/9=110/2;
 99//99;
 2/9=110/2;
 3/5=1,6=6,7=111,11=2,25=1,30=1,71=1,74=-55/1,2,3;
 4/5=5,16=3,69=1/1;
 5/5=2,38=5/2;
 7//1,2,3,16;
 1/18=20,19=15,26=3/3(-5);
 2/9=110/2;
 6/7=2,8=2,9=2,10=2,19=2,28=1/1;
 99/9=1/99;
 ----------
 "Sketch 2"
 ----------
 Symbolic Z-matrix:
 Charge = -2 Multiplicity = 1
 N                    -0.01306  -0.12293  -0.00023 
 N                     0.68613   1.13815  -0.00019 
 C                     2.00566   0.71914   0.00005 
 C                     2.07436  -0.66093   0.00027 
 N                     0.84225  -1.25537  -0.00006 
 H                     2.8154    1.44041   0.00011 
 H                     2.96769  -1.27919   0.00061 
 H                    -1.04104   1.71626   0.00041 
 C                    -1.33675  -0.14052  -0.00012 
 O                    -1.85183   1.15971   0.00026 
 O                    -2.12428  -1.12254  -0.00013 
 

 GradGradGradGradGradGradGradGradGradGradGradGradGradGradGradGradGradGrad
 Berny optimization.
 Initialization pass.
                           ----------------------------
                           !    Initial Parameters    !
                           ! (Angstroms and Degrees)  !
 --------------------------                            --------------------------
 ! Name  Definition              Value          Derivative Info.                !
 --------------------------------------------------------------------------------
 ! R1    R(1,2)                  1.4419         estimate D2E/DX2                !
 ! R2    R(1,5)                  1.4191         estimate D2E/DX2                !
 ! R3    R(1,9)                  1.3238         estimate D2E/DX2                !
 ! R4    R(2,3)                  1.3845         estimate D2E/DX2                !
 ! R5    R(3,4)                  1.3818         estimate D2E/DX2                !
 ! R6    R(3,6)                  1.0844         estimate D2E/DX2                !
 ! R7    R(4,5)                  1.368          estimate D2E/DX2                !
 ! R8    R(4,7)                  1.0864         estimate D2E/DX2                !
 ! R9    R(8,10)                 0.9834         estimate D2E/DX2                !
 ! R10   R(9,10)                 1.3985         estimate D2E/DX2                !
 ! R11   R(9,11)                 1.2588         estimate D2E/DX2                !
 ! A1    A(2,1,5)              113.9318         estimate D2E/DX2                !
 ! A2    A(2,1,9)              119.7669         estimate D2E/DX2                !
 ! A3    A(5,1,9)              126.3013         estimate D2E/DX2                !
 ! A4    A(1,2,3)              101.3886         estimate D2E/DX2                !
 ! A5    A(2,3,4)              110.4668         estimate D2E/DX2                !
 ! A6    A(2,3,6)              120.6905         estimate D2E/DX2                !
 ! A7    A(4,3,6)              128.8427         estimate D2E/DX2                !
 ! A8    A(3,4,5)              112.9054         estimate D2E/DX2                !
 ! A9    A(3,4,7)              127.5365         estimate D2E/DX2                !
 ! A10   A(5,4,7)              119.5581         estimate D2E/DX2                !
 ! A11   A(1,5,4)              101.3074         estimate D2E/DX2                !
 ! A12   A(1,9,10)             110.8497         estimate D2E/DX2                !
 ! A13   A(1,9,11)             129.4892         estimate D2E/DX2                !
 ! A14   A(10,9,11)            119.6611         estimate D2E/DX2                !
 ! A15   A(8,10,9)             102.8562         estimate D2E/DX2                !
 ! D1    D(5,1,2,3)             -0.001          estimate D2E/DX2                !
 ! D2    D(9,1,2,3)            179.9839         estimate D2E/DX2                !
 ! D3    D(2,1,5,4)              0.0074         estimate D2E/DX2                !
 ! D4    D(9,1,5,4)           -179.9763         estimate D2E/DX2                !
 ! D5    D(2,1,9,10)            -0.0098         estimate D2E/DX2                !
 ! D6    D(2,1,9,11)           180.0            estimate D2E/DX2                !
 ! D7    D(5,1,9,10)           179.973          estimate D2E/DX2                !
 ! D8    D(5,1,9,11)            -0.0172         estimate D2E/DX2                !
 ! D9    D(1,2,3,4)             -0.0061         estimate D2E/DX2                !
 ! D10   D(1,2,3,6)            179.998          estimate D2E/DX2                !
 ! D11   D(2,3,4,5)              0.0118         estimate D2E/DX2                !
 ! D12   D(2,3,4,7)           -179.9915         estimate D2E/DX2                !
 ! D13   D(6,3,4,5)           -179.9927         estimate D2E/DX2                !
 ! D14   D(6,3,4,7)              0.0039         estimate D2E/DX2                !
 ! D15   D(3,4,5,1)             -0.0113         estimate D2E/DX2                !
 ! D16   D(7,4,5,1)            179.9918         estimate D2E/DX2                !
 ! D17   D(1,9,10,8)            -0.0045         estimate D2E/DX2                !
 ! D18   D(11,9,10,8)          179.9868         estimate D2E/DX2                !
 --------------------------------------------------------------------------------
 Trust Radius=3.00D-01 FncErr=1.00D-07 GrdErr=1.00D-06 EigMax=2.50D+02 EigMin=1.00D-04
 Number of steps in this run=     54 maximum allowed number of steps=    100.
 GradGradGradGradGradGradGradGradGradGradGradGradGradGradGradGradGradGrad

                          Input orientation:                          
 ---------------------------------------------------------------------
 Center     Atomic      Atomic             Coordinates (Angstroms)
 Number     Number       Type             X           Y           Z
 ---------------------------------------------------------------------
      1          7           0       -0.013059   -0.122925   -0.000231
      2          7           0        0.686125    1.138153   -0.000185
      3          6           0        2.005661    0.719144    0.000049
      4          6           0        2.074363   -0.660926    0.000270
      5          7           0        0.842245   -1.255370   -0.000057
      6          1           0        2.815400    1.440408    0.000109
      7          1           0        2.967691   -1.279186    0.000607
      8          1           0       -1.041045    1.716264    0.000405
      9          6           0       -1.336746   -0.140517   -0.000119
     10          8           0       -1.851833    1.159706    0.000259
     11          8           0       -2.124279   -1.122543   -0.000134
 ---------------------------------------------------------------------
                    Distance matrix (angstroms):
                    1          2          3          4          5
     1  N    0.000000
     2  N    1.441935   0.000000
     3  C    2.187307   1.384465   0.000000
     4  C    2.155638   2.272419   1.381779   0.000000
     5  N    1.419146   2.398609   2.291777   1.368020   0.000000
     6  H    3.231747   2.150621   1.084389   2.228170   3.340742
     7  H    3.197157   3.324014   2.217842   1.086407   2.125580
     8  H    2.106982   1.821354   3.205724   3.918775   3.518152
     9  C    1.323804   2.393116   3.451188   3.450578   2.447631
    10  O    2.241926   2.538050   3.882571   4.327784   3.618100
    11  O    2.335912   3.606815   4.521970   4.223942   2.969496
                    6          7          8          9         10
     6  H    0.000000
     7  H    2.723855   0.000000
     8  H    3.866299   5.004267   0.000000
     9  C    4.442931   4.452499   1.880180   0.000000
    10  O    4.675667   5.401482   0.983430   1.398533   0.000000
    11  O    5.564993   5.094379   3.038457   1.258802   2.298453
                   11
    11  O    0.000000
 Stoichiometry    C3H3N3O2(2-)
 Framework group  C1[X(C3H3N3O2)]
 Deg. of freedom    27
 Full point group                 C1      NOp   1
 Largest Abelian subgroup         C1      NOp   1
 Largest concise Abelian subgroup C1      NOp   1
                         Standard orientation:                         
 ---------------------------------------------------------------------
 Center     Atomic      Atomic             Coordinates (Angstroms)
 Number     Number       Type             X           Y           Z
 ---------------------------------------------------------------------
      1          7           0       -0.013059   -0.122925   -0.000231
      2          7           0        0.686125    1.138153   -0.000185
      3          6           0        2.005661    0.719144    0.000049
      4          6           0        2.074363   -0.660926    0.000270
      5          7           0        0.842245   -1.255370   -0.000057
      6          1           0        2.815400    1.440408    0.000109
      7          1           0        2.967691   -1.279186    0.000607
      8          1           0       -1.041045    1.716264    0.000405
      9          6           0       -1.336746   -0.140517   -0.000119
     10          8           0       -1.851833    1.159706    0.000259
     11          8           0       -2.124279   -1.122543   -0.000134
 ---------------------------------------------------------------------
 Rotational constants (GHZ):           5.0317571           1.7877994           1.3191140
 Standard basis: 6-31+G(d,p) (6D, 7F)
 There are   167 symmetry adapted cartesian basis functions of A   symmetry.
 There are   167 symmetry adapted basis functions of A   symmetry.
   167 basis functions,   277 primitive gaussians,   167 cartesian basis functions
    30 alpha electrons       30 beta electrons
       nuclear repulsion energy       356.2597406475 Hartrees.
 NAtoms=   11 NActive=   11 NUniq=   11 SFac= 1.00D+00 NAtFMM=   60 NAOKFM=F Big=F
 Integral buffers will be    131072 words long.
 Raffenetti 2 integral format.
 Two-electron integral symmetry is turned on.
 One-electron integrals computed using PRISM.
 NBasis=   167 RedAO= T EigKep=  2.95D-05  NBF=   167
 NBsUse=   167 1.00D-06 EigRej= -1.00D+00 NBFU=   167
 ExpMin= 4.38D-02 ExpMax= 5.48D+03 ExpMxC= 8.25D+02 IAcc=3 IRadAn=         5 AccDes= 0.00D+00
 Harris functional with IExCor= 1009 and IRadAn=       5 diagonalized for initial guess.
 HarFok:  IExCor= 1009 AccDes= 0.00D+00 IRadAn=         5 IDoV= 1 UseB2=F ITyADJ=14
 ICtDFT=  3500011 ScaDFX=  1.000000  1.000000  1.000000  1.000000
 FoFCou: FMM=F IPFlag=           0 FMFlag=      100000 FMFlg1=           0
         NFxFlg=           0 DoJE=T BraDBF=F KetDBF=T FulRan=T
         wScrn=  0.000000 ICntrl=       500 IOpCl=  0 I1Cent=   200000004 NGrid=           0
         NMat0=    1 NMatS0=      1 NMatT0=    0 NMatD0=    1 NMtDS0=    0 NMtDT0=    0
 Petite list used in FoFCou.
 Keep R1 ints in memory in canonical form, NReq=122219251.
 Requested convergence on RMS density matrix=1.00D-08 within 128 cycles.
 Requested convergence on MAX density matrix=1.00D-06.
 Requested convergence on             energy=1.00D-06.
 No special actions if energy rises.
 SCF Done:  E(RM062X) =  -430.482940942     A.U. after   35 cycles
            NFock= 35  Conv=0.33D-08     -V/T= 2.0081

 **********************************************************************

            Population analysis using the SCF density.

 **********************************************************************

 Orbital symmetries:
       Occupied  (A) (A) (A) (A) (A) (A) (A) (A) (A) (A) (A) (A)
                 (A) (A) (A) (A) (A) (A) (A) (A) (A) (A) (A) (A)
                 (A) (A) (A) (A) (A) (A)
       Virtual   (A) (A) (A) (A) (A) (A) (A) (A) (A) (A) (A) (A)
                 (A) (A) (A) (A) (A) (A) (A) (A) (A) (A) (A) (A)
                 (A) (A) (A) (A) (A) (A) (A) (A) (A) (A) (A) (A)
                 (A) (A) (A) (A) (A) (A) (A) (A) (A) (A) (A) (A)
                 (A) (A) (A) (A) (A) (A) (A) (A) (A) (A) (A) (A)
                 (A) (A) (A) (A) (A) (A) (A) (A) (A) (A) (A) (A)
                 (A) (A) (A) (A) (A) (A) (A) (A) (A) (A) (A) (A)
                 (A) (A) (A) (A) (A) (A) (A) (A) (A) (A) (A) (A)
                 (A) (A) (A) (A) (A) (A) (A) (A) (A) (A) (A) (A)
                 (A) (A) (A) (A) (A) (A) (A) (A) (A) (A) (A) (A)
                 (A) (A) (A) (A) (A) (A) (A) (A) (A) (A) (A) (A)
                 (A) (A) (A) (A) (A)
 The electronic state is 1-A.
 Alpha  occ. eigenvalues --  -19.33924 -19.26265 -14.49898 -14.41302 -14.40794
 Alpha  occ. eigenvalues --  -10.32932 -10.23824 -10.23664  -0.87383  -0.78864
 Alpha  occ. eigenvalues --   -0.75910  -0.59380  -0.58646  -0.41548  -0.33329
 Alpha  occ. eigenvalues --   -0.31844  -0.26403  -0.20451  -0.19348  -0.19042
 Alpha  occ. eigenvalues --   -0.14713  -0.12795  -0.12268  -0.04660  -0.04649
 Alpha  occ. eigenvalues --   -0.00991   0.00318   0.01280   0.01816   0.19913
 Alpha virt. eigenvalues --    0.25420   0.25697   0.28967   0.30401   0.31125
 Alpha virt. eigenvalues --    0.31202   0.32826   0.33521   0.33929   0.34435
 Alpha virt. eigenvalues --    0.37239   0.39459   0.41839   0.43911   0.45385
 Alpha virt. eigenvalues --    0.47359   0.48164   0.49687   0.49876   0.50878
 Alpha virt. eigenvalues --    0.51369   0.52572   0.52688   0.54264   0.54594
 Alpha virt. eigenvalues --    0.55933   0.56304   0.57985   0.58461   0.58756
 Alpha virt. eigenvalues --    0.59658   0.61286   0.62461   0.62960   0.63492
 Alpha virt. eigenvalues --    0.66488   0.68645   0.69937   0.70788   0.73087
 Alpha virt. eigenvalues --    0.77853   0.79173   0.85027   0.87754   0.97267
 Alpha virt. eigenvalues --    1.01893   1.04987   1.08854   1.14142   1.15352
 Alpha virt. eigenvalues --    1.17412   1.22519   1.23061   1.26501   1.28829
 Alpha virt. eigenvalues --    1.30672   1.33676   1.36847   1.38593   1.39390
 Alpha virt. eigenvalues --    1.40811   1.44616   1.46123   1.51343   1.53514
 Alpha virt. eigenvalues --    1.55366   1.55500   1.63747   1.63953   1.67799
 Alpha virt. eigenvalues --    1.68513   1.70099   1.70400   1.72556   1.74185
 Alpha virt. eigenvalues --    1.75519   1.76229   1.77772   1.78793   1.81811
 Alpha virt. eigenvalues --    1.84326   1.92012   1.92886   1.97157   1.97389
 Alpha virt. eigenvalues --    2.01986   2.18165   2.19773   2.21059   2.23210
 Alpha virt. eigenvalues --    2.27174   2.30263   2.32835   2.33344   2.35040
 Alpha virt. eigenvalues --    2.37297   2.42688   2.43107   2.50055   2.55704
 Alpha virt. eigenvalues --    2.57919   2.62356   2.64368   2.65310   2.77358
 Alpha virt. eigenvalues --    2.78288   2.81977   2.85675   2.86430   2.87355
 Alpha virt. eigenvalues --    2.93017   2.97130   2.98328   3.03510   3.03913
 Alpha virt. eigenvalues --    3.08483   3.14030   3.14165   3.19958   3.30219
 Alpha virt. eigenvalues --    3.33900   3.35691   3.46166   3.47133   3.57276
 Alpha virt. eigenvalues --    3.59729   3.67109   3.91226   4.03391   4.37483
 Alpha virt. eigenvalues --    4.58794   4.63083   4.66221   4.76240   4.89791
 Alpha virt. eigenvalues --    4.97903   5.06977
          Condensed to atoms (all electrons):
               1          2          3          4          5          6
     1  N    7.712916  -0.388427   0.332447   0.167582  -0.500448  -0.013185
     2  N   -0.388427   8.467991  -0.374647  -0.333099   0.123392  -0.047795
     3  C    0.332447  -0.374647   6.511255   0.135490  -0.435796   0.386439
     4  C    0.167582  -0.333099   0.135490   6.193058  -0.140660  -0.032078
     5  N   -0.500448   0.123392  -0.435796  -0.140660   8.316048   0.010808
     6  H   -0.013185  -0.047795   0.386439  -0.032078   0.010808   0.625526
     7  H   -0.019374   0.005048  -0.039539   0.389213  -0.042626   0.000156
     8  H   -0.045959   0.092670   0.002165   0.003907  -0.018489  -0.000051
     9  C    0.198535   0.025623  -0.027008  -0.056167   0.028895   0.001114
    10  O   -0.174994  -0.087439   0.010572  -0.036443   0.043095  -0.000203
    11  O   -0.208244   0.039467  -0.011394  -0.019225   0.010462  -0.000008
               7          8          9         10         11
     1  N   -0.019374  -0.045959   0.198535  -0.174994  -0.208244
     2  N    0.005048   0.092670   0.025623  -0.087439   0.039467
     3  C   -0.039539   0.002165  -0.027008   0.010572  -0.011394
     4  C    0.389213   0.003907  -0.056167  -0.036443  -0.019225
     5  N   -0.042626  -0.018489   0.028895   0.043095   0.010462
     6  H    0.000156  -0.000051   0.001114  -0.000203  -0.000008
     7  H    0.643343  -0.000006   0.000658   0.000022  -0.000086
     8  H   -0.000006   0.329537   0.000172   0.227560   0.010294
     9  C    0.000658   0.000172   4.589443   0.187438   0.493430
    10  O    0.000022   0.227560   0.187438   8.520801  -0.090074
    11  O   -0.000086   0.010294   0.493430  -0.090074   8.523705
 Mulliken charges:
               1
     1  N   -0.060850
     2  N   -0.522785
     3  C   -0.489981
     4  C   -0.271577
     5  N   -0.394681
     6  H    0.069277
     7  H    0.063192
     8  H    0.398199
     9  C    0.557867
    10  O   -0.600335
    11  O   -0.748327
 Sum of Mulliken charges =  -2.00000
 Mulliken charges with hydrogens summed into heavy atoms:
               1
     1  N   -0.060850
     2  N   -0.522785
     3  C   -0.420704
     4  C   -0.208385
     5  N   -0.394681
     9  C    0.557867
    10  O   -0.202136
    11  O   -0.748327
 Electronic spatial extent (au):  <R**2>=            895.8098
 Charge=             -2.0000 electrons
 Dipole moment (field-independent basis, Debye):
    X=              0.2064    Y=              2.5062    Z=             -0.0006  Tot=              2.5147
 Quadrupole moment (field-independent basis, Debye-Ang):
   XX=            -92.2979   YY=            -71.1363   ZZ=            -62.4036
   XY=             -5.0466   XZ=             -0.0041   YZ=              0.0037
 Traceless Quadrupole moment (field-independent basis, Debye-Ang):
   XX=            -17.0186   YY=              4.1430   ZZ=             12.8756
   XY=             -5.0466   XZ=             -0.0041   YZ=              0.0037
 Octapole moment (field-independent basis, Debye-Ang**2):
  XXX=            -22.5246  YYY=             13.0503  ZZZ=             -0.0139  XYY=             -4.3739
  XXY=              4.6654  XXZ=             -0.0200  XZZ=            -32.0651  YZZ=             -2.0523
  YYZ=              0.0061  XYZ=              0.0231
 Hexadecapole moment (field-independent basis, Debye-Ang**3):
 XXXX=          -1198.7195 YYYY=           -405.1844 ZZZZ=           -142.1987 XXXY=            -37.1501
 XXXZ=             -0.0897 YYYX=            -17.1192 YYYZ=              0.0298 ZZZX=             -0.0540
 ZZZY=              0.0267 XXYY=           -258.8254 XXZZ=           -245.0592 YYZZ=            -92.8241
 XXYZ=              0.0722 YYXZ=             -0.0024 ZZXY=             -8.4164
 N-N= 3.562597406475D+02 E-N=-1.741314423912D+03  KE= 4.270366318128D+02
 Calling FoFJK, ICntrl=      2127 FMM=F ISym2X=0 I1Cent= 0 IOpClX= 0 NMat=1 NMatS=1 NMatT=0.
 ***** Axes restored to original set *****
 -------------------------------------------------------------------
 Center     Atomic                   Forces (Hartrees/Bohr)
 Number     Number              X              Y              Z
 -------------------------------------------------------------------
      1        7           0.000070878   -0.000120717    0.000000301
      2        7           0.000008648    0.000062669   -0.000013495
      3        6          -0.000056319    0.000007873    0.000012416
      4        6          -0.000026171   -0.000101465   -0.000003953
      5        7           0.000050691    0.000126513    0.000004015
      6        1           0.000000180   -0.000007454    0.000007378
      7        1           0.000027713   -0.000012237   -0.000011254
      8        1           0.000002610    0.000004194    0.000000736
      9        6          -0.000030655    0.000077947    0.000018445
     10        8          -0.000024181   -0.000032970   -0.000013658
     11        8          -0.000023395   -0.000004354   -0.000000930
 -------------------------------------------------------------------
 Cartesian Forces:  Max     0.000126513 RMS     0.000045299

 GradGradGradGradGradGradGradGradGradGradGradGradGradGradGradGradGradGrad
 Berny optimization.
 FormGI is forming the generalized inverse of G from B-inverse, IUseBI=4.
 Internal  Forces:  Max     0.000075623 RMS     0.000026956
 Search for a local minimum.
 Step number   1 out of a maximum of   54
 All quantities printed in internal units (Hartrees-Bohrs-Radians)
 Mixed Optimization -- En-DIIS/RFO-DIIS
 Second derivative matrix not updated -- first step.
 ITU=  0
     Eigenvalues ---    0.01104   0.01711   0.01889   0.02055   0.02176
     Eigenvalues ---    0.02273   0.02420   0.02700   0.16000   0.16000
     Eigenvalues ---    0.16000   0.22533   0.24719   0.25000   0.25000
     Eigenvalues ---    0.25000   0.35231   0.35469   0.37113   0.40577
     Eigenvalues ---    0.45865   0.46489   0.46928   0.50243   0.50724
     Eigenvalues ---    0.60993   0.80067
 RFO step:  Lambda=-1.35471066D-07 EMin= 1.10380886D-02
 Linear search not attempted -- first point.
 Iteration  1 RMS(Cart)=  0.00033522 RMS(Int)=  0.00000006
 Iteration  2 RMS(Cart)=  0.00000007 RMS(Int)=  0.00000002
 Variable       Old X    -DE/DX   Delta X   Delta X   Delta X     New X
                                 (Linear)    (Quad)   (Total)
    R1        2.72486   0.00003   0.00000   0.00007   0.00007   2.72493
    R2        2.68180  -0.00003   0.00000  -0.00009  -0.00009   2.68171
    R3        2.50163   0.00008   0.00000   0.00012   0.00012   2.50175
    R4        2.61626  -0.00000   0.00000   0.00000   0.00000   2.61626
    R5        2.61118   0.00004   0.00000   0.00007   0.00007   2.61126
    R6        2.04920  -0.00000   0.00000  -0.00001  -0.00001   2.04919
    R7        2.58518  -0.00007   0.00000  -0.00015  -0.00015   2.58503
    R8        2.05301   0.00003   0.00000   0.00008   0.00008   2.05310
    R9        1.85841   0.00000   0.00000   0.00001   0.00001   1.85842
   R10        2.64284  -0.00002   0.00000  -0.00004  -0.00004   2.64280
   R11        2.37879   0.00002   0.00000   0.00002   0.00002   2.37881
    A1        1.98849  -0.00001   0.00000  -0.00004  -0.00004   1.98845
    A2        2.09033  -0.00002   0.00000  -0.00008  -0.00008   2.09025
    A3        2.20437   0.00003   0.00000   0.00011   0.00011   2.20449
    A4        1.76956  -0.00004   0.00000  -0.00012  -0.00012   1.76944
    A5        1.92801   0.00003   0.00000   0.00017   0.00017   1.92818
    A6        2.10645  -0.00001   0.00000  -0.00006  -0.00006   2.10639
    A7        2.24873  -0.00002   0.00000  -0.00011  -0.00011   2.24861
    A8        1.97057  -0.00005   0.00000  -0.00021  -0.00021   1.97036
    A9        2.22593   0.00002   0.00000   0.00006   0.00006   2.22599
   A10        2.08668   0.00003   0.00000   0.00015   0.00015   2.08684
   A11        1.76815   0.00006   0.00000   0.00020   0.00020   1.76835
   A12        1.93469   0.00005   0.00000   0.00019   0.00019   1.93489
   A13        2.26001  -0.00001   0.00000  -0.00003  -0.00003   2.25998
   A14        2.08848  -0.00004   0.00000  -0.00016  -0.00016   2.08832
   A15        1.79518   0.00000   0.00000   0.00002   0.00002   1.79520
    D1       -0.00002  -0.00001   0.00000  -0.00034  -0.00034  -0.00036
    D2        3.14131  -0.00000   0.00000  -0.00028  -0.00028   3.14103
    D3        0.00013  -0.00000   0.00000   0.00003   0.00003   0.00016
    D4       -3.14118  -0.00000   0.00000  -0.00004  -0.00004  -3.14122
    D5       -0.00017   0.00001   0.00000   0.00049   0.00049   0.00032
    D6        3.14159   0.00000   0.00000  -0.00002  -0.00002   3.14158
    D7        3.14112   0.00001   0.00000   0.00056   0.00056  -3.14150
    D8       -0.00030   0.00000   0.00000   0.00006   0.00006  -0.00024
    D9       -0.00011   0.00001   0.00000   0.00052   0.00052   0.00041
   D10        3.14156   0.00000   0.00000   0.00021   0.00021  -3.14142
   D11        0.00021  -0.00001   0.00000  -0.00057  -0.00057  -0.00036
   D12       -3.14145  -0.00001   0.00000  -0.00047  -0.00047   3.14127
   D13       -3.14147  -0.00001   0.00000  -0.00022  -0.00022   3.14150
   D14        0.00007  -0.00000   0.00000  -0.00013  -0.00013  -0.00006
   D15       -0.00020   0.00001   0.00000   0.00031   0.00031   0.00011
   D16        3.14145   0.00001   0.00000   0.00022   0.00022  -3.14151
   D17       -0.00008  -0.00001   0.00000  -0.00026  -0.00026  -0.00034
   D18        3.14136   0.00000   0.00000   0.00019   0.00019   3.14155
         Item               Value     Threshold  Converged?
 Maximum Force            0.000076     0.000450     YES
 RMS     Force            0.000027     0.000300     YES
 Maximum Displacement     0.000971     0.001800     YES
 RMS     Displacement     0.000335     0.001200     YES
 Predicted change in Energy=-6.773590D-08
 Optimization completed.
    -- Stationary point found.
                           ----------------------------
                           !   Optimized Parameters   !
                           ! (Angstroms and Degrees)  !
 --------------------------                            --------------------------
 ! Name  Definition              Value          Derivative Info.                !
 --------------------------------------------------------------------------------
 ! R1    R(1,2)                  1.4419         -DE/DX =    0.0                 !
 ! R2    R(1,5)                  1.4191         -DE/DX =    0.0                 !
 ! R3    R(1,9)                  1.3238         -DE/DX =    0.0001              !
 ! R4    R(2,3)                  1.3845         -DE/DX =    0.0                 !
 ! R5    R(3,4)                  1.3818         -DE/DX =    0.0                 !
 ! R6    R(3,6)                  1.0844         -DE/DX =    0.0                 !
 ! R7    R(4,5)                  1.368          -DE/DX =   -0.0001              !
 ! R8    R(4,7)                  1.0864         -DE/DX =    0.0                 !
 ! R9    R(8,10)                 0.9834         -DE/DX =    0.0                 !
 ! R10   R(9,10)                 1.3985         -DE/DX =    0.0                 !
 ! R11   R(9,11)                 1.2588         -DE/DX =    0.0                 !
 ! A1    A(2,1,5)              113.9318         -DE/DX =    0.0                 !
 ! A2    A(2,1,9)              119.7669         -DE/DX =    0.0                 !
 ! A3    A(5,1,9)              126.3013         -DE/DX =    0.0                 !
 ! A4    A(1,2,3)              101.3886         -DE/DX =    0.0                 !
 ! A5    A(2,3,4)              110.4668         -DE/DX =    0.0                 !
 ! A6    A(2,3,6)              120.6905         -DE/DX =    0.0                 !
 ! A7    A(4,3,6)              128.8427         -DE/DX =    0.0                 !
 ! A8    A(3,4,5)              112.9054         -DE/DX =    0.0                 !
 ! A9    A(3,4,7)              127.5365         -DE/DX =    0.0                 !
 ! A10   A(5,4,7)              119.5581         -DE/DX =    0.0                 !
 ! A11   A(1,5,4)              101.3074         -DE/DX =    0.0001              !
 ! A12   A(1,9,10)             110.8497         -DE/DX =    0.0                 !
 ! A13   A(1,9,11)             129.4892         -DE/DX =    0.0                 !
 ! A14   A(10,9,11)            119.6611         -DE/DX =    0.0                 !
 ! A15   A(8,10,9)             102.8562         -DE/DX =    0.0                 !
 ! D1    D(5,1,2,3)             -0.001          -DE/DX =    0.0                 !
 ! D2    D(9,1,2,3)            179.9839         -DE/DX =    0.0                 !
 ! D3    D(2,1,5,4)              0.0074         -DE/DX =    0.0                 !
 ! D4    D(9,1,5,4)           -179.9763         -DE/DX =    0.0                 !
 ! D5    D(2,1,9,10)            -0.0098         -DE/DX =    0.0                 !
 ! D6    D(2,1,9,11)           180.0            -DE/DX =    0.0                 !
 ! D7    D(5,1,9,10)          -180.027          -DE/DX =    0.0                 !
 ! D8    D(5,1,9,11)            -0.0172         -DE/DX =    0.0                 !
 ! D9    D(1,2,3,4)             -0.0061         -DE/DX =    0.0                 !
 ! D10   D(1,2,3,6)           -180.002          -DE/DX =    0.0                 !
 ! D11   D(2,3,4,5)              0.0118         -DE/DX =    0.0                 !
 ! D12   D(2,3,4,7)            180.0085         -DE/DX =    0.0                 !
 ! D13   D(6,3,4,5)            180.0073         -DE/DX =    0.0                 !
 ! D14   D(6,3,4,7)              0.0039         -DE/DX =    0.0                 !
 ! D15   D(3,4,5,1)             -0.0113         -DE/DX =    0.0                 !
 ! D16   D(7,4,5,1)           -180.0082         -DE/DX =    0.0                 !
 ! D17   D(1,9,10,8)            -0.0045         -DE/DX =    0.0                 !
 ! D18   D(11,9,10,8)          179.9868         -DE/DX =    0.0                 !
 --------------------------------------------------------------------------------
 GradGradGradGradGradGradGradGradGradGradGradGradGradGradGradGradGradGrad

                          Input orientation:                          
 ---------------------------------------------------------------------
 Center     Atomic      Atomic             Coordinates (Angstroms)
 Number     Number       Type             X           Y           Z
 ---------------------------------------------------------------------
      1          7           0       -0.013059   -0.122925   -0.000231
      2          7           0        0.686125    1.138153   -0.000185
      3          6           0        2.005661    0.719144    0.000049
      4          6           0        2.074363   -0.660926    0.000270
      5          7           0        0.842245   -1.255370   -0.000057
      6          1           0        2.815400    1.440408    0.000109
      7          1           0        2.967691   -1.279186    0.000607
      8          1           0       -1.041045    1.716264    0.000405
      9          6           0       -1.336746   -0.140517   -0.000119
     10          8           0       -1.851833    1.159706    0.000259
     11          8           0       -2.124279   -1.122543   -0.000134
 ---------------------------------------------------------------------
                    Distance matrix (angstroms):
                    1          2          3          4          5
     1  N    0.000000
     2  N    1.441935   0.000000
     3  C    2.187307   1.384465   0.000000
     4  C    2.155638   2.272419   1.381779   0.000000
     5  N    1.419146   2.398609   2.291777   1.368020   0.000000
     6  H    3.231747   2.150621   1.084389   2.228170   3.340742
     7  H    3.197157   3.324014   2.217842   1.086407   2.125580
     8  H    2.106982   1.821354   3.205724   3.918775   3.518152
     9  C    1.323804   2.393116   3.451188   3.450578   2.447631
    10  O    2.241926   2.538050   3.882571   4.327784   3.618100
    11  O    2.335912   3.606815   4.521970   4.223942   2.969496
                    6          7          8          9         10
     6  H    0.000000
     7  H    2.723855   0.000000
     8  H    3.866299   5.004267   0.000000
     9  C    4.442931   4.452499   1.880180   0.000000
    10  O    4.675667   5.401482   0.983430   1.398533   0.000000
    11  O    5.564993   5.094379   3.038457   1.258802   2.298453
                   11
    11  O    0.000000
 Stoichiometry    C3H3N3O2(2-)
 Framework group  C1[X(C3H3N3O2)]
 Deg. of freedom    27
 Full point group                 C1      NOp   1
 Largest Abelian subgroup         C1      NOp   1
 Largest concise Abelian subgroup C1      NOp   1
                         Standard orientation:                         
 ---------------------------------------------------------------------
 Center     Atomic      Atomic             Coordinates (Angstroms)
 Number     Number       Type             X           Y           Z
 ---------------------------------------------------------------------
      1          7           0       -0.013059   -0.122925   -0.000231
      2          7           0        0.686125    1.138153   -0.000185
      3          6           0        2.005661    0.719144    0.000049
      4          6           0        2.074363   -0.660926    0.000270
      5          7           0        0.842245   -1.255370   -0.000057
      6          1           0        2.815400    1.440408    0.000109
      7          1           0        2.967691   -1.279186    0.000607
      8          1           0       -1.041045    1.716264    0.000405
      9          6           0       -1.336746   -0.140517   -0.000119
     10          8           0       -1.851833    1.159706    0.000259
     11          8           0       -2.124279   -1.122543   -0.000134
 ---------------------------------------------------------------------
 Rotational constants (GHZ):           5.0317571           1.7877994           1.3191140
 1\1\GINC-NODE2\FOpt\RM062X\6-31+G(d,p)\C3H3N3O2(2-)\GONGKE2021\23-Jul-
 2023\0\\# opt freq 6-31+g(d,p) m062x\\"Sketch 2"\\-2,1\N,-0.013059,-0.
 122925,-0.000231\N,0.686125,1.138153,-0.000185\C,2.005661,0.719144,0.0
 00049\C,2.074363,-0.660926,0.00027\N,0.842245,-1.25537,-0.000057\H,2.8
 154,1.440408,0.000109\H,2.967691,-1.279186,0.000607\H,-1.041045,1.7162
 64,0.000405\C,-1.336746,-0.140517,-0.000119\O,-1.851833,1.159706,0.000
 259\O,-2.124279,-1.122543,-0.000134\\Version=ES64L-G16RevA.03\State=1-
 A\HF=-430.4829409\RMSD=3.305e-09\RMSF=4.530e-05\Dipole=0.0812223,0.986
 0036,-0.0002505\Quadrupole=-12.6529107,3.0801908,9.5727199,-3.7520417,
 -0.003066,0.002777\PG=C01 [X(C3H3N3O2)]\\@


 YOU CAN WIPE THE SLATE CLEAN, BUT YOU'LL STILL
 HAVE TO EAT A LITTLE CHALK DUST.
 Job cpu time:       0 days  0 hours 17 minutes 49.5 seconds.
 Elapsed time:       0 days  0 hours  0 minutes 58.7 seconds.
 File lengths (MBytes):  RWF=     14 Int=      0 D2E=      0 Chk=      3 Scr=      1
 Normal termination of Gaussian 16 at Sun Jul 23 02:14:42 2023.
 Link1:  Proceeding to internal job step number  2.
 ----------------------------------------------------------------------
 #N Geom=AllCheck Guess=TCheck SCRF=Check GenChk RM062X/6-31+G(d,p) Fre
 q
 ----------------------------------------------------------------------
 1/10=4,29=7,30=1,38=1,40=1/1,3;
 2/12=2,40=1/2;
 3/5=1,6=6,7=111,11=2,14=-4,25=1,30=1,70=2,71=2,74=-55,116=1,140=1/1,2,3;
 4/5=101/1;
 5/5=2,38=6,98=1/2;
 8/6=4,10=90,11=11/1;
 11/6=1,8=1,9=11,15=111,16=1/1,2,10;
 10/6=1/2;
 6/7=2,8=2,9=2,10=2,28=1/1;
 7/8=1,10=1,25=1/1,2,3,16;
 1/10=4,30=1/3;
 99//99;
 Structure from the checkpoint file:  "/scratch/gongke2021/1-H-Tz-2-eletron/Gau-8558.chk"
 ----------
 "Sketch 2"
 ----------
 Charge = -2 Multiplicity = 1
 Redundant internal coordinates found in file.  (old form).
 N,0,-0.013059,-0.122925,-0.000231
 N,0,0.686125,1.138153,-0.000185
 C,0,2.005661,0.719144,0.000049
 C,0,2.074363,-0.660926,0.00027
 N,0,0.842245,-1.25537,-0.000057
 H,0,2.8154,1.440408,0.000109
 H,0,2.967691,-1.279186,0.000607
 H,0,-1.041045,1.716264,0.000405
 C,0,-1.336746,-0.140517,-0.000119
 O,0,-1.851833,1.159706,0.000259
 O,0,-2.124279,-1.122543,-0.000134
 Recover connectivity data from disk.

 GradGradGradGradGradGradGradGradGradGradGradGradGradGradGradGradGradGrad
 Berny optimization.
 Initialization pass.
                           ----------------------------
                           !    Initial Parameters    !
                           ! (Angstroms and Degrees)  !
 --------------------------                            --------------------------
 ! Name  Definition              Value          Derivative Info.                !
 --------------------------------------------------------------------------------
 ! R1    R(1,2)                  1.4419         calculate D2E/DX2 analytically  !
 ! R2    R(1,5)                  1.4191         calculate D2E/DX2 analytically  !
 ! R3    R(1,9)                  1.3238         calculate D2E/DX2 analytically  !
 ! R4    R(2,3)                  1.3845         calculate D2E/DX2 analytically  !
 ! R5    R(3,4)                  1.3818         calculate D2E/DX2 analytically  !
 ! R6    R(3,6)                  1.0844         calculate D2E/DX2 analytically  !
 ! R7    R(4,5)                  1.368          calculate D2E/DX2 analytically  !
 ! R8    R(4,7)                  1.0864         calculate D2E/DX2 analytically  !
 ! R9    R(8,10)                 0.9834         calculate D2E/DX2 analytically  !
 ! R10   R(9,10)                 1.3985         calculate D2E/DX2 analytically  !
 ! R11   R(9,11)                 1.2588         calculate D2E/DX2 analytically  !
 ! A1    A(2,1,5)              113.9318         calculate D2E/DX2 analytically  !
 ! A2    A(2,1,9)              119.7669         calculate D2E/DX2 analytically  !
 ! A3    A(5,1,9)              126.3013         calculate D2E/DX2 analytically  !
 ! A4    A(1,2,3)              101.3886         calculate D2E/DX2 analytically  !
 ! A5    A(2,3,4)              110.4668         calculate D2E/DX2 analytically  !
 ! A6    A(2,3,6)              120.6905         calculate D2E/DX2 analytically  !
 ! A7    A(4,3,6)              128.8427         calculate D2E/DX2 analytically  !
 ! A8    A(3,4,5)              112.9054         calculate D2E/DX2 analytically  !
 ! A9    A(3,4,7)              127.5365         calculate D2E/DX2 analytically  !
 ! A10   A(5,4,7)              119.5581         calculate D2E/DX2 analytically  !
 ! A11   A(1,5,4)              101.3074         calculate D2E/DX2 analytically  !
 ! A12   A(1,9,10)             110.8497         calculate D2E/DX2 analytically  !
 ! A13   A(1,9,11)             129.4892         calculate D2E/DX2 analytically  !
 ! A14   A(10,9,11)            119.6611         calculate D2E/DX2 analytically  !
 ! A15   A(8,10,9)             102.8562         calculate D2E/DX2 analytically  !
 ! D1    D(5,1,2,3)             -0.001          calculate D2E/DX2 analytically  !
 ! D2    D(9,1,2,3)            179.9839         calculate D2E/DX2 analytically  !
 ! D3    D(2,1,5,4)              0.0074         calculate D2E/DX2 analytically  !
 ! D4    D(9,1,5,4)           -179.9763         calculate D2E/DX2 analytically  !
 ! D5    D(2,1,9,10)            -0.0098         calculate D2E/DX2 analytically  !
 ! D6    D(2,1,9,11)           180.0            calculate D2E/DX2 analytically  !
 ! D7    D(5,1,9,10)           179.973          calculate D2E/DX2 analytically  !
 ! D8    D(5,1,9,11)            -0.0172         calculate D2E/DX2 analytically  !
 ! D9    D(1,2,3,4)             -0.0061         calculate D2E/DX2 analytically  !
 ! D10   D(1,2,3,6)            179.998          calculate D2E/DX2 analytically  !
 ! D11   D(2,3,4,5)              0.0118         calculate D2E/DX2 analytically  !
 ! D12   D(2,3,4,7)           -179.9915         calculate D2E/DX2 analytically  !
 ! D13   D(6,3,4,5)           -179.9927         calculate D2E/DX2 analytically  !
 ! D14   D(6,3,4,7)              0.0039         calculate D2E/DX2 analytically  !
 ! D15   D(3,4,5,1)             -0.0113         calculate D2E/DX2 analytically  !
 ! D16   D(7,4,5,1)            179.9918         calculate D2E/DX2 analytically  !
 ! D17   D(1,9,10,8)            -0.0045         calculate D2E/DX2 analytically  !
 ! D18   D(11,9,10,8)          179.9868         calculate D2E/DX2 analytically  !
 --------------------------------------------------------------------------------
 Trust Radius=3.00D-01 FncErr=1.00D-07 GrdErr=1.00D-07 EigMax=2.50D+02 EigMin=1.00D-04
 Number of steps in this run=      2 maximum allowed number of steps=      2.
 GradGradGradGradGradGradGradGradGradGradGradGradGradGradGradGradGradGrad

                          Input orientation:                          
 ---------------------------------------------------------------------
 Center     Atomic      Atomic             Coordinates (Angstroms)
 Number     Number       Type             X           Y           Z
 ---------------------------------------------------------------------
      1          7           0       -0.013059   -0.122925   -0.000231
      2          7           0        0.686125    1.138153   -0.000185
      3          6           0        2.005661    0.719144    0.000049
      4          6           0        2.074363   -0.660926    0.000270
      5          7           0        0.842245   -1.255370   -0.000057
      6          1           0        2.815400    1.440408    0.000109
      7          1           0        2.967691   -1.279186    0.000607
      8          1           0       -1.041045    1.716264    0.000405
      9          6           0       -1.336746   -0.140517   -0.000119
     10          8           0       -1.851833    1.159706    0.000259
     11          8           0       -2.124279   -1.122543   -0.000134
 ---------------------------------------------------------------------
                    Distance matrix (angstroms):
                    1          2          3          4          5
     1  N    0.000000
     2  N    1.441935   0.000000
     3  C    2.187307   1.384465   0.000000
     4  C    2.155638   2.272419   1.381779   0.000000
     5  N    1.419146   2.398609   2.291777   1.368020   0.000000
     6  H    3.231747   2.150621   1.084389   2.228170   3.340742
     7  H    3.197157   3.324014   2.217842   1.086407   2.125580
     8  H    2.106982   1.821354   3.205724   3.918775   3.518152
     9  C    1.323804   2.393116   3.451188   3.450578   2.447631
    10  O    2.241926   2.538050   3.882571   4.327784   3.618100
    11  O    2.335912   3.606815   4.521970   4.223942   2.969496
                    6          7          8          9         10
     6  H    0.000000
     7  H    2.723855   0.000000
     8  H    3.866299   5.004267   0.000000
     9  C    4.442931   4.452499   1.880180   0.000000
    10  O    4.675667   5.401482   0.983430   1.398533   0.000000
    11  O    5.564993   5.094379   3.038457   1.258802   2.298453
                   11
    11  O    0.000000
 Stoichiometry    C3H3N3O2(2-)
 Framework group  C1[X(C3H3N3O2)]
 Deg. of freedom    27
 Full point group                 C1      NOp   1
 Largest Abelian subgroup         C1      NOp   1
 Largest concise Abelian subgroup C1      NOp   1
                         Standard orientation:                         
 ---------------------------------------------------------------------
 Center     Atomic      Atomic             Coordinates (Angstroms)
 Number     Number       Type             X           Y           Z
 ---------------------------------------------------------------------
      1          7           0       -0.013059   -0.122925   -0.000231
      2          7           0        0.686125    1.138153   -0.000185
      3          6           0        2.005661    0.719144    0.000049
      4          6           0        2.074363   -0.660926    0.000270
      5          7           0        0.842245   -1.255370   -0.000057
      6          1           0        2.815400    1.440408    0.000109
      7          1           0        2.967691   -1.279186    0.000607
      8          1           0       -1.041045    1.716264    0.000405
      9          6           0       -1.336746   -0.140517   -0.000119
     10          8           0       -1.851833    1.159706    0.000259
     11          8           0       -2.124279   -1.122543   -0.000134
 ---------------------------------------------------------------------
 Rotational constants (GHZ):           5.0317571           1.7877994           1.3191140
 Standard basis: 6-31+G(d,p) (6D, 7F)
 There are   167 symmetry adapted cartesian basis functions of A   symmetry.
 There are   167 symmetry adapted basis functions of A   symmetry.
   167 basis functions,   277 primitive gaussians,   167 cartesian basis functions
    30 alpha electrons       30 beta electrons
       nuclear repulsion energy       356.2597406475 Hartrees.
 NAtoms=   11 NActive=   11 NUniq=   11 SFac= 1.00D+00 NAtFMM=   60 NAOKFM=F Big=F
 Integral buffers will be    131072 words long.
 Raffenetti 2 integral format.
 Two-electron integral symmetry is turned on.
 One-electron integrals computed using PRISM.
 NBasis=   167 RedAO= T EigKep=  2.95D-05  NBF=   167
 NBsUse=   167 1.00D-06 EigRej= -1.00D+00 NBFU=   167
 Initial guess from the checkpoint file:  "/scratch/gongke2021/1-H-Tz-2-eletron/Gau-8558.chk"
 B after Tr=     0.000000   -0.000000   -0.000000
         Rot=    1.000000    0.000000   -0.000000    0.000000 Ang=   0.00 deg.
 Keep R1 ints in memory in canonical form, NReq=122219251.
 Requested convergence on RMS density matrix=1.00D-08 within 128 cycles.
 Requested convergence on MAX density matrix=1.00D-06.
 Requested convergence on             energy=1.00D-06.
 No special actions if energy rises.
 Skip diagonalization as Alpha Fock matrix is already diagonal.
 SCF Done:  E(RM062X) =  -430.482940942     A.U. after    1 cycles
            NFock=  1  Conv=0.00D+00     -V/T= 2.0081
 DoSCS=F DFT=T ScalE2(SS,OS)=  1.000000  1.000000
 Range of M.O.s used for correlation:     1   167
 NBasis=   167 NAE=    30 NBE=    30 NFC=     0 NFV=     0
 NROrb=    167 NOA=    30 NOB=    30 NVA=   137 NVB=   137

 **** Warning!!: The largest alpha MO coefficient is  0.59075344D+02


 **** Warning!!: The smallest alpha delta epsilon is  0.55064808D-01

 Symmetrizing basis deriv contribution to polar:
 IMax=3 JMax=2 DiffMx= 0.00D+00
 G2DrvN: will do    12 centers at a time, making    1 passes.
 Calling FoFCou, ICntrl=  3107 FMM=F I1Cent=   0 AccDes= 0.00D+00.
 End of G2Drv F.D. properties file   721 does not exist.
 End of G2Drv F.D. properties file   722 does not exist.
 End of G2Drv F.D. properties file   788 does not exist.
          IDoAtm=11111111111
          Differentiating once with respect to electric field.
                with respect to dipole field.
          Differentiating once with respect to nuclear coordinates.
 Keep R1 ints in memory in canonical form, NReq=122146045.
          There are    36 degrees of freedom in the 1st order CPHF.  IDoFFX=6 NUNeed=     3.
     33 vectors produced by pass  0 Test12= 1.14D-14 2.78D-09 XBig12= 2.25D+02 9.13D+00.
 AX will form    33 AO Fock derivatives at one time.
     33 vectors produced by pass  1 Test12= 1.14D-14 2.78D-09 XBig12= 5.81D+01 3.57D+00.
     33 vectors produced by pass  2 Test12= 1.14D-14 2.78D-09 XBig12= 5.75D+00 8.42D-01.
     33 vectors produced by pass  3 Test12= 1.14D-14 2.78D-09 XBig12= 1.32D-01 8.25D-02.
     33 vectors produced by pass  4 Test12= 1.14D-14 2.78D-09 XBig12= 1.95D-03 1.01D-02.
     33 vectors produced by pass  5 Test12= 1.14D-14 2.78D-09 XBig12= 1.94D-05 6.77D-04.
     33 vectors produced by pass  6 Test12= 1.14D-14 2.78D-09 XBig12= 1.19D-07 8.15D-05.
     20 vectors produced by pass  7 Test12= 1.14D-14 2.78D-09 XBig12= 8.52D-10 8.39D-06.
      3 vectors produced by pass  8 Test12= 1.14D-14 2.78D-09 XBig12= 5.47D-12 4.92D-07.
      3 vectors produced by pass  9 Test12= 1.14D-14 2.78D-09 XBig12= 2.83D-14 2.76D-08.
 InvSVY:  IOpt=1 It=  1 EMax= 3.38D-14
 Solved reduced A of dimension   257 with    36 vectors.
 Isotropic polarizability for W=    0.000000       65.37 Bohr**3.
 End of Minotr F.D. properties file   721 does not exist.
 End of Minotr F.D. properties file   722 does not exist.
 End of Minotr F.D. properties file   788 does not exist.

 **********************************************************************

            Population analysis using the SCF density.

 **********************************************************************

 Orbital symmetries:
       Occupied  (A) (A) (A) (A) (A) (A) (A) (A) (A) (A) (A) (A)
                 (A) (A) (A) (A) (A) (A) (A) (A) (A) (A) (A) (A)
                 (A) (A) (A) (A) (A) (A)
       Virtual   (A) (A) (A) (A) (A) (A) (A) (A) (A) (A) (A) (A)
                 (A) (A) (A) (A) (A) (A) (A) (A) (A) (A) (A) (A)
                 (A) (A) (A) (A) (A) (A) (A) (A) (A) (A) (A) (A)
                 (A) (A) (A) (A) (A) (A) (A) (A) (A) (A) (A) (A)
                 (A) (A) (A) (A) (A) (A) (A) (A) (A) (A) (A) (A)
                 (A) (A) (A) (A) (A) (A) (A) (A) (A) (A) (A) (A)
                 (A) (A) (A) (A) (A) (A) (A) (A) (A) (A) (A) (A)
                 (A) (A) (A) (A) (A) (A) (A) (A) (A) (A) (A) (A)
                 (A) (A) (A) (A) (A) (A) (A) (A) (A) (A) (A) (A)
                 (A) (A) (A) (A) (A) (A) (A) (A) (A) (A) (A) (A)
                 (A) (A) (A) (A) (A) (A) (A) (A) (A) (A) (A) (A)
                 (A) (A) (A) (A) (A)
 The electronic state is 1-A.
 Alpha  occ. eigenvalues --  -19.33924 -19.26265 -14.49898 -14.41302 -14.40794
 Alpha  occ. eigenvalues --  -10.32932 -10.23824 -10.23664  -0.87383  -0.78864
 Alpha  occ. eigenvalues --   -0.75910  -0.59380  -0.58646  -0.41548  -0.33329
 Alpha  occ. eigenvalues --   -0.31844  -0.26403  -0.20451  -0.19348  -0.19042
 Alpha  occ. eigenvalues --   -0.14713  -0.12795  -0.12268  -0.04660  -0.04649
 Alpha  occ. eigenvalues --   -0.00991   0.00318   0.01280   0.01816   0.19913
 Alpha virt. eigenvalues --    0.25420   0.25697   0.28967   0.30401   0.31125
 Alpha virt. eigenvalues --    0.31202   0.32826   0.33521   0.33929   0.34435
 Alpha virt. eigenvalues --    0.37239   0.39459   0.41839   0.43911   0.45385
 Alpha virt. eigenvalues --    0.47359   0.48164   0.49687   0.49876   0.50878
 Alpha virt. eigenvalues --    0.51369   0.52572   0.52688   0.54264   0.54594
 Alpha virt. eigenvalues --    0.55933   0.56304   0.57985   0.58461   0.58756
 Alpha virt. eigenvalues --    0.59658   0.61286   0.62461   0.62960   0.63492
 Alpha virt. eigenvalues --    0.66488   0.68645   0.69937   0.70788   0.73087
 Alpha virt. eigenvalues --    0.77853   0.79173   0.85027   0.87754   0.97267
 Alpha virt. eigenvalues --    1.01893   1.04987   1.08854   1.14142   1.15352
 Alpha virt. eigenvalues --    1.17412   1.22519   1.23061   1.26501   1.28829
 Alpha virt. eigenvalues --    1.30672   1.33676   1.36847   1.38593   1.39390
 Alpha virt. eigenvalues --    1.40811   1.44616   1.46123   1.51343   1.53514
 Alpha virt. eigenvalues --    1.55366   1.55500   1.63747   1.63953   1.67799
 Alpha virt. eigenvalues --    1.68513   1.70099   1.70400   1.72556   1.74185
 Alpha virt. eigenvalues --    1.75519   1.76229   1.77772   1.78793   1.81811
 Alpha virt. eigenvalues --    1.84326   1.92012   1.92886   1.97157   1.97389
 Alpha virt. eigenvalues --    2.01986   2.18165   2.19773   2.21059   2.23210
 Alpha virt. eigenvalues --    2.27174   2.30263   2.32835   2.33344   2.35040
 Alpha virt. eigenvalues --    2.37297   2.42688   2.43107   2.50055   2.55704
 Alpha virt. eigenvalues --    2.57919   2.62356   2.64368   2.65310   2.77358
 Alpha virt. eigenvalues --    2.78288   2.81977   2.85675   2.86430   2.87355
 Alpha virt. eigenvalues --    2.93017   2.97130   2.98328   3.03510   3.03913
 Alpha virt. eigenvalues --    3.08483   3.14030   3.14165   3.19958   3.30219
 Alpha virt. eigenvalues --    3.33900   3.35691   3.46166   3.47133   3.57276
 Alpha virt. eigenvalues --    3.59729   3.67109   3.91226   4.03391   4.37483
 Alpha virt. eigenvalues --    4.58794   4.63083   4.66221   4.76240   4.89791
 Alpha virt. eigenvalues --    4.97903   5.06977
          Condensed to atoms (all electrons):
               1          2          3          4          5          6
     1  N    7.712916  -0.388427   0.332447   0.167582  -0.500448  -0.013185
     2  N   -0.388427   8.467991  -0.374647  -0.333099   0.123392  -0.047795
     3  C    0.332447  -0.374647   6.511255   0.135490  -0.435796   0.386439
     4  C    0.167582  -0.333099   0.135490   6.193058  -0.140660  -0.032078
     5  N   -0.500448   0.123392  -0.435796  -0.140660   8.316048   0.010808
     6  H   -0.013185  -0.047795   0.386439  -0.032078   0.010808   0.625526
     7  H   -0.019374   0.005048  -0.039539   0.389213  -0.042626   0.000156
     8  H   -0.045959   0.092670   0.002165   0.003907  -0.018489  -0.000051
     9  C    0.198535   0.025623  -0.027008  -0.056167   0.028895   0.001114
    10  O   -0.174994  -0.087439   0.010572  -0.036443   0.043095  -0.000203
    11  O   -0.208244   0.039467  -0.011394  -0.019225   0.010462  -0.000008
               7          8          9         10         11
     1  N   -0.019374  -0.045959   0.198535  -0.174994  -0.208244
     2  N    0.005048   0.092670   0.025623  -0.087439   0.039467
     3  C   -0.039539   0.002165  -0.027008   0.010572  -0.011394
     4  C    0.389213   0.003907  -0.056167  -0.036443  -0.019225
     5  N   -0.042626  -0.018489   0.028895   0.043095   0.010462
     6  H    0.000156  -0.000051   0.001114  -0.000203  -0.000008
     7  H    0.643343  -0.000006   0.000658   0.000022  -0.000086
     8  H   -0.000006   0.329537   0.000172   0.227560   0.010294
     9  C    0.000658   0.000172   4.589443   0.187438   0.493430
    10  O    0.000022   0.227560   0.187438   8.520801  -0.090074
    11  O   -0.000086   0.010294   0.493430  -0.090074   8.523705
 Mulliken charges:
               1
     1  N   -0.060850
     2  N   -0.522785
     3  C   -0.489981
     4  C   -0.271577
     5  N   -0.394681
     6  H    0.069277
     7  H    0.063192
     8  H    0.398199
     9  C    0.557867
    10  O   -0.600335
    11  O   -0.748327
 Sum of Mulliken charges =  -2.00000
 Mulliken charges with hydrogens summed into heavy atoms:
               1
     1  N   -0.060850
     2  N   -0.522785
     3  C   -0.420704
     4  C   -0.208385
     5  N   -0.394681
     9  C    0.557867
    10  O   -0.202136
    11  O   -0.748327
 APT charges:
               1
     1  N   -0.023945
     2  N   -1.543125
     3  C   -0.002287
     4  C    1.375381
     5  N   -1.782527
     6  H    0.216932
     7  H   -0.371276
     8  H    0.297640
     9  C    2.425685
    10  O   -1.107884
    11  O   -1.484593
 Sum of APT charges =  -2.00000
 APT charges with hydrogens summed into heavy atoms:
               1
     1  N   -0.023945
     2  N   -1.543125
     3  C    0.214645
     4  C    1.004106
     5  N   -1.782527
     9  C    2.425685
    10  O   -0.810245
    11  O   -1.484593
 Electronic spatial extent (au):  <R**2>=            895.8098
 Charge=             -2.0000 electrons
 Dipole moment (field-independent basis, Debye):
    X=              0.2064    Y=              2.5062    Z=             -0.0006  Tot=              2.5147
 Quadrupole moment (field-independent basis, Debye-Ang):
   XX=            -92.2979   YY=            -71.1363   ZZ=            -62.4036
   XY=             -5.0466   XZ=             -0.0041   YZ=              0.0037
 Traceless Quadrupole moment (field-independent basis, Debye-Ang):
   XX=            -17.0186   YY=              4.1430   ZZ=             12.8756
   XY=             -5.0466   XZ=             -0.0041   YZ=              0.0037
 Octapole moment (field-independent basis, Debye-Ang**2):
  XXX=            -22.5246  YYY=             13.0503  ZZZ=             -0.0139  XYY=             -4.3739
  XXY=              4.6654  XXZ=             -0.0200  XZZ=            -32.0651  YZZ=             -2.0523
  YYZ=              0.0061  XYZ=              0.0231
 Hexadecapole moment (field-independent basis, Debye-Ang**3):
 XXXX=          -1198.7195 YYYY=           -405.1844 ZZZZ=           -142.1987 XXXY=            -37.1501
 XXXZ=             -0.0897 YYYX=            -17.1192 YYYZ=              0.0298 ZZZX=             -0.0540
 ZZZY=              0.0267 XXYY=           -258.8254 XXZZ=           -245.0592 YYZZ=            -92.8241
 XXYZ=              0.0722 YYXZ=             -0.0024 ZZXY=             -8.4164
 N-N= 3.562597406475D+02 E-N=-1.741314423912D+03  KE= 4.270366318128D+02
  Exact polarizability: 215.269  18.598 127.790  -2.518   2.107-146.956
 Approx polarizability: 191.618  18.012 143.611   0.062  -0.181 137.217
 Calling FoFJK, ICntrl=    100127 FMM=F ISym2X=0 I1Cent= 0 IOpClX= 0 NMat=1 NMatS=1 NMatT=0.
 Full mass-weighted force constant matrix:
 Low frequencies ---  -10.5526   -5.8378   -0.0007    0.0006    0.0011    5.0031
 Low frequencies ---   28.4839  190.6428  253.6609
 Diagonal vibrational polarizability:
       51.0521878      19.6215734    1101.4906975
 Harmonic frequencies (cm**-1), IR intensities (KM/Mole), Raman scattering
 activities (A**4/AMU), depolarization ratios for plane and unpolarized
 incident light, reduced masses (AMU), force constants (mDyne/A),
 and normal coordinates:
                      1                      2                      3
                      A                      A                      A
 Frequencies --     28.3465               190.6427               253.6608
 Red. masses --      6.1579                10.1878                 6.6595
 Frc consts  --      0.0029                 0.2182                 0.2525
 IR Inten    --     26.6035                 1.6406                13.4915
  Atom  AN      X      Y      Z        X      Y      Z        X      Y      Z
     1   7     0.00   0.00   0.32    -0.00  -0.00  -0.17     0.01   0.22  -0.00
     2   7     0.00   0.00   0.36    -0.00   0.00   0.26     0.18   0.12   0.00
     3   6     0.00  -0.00  -0.21     0.00   0.00   0.31     0.13  -0.14  -0.00
     4   6     0.00  -0.00  -0.26     0.00  -0.00  -0.09    -0.12  -0.16   0.00
     5   7    -0.00   0.00   0.13     0.00  -0.00  -0.38    -0.21   0.09   0.00
     6   1     0.00  -0.00  -0.37     0.00  -0.00   0.42     0.27  -0.29  -0.00
     7   1     0.00  -0.00  -0.55     0.00   0.00  -0.03    -0.23  -0.33  -0.00
     8   1    -0.00   0.00  -0.39     0.00   0.00  -0.39    -0.48   0.18   0.00
     9   6    -0.00   0.00   0.00     0.00  -0.00  -0.01     0.03   0.06  -0.00
    10   8    -0.00   0.00  -0.21     0.00   0.00  -0.35    -0.29  -0.04   0.00
    11   8     0.00  -0.00  -0.07    -0.00  -0.00   0.45     0.29  -0.14   0.00
                      4                      5                      6
                      A                      A                      A
 Frequencies --    315.5710               443.7436               496.6388
 Red. masses --      7.1586                 7.8093                 2.1810
 Frc consts  --      0.4200                 0.9060                 0.3169
 IR Inten    --    431.5953                 3.7934                83.8814
  Atom  AN      X      Y      Z        X      Y      Z        X      Y      Z
     1   7    -0.00   0.00   0.46    -0.05   0.00   0.00     0.00  -0.00   0.05
     2   7     0.00   0.00  -0.30    -0.19   0.00  -0.00     0.00  -0.00  -0.11
     3   6     0.00  -0.00   0.16    -0.21   0.02   0.00    -0.00   0.00   0.23
     4   6     0.00  -0.00  -0.08    -0.24   0.00  -0.00     0.00  -0.00  -0.13
     5   7    -0.00  -0.00  -0.28    -0.21   0.01   0.00     0.00   0.00   0.09
     6   1     0.00  -0.00   0.22    -0.19  -0.01  -0.00    -0.00   0.00  -0.44
     7   1    -0.00  -0.00   0.55    -0.23   0.02  -0.00     0.00  -0.00  -0.65
     8   1    -0.00   0.00  -0.40     0.63  -0.15   0.00    -0.00   0.00   0.53
     9   6     0.00  -0.00   0.24     0.04   0.03   0.00    -0.00   0.00  -0.10
    10   8    -0.00   0.00  -0.08     0.37   0.14  -0.00    -0.00  -0.00  -0.02
    11   8     0.00  -0.00  -0.09     0.33  -0.19  -0.00    -0.00   0.00   0.03
                      7                      8                      9
                      A                      A                      A
 Frequencies --    549.3541               556.2696               593.9128
 Red. masses --      2.8418                 7.8115                 2.2674
 Frc consts  --      0.5053                 1.4241                 0.4712
 IR Inten    --      1.4940                51.6300                99.0483
  Atom  AN      X      Y      Z        X      Y      Z        X      Y      Z
     1   7     0.00  -0.00  -0.14     0.01  -0.08   0.00     0.00   0.00  -0.11
     2   7    -0.00  -0.00  -0.04    -0.15  -0.27   0.00     0.00   0.00   0.03
     3   6    -0.00  -0.00   0.09    -0.18  -0.02  -0.00     0.00   0.00   0.05
     4   6     0.00  -0.00  -0.23     0.13  -0.00   0.00    -0.00   0.00   0.10
     5   7     0.00  -0.00   0.18     0.16  -0.25  -0.00    -0.00   0.00  -0.04
     6   1    -0.00   0.00   0.83    -0.35   0.17  -0.00     0.00   0.00  -0.84
     7   1     0.00   0.00  -0.05     0.28   0.21   0.00    -0.00  -0.00  -0.37
     8   1    -0.00   0.00  -0.38    -0.34   0.32  -0.00    -0.00  -0.00  -0.20
     9   6     0.00   0.00   0.20     0.04   0.22  -0.00     0.00  -0.00   0.27
    10   8    -0.00   0.00  -0.02    -0.26   0.24   0.00     0.00  -0.00  -0.05
    11   8     0.00   0.00  -0.06     0.28   0.10  -0.00    -0.00   0.00  -0.08
                     10                     11                     12
                      A                      A                      A
 Frequencies --    645.4319               692.0018               779.5047
 Red. masses --      1.3090                11.3265                 7.6991
 Frc consts  --      0.3213                 3.1956                 2.7563
 IR Inten    --    110.3556                10.4001                38.2268
  Atom  AN      X      Y      Z        X      Y      Z        X      Y      Z
     1   7    -0.00  -0.00  -0.01    -0.17   0.01  -0.00    -0.08  -0.05   0.00
     2   7    -0.00   0.00   0.02     0.12  -0.30   0.00     0.07   0.45  -0.00
     3   6    -0.00  -0.00  -0.06     0.23  -0.01   0.00     0.03   0.00  -0.00
     4   6     0.00   0.00  -0.01     0.20   0.03   0.00     0.00   0.02   0.00
     5   7     0.00  -0.00  -0.01     0.07   0.30   0.00     0.12  -0.41  -0.00
     6   1     0.00  -0.00   0.14     0.01   0.24   0.00     0.37  -0.36   0.01
     7   1     0.00   0.00   0.24    -0.00  -0.26  -0.00     0.26   0.36  -0.01
     8   1     0.00  -0.00   0.95     0.32  -0.04   0.00     0.17  -0.03   0.00
     9   6     0.00   0.00   0.10    -0.33  -0.04   0.00    -0.16  -0.04   0.00
    10   8    -0.00   0.00  -0.09    -0.03   0.41   0.00    -0.02   0.21  -0.00
    11   8     0.00  -0.00  -0.02    -0.09  -0.40  -0.00    -0.04  -0.18   0.00
                     13                     14                     15
                      A                      A                      A
 Frequencies --    929.5558              1001.4163              1042.5342
 Red. masses --      8.0389                 1.2673                 6.8086
 Frc consts  --      4.0926                 0.7488                 4.3600
 IR Inten    --      5.3229              2562.6633                52.4776
  Atom  AN      X      Y      Z        X      Y      Z        X      Y      Z
     1   7    -0.02  -0.25   0.00     0.00  -0.00  -0.03     0.29  -0.09   0.00
     2   7     0.19  -0.19  -0.00     0.00   0.00   0.03     0.12   0.01  -0.00
     3   6     0.33   0.32  -0.00    -0.00   0.00   0.06    -0.19   0.02  -0.00
     4   6    -0.32   0.28   0.00    -0.00   0.00  -0.12    -0.10   0.02   0.00
     5   7    -0.16  -0.19  -0.00     0.00  -0.00   0.04    -0.14   0.05  -0.00
     6   1     0.38   0.27   0.01     0.00  -0.00  -0.54    -0.26   0.08   0.00
     7   1    -0.38   0.19  -0.01    -0.00  -0.00   0.83     0.05   0.27  -0.00
     8   1     0.00  -0.06   0.00     0.00  -0.00  -0.06    -0.36   0.51   0.00
     9   6    -0.01   0.05   0.00    -0.00  -0.00  -0.02     0.31  -0.30   0.00
    10   8    -0.05  -0.01  -0.00    -0.00   0.00   0.02    -0.08   0.26  -0.00
    11   8     0.06   0.05   0.00     0.00  -0.00  -0.00    -0.14  -0.09   0.00
                     16                     17                     18
                      A                      A                      A
 Frequencies --   1056.9257              1086.7965              1113.5298
 Red. masses --      2.6336                 1.2961                 6.9313
 Frc consts  --      1.7333                 0.9020                 5.0637
 IR Inten    --    231.2540                 2.0794               107.1371
  Atom  AN      X      Y      Z        X      Y      Z        X      Y      Z
     1   7    -0.02   0.20  -0.00    -0.00  -0.03   0.00     0.14   0.43  -0.00
     2   7     0.16  -0.08   0.00    -0.01   0.07  -0.00    -0.23  -0.15   0.00
     3   6    -0.07   0.02   0.00     0.03   0.08  -0.00     0.16   0.09   0.00
     4   6     0.06   0.02  -0.00     0.06  -0.08   0.00    -0.20  -0.01  -0.00
     5   7    -0.12  -0.13   0.00    -0.02  -0.04  -0.00     0.19  -0.20   0.00
     6   1    -0.48   0.48  -0.00    -0.43   0.60   0.00     0.28  -0.06  -0.00
     7   1     0.40   0.51   0.00    -0.29  -0.59  -0.00    -0.49  -0.45   0.00
     8   1     0.02  -0.04  -0.00    -0.01   0.02   0.00    -0.00   0.07  -0.00
     9   6    -0.04   0.02  -0.00     0.01  -0.01   0.00     0.10  -0.08  -0.00
    10   8     0.05  -0.06   0.00    -0.00   0.01  -0.00     0.01   0.05   0.00
    11   8    -0.03  -0.04  -0.00     0.00   0.00   0.00    -0.12  -0.08  -0.00
                     19                     20                     21
                      A                      A                      A
 Frequencies --   1240.9017              1357.0011              1399.2983
 Red. masses --      5.6571                 1.9458                 1.7150
 Frc consts  --      5.1324                 2.1111                 1.9784
 IR Inten    --    840.3918               262.3998                47.9163
  Atom  AN      X      Y      Z        X      Y      Z        X      Y      Z
     1   7     0.02  -0.00   0.00    -0.02   0.02  -0.00    -0.14  -0.01  -0.00
     2   7     0.31  -0.02  -0.00     0.05  -0.04   0.00    -0.01   0.01   0.00
     3   6    -0.29  -0.02  -0.00    -0.13   0.10  -0.00     0.06  -0.11   0.00
     4   6    -0.28   0.01   0.00     0.16   0.09   0.00    -0.04   0.08  -0.00
     5   7     0.32   0.05  -0.00    -0.08  -0.06  -0.00     0.05  -0.00   0.00
     6   1    -0.35  -0.00   0.00     0.39  -0.49   0.00    -0.18   0.15  -0.00
     7   1    -0.58  -0.37  -0.01    -0.28  -0.55  -0.00    -0.07   0.06   0.00
     8   1     0.07  -0.12   0.00    -0.24   0.30   0.00    -0.56   0.75   0.00
     9   6    -0.12   0.09   0.00     0.00   0.03   0.00     0.05  -0.03  -0.00
    10   8     0.00  -0.03  -0.00     0.04  -0.02  -0.00     0.08  -0.01   0.00
    11   8     0.00  -0.02   0.00    -0.02  -0.03  -0.00     0.01  -0.01  -0.00
                     22                     23                     24
                      A                      A                      A
 Frequencies --   1427.3114              1504.6571              1793.5033
 Red. masses --      3.8102                 5.7465                 7.4860
 Frc consts  --      4.5733                 7.6653                14.1875
 IR Inten    --    251.0441              1429.5938               990.4006
  Atom  AN      X      Y      Z        X      Y      Z        X      Y      Z
     1   7     0.17  -0.08   0.00     0.21  -0.04  -0.00    -0.35  -0.02  -0.00
     2   7    -0.05   0.01  -0.00    -0.07   0.05   0.00     0.05  -0.00   0.00
     3   6     0.02   0.14  -0.00     0.06  -0.34   0.00    -0.03   0.08   0.00
     4   6    -0.06  -0.20   0.00     0.04   0.35  -0.00    -0.01  -0.10  -0.00
     5   7     0.00   0.04  -0.00    -0.07  -0.04   0.00     0.06   0.02   0.00
     6   1     0.11   0.06   0.00    -0.43   0.15  -0.00     0.09  -0.04  -0.00
     7   1     0.29   0.28  -0.00    -0.41  -0.24   0.00     0.11   0.06   0.00
     8   1    -0.46   0.61   0.00     0.24  -0.33  -0.00     0.39  -0.52  -0.00
     9   6    -0.07   0.30   0.00     0.05   0.28   0.00     0.54   0.26  -0.00
    10   8     0.06  -0.06  -0.00    -0.03  -0.03   0.00    -0.07   0.00   0.00
    11   8    -0.08  -0.15   0.00    -0.10  -0.13  -0.00    -0.14  -0.15  -0.00
                     25                     26                     27
                      A                      A                      A
 Frequencies --   3198.6136              3236.1452              3497.3337
 Red. masses --      1.0856                 1.0985                 1.0653
 Frc consts  --      6.5441                 6.7782                 7.6774
 IR Inten    --     23.0948                31.6527               151.6823
  Atom  AN      X      Y      Z        X      Y      Z        X      Y      Z
     1   7     0.00  -0.00  -0.00     0.00   0.00  -0.00     0.00   0.00   0.00
     2   7     0.00  -0.00   0.00     0.00  -0.00   0.00     0.00  -0.00   0.00
     3   6     0.02   0.02   0.00    -0.06  -0.06  -0.00    -0.00  -0.00  -0.00
     4   6    -0.06   0.05  -0.00    -0.03   0.02  -0.00     0.00  -0.00  -0.00
     5   7     0.00   0.00   0.00     0.00   0.00   0.00    -0.00  -0.00   0.00
     6   1    -0.30  -0.26  -0.00     0.68   0.61   0.00     0.01   0.01  -0.00
     7   1     0.75  -0.52   0.00     0.31  -0.22   0.00    -0.00   0.00   0.00
     8   1     0.01   0.01   0.00    -0.01  -0.01  -0.00     0.76   0.64   0.00
     9   6     0.00   0.00  -0.00     0.00   0.00  -0.00     0.00  -0.01  -0.00
    10   8    -0.00  -0.00   0.00     0.00   0.00   0.00    -0.05  -0.04  -0.00
    11   8    -0.00   0.00  -0.00    -0.00  -0.00  -0.00    -0.00   0.00  -0.00

 -------------------
 - Thermochemistry -
 -------------------
 Temperature   298.150 Kelvin.  Pressure   1.00000 Atm.
 Atom     1 has atomic number  7 and mass  14.00307
 Atom     2 has atomic number  7 and mass  14.00307
 Atom     3 has atomic number  6 and mass  12.00000
 Atom     4 has atomic number  6 and mass  12.00000
 Atom     5 has atomic number  7 and mass  14.00307
 Atom     6 has atomic number  1 and mass   1.00783
 Atom     7 has atomic number  1 and mass   1.00783
 Atom     8 has atomic number  1 and mass   1.00783
 Atom     9 has atomic number  6 and mass  12.00000
 Atom    10 has atomic number  8 and mass  15.99491
 Atom    11 has atomic number  8 and mass  15.99491
 Molecular mass:   113.02253 amu.
 Principal axes and moments of inertia in atomic units:
                           1         2         3
     Eigenvalues --   358.670181009.476331368.14648
           X            0.99997  -0.00788  -0.00002
           Y            0.00788   0.99997  -0.00004
           Z            0.00002   0.00004   1.00000
 This molecule is an asymmetric top.
 Rotational symmetry number  1.
 Rotational temperatures (Kelvin)      0.24149     0.08580     0.06331
 Rotational constants (GHZ):           5.03176     1.78780     1.31911
 Zero-point vibrational energy     182015.4 (Joules/Mol)
                                   43.50273 (Kcal/Mol)
 Warning -- explicit consideration of   9 degrees of freedom as
           vibrations may cause significant error
 Vibrational temperatures:     40.78   274.29   364.96   454.04   638.45
          (Kelvin)            714.55   790.40   800.35   854.51   928.63
                              995.64  1121.53  1337.42  1440.81  1499.97
                             1520.68  1563.66  1602.12  1785.38  1952.42
                             2013.28  2053.58  2164.87  2580.45  4602.09
                             4656.09  5031.88
 
 Zero-point correction=                           0.069326 (Hartree/Particle)
 Thermal correction to Energy=                    0.076109
 Thermal correction to Enthalpy=                  0.077053
 Thermal correction to Gibbs Free Energy=         0.037371
 Sum of electronic and zero-point Energies=           -430.413615
 Sum of electronic and thermal Energies=              -430.406832
 Sum of electronic and thermal Enthalpies=            -430.405888
 Sum of electronic and thermal Free Energies=         -430.445570
 
                     E (Thermal)             CV                S
                      KCal/Mol        Cal/Mol-Kelvin    Cal/Mol-Kelvin
 Total                   47.759             24.263             83.517
 Electronic               0.000              0.000              0.000
 Translational            0.889              2.981             40.083
 Rotational               0.889              2.981             27.696
 Vibrational             45.981             18.301             15.738
 Vibration     1          0.593              1.984              5.942
 Vibration     2          0.634              1.853              2.222
 Vibration     3          0.665              1.757              1.705
 Vibration     4          0.703              1.644              1.333
 Vibration     5          0.803              1.375              0.815
 Vibration     6          0.852              1.257              0.667
 Vibration     7          0.905              1.141              0.546
 Vibration     8          0.912              1.126              0.531
 Vibration     9          0.952              1.045              0.460
                       Q            Log10(Q)             Ln(Q)
 Total Bot       0.646372D-17        -17.189517        -39.580326
 Total V=0       0.499121D+15         14.698206         33.843870
 Vib (Bot)       0.543217D-30        -30.265026        -69.687799
 Vib (Bot)    1  0.730471D+01          0.863603          1.988519
 Vib (Bot)    2  0.104957D+01          0.021012          0.048383
 Vib (Bot)    3  0.768077D+00         -0.114595         -0.263866
 Vib (Bot)    4  0.597258D+00         -0.223838         -0.515406
 Vib (Bot)    5  0.388411D+00         -0.410709         -0.945693
 Vib (Bot)    6  0.331916D+00         -0.478971         -1.102872
 Vib (Bot)    7  0.285844D+00         -0.543871         -1.252309
 Vib (Bot)    8  0.280415D+00         -0.552199         -1.271485
 Vib (Bot)    9  0.252989D+00         -0.596898         -1.374408
 Vib (V=0)       0.419466D+02          1.622697          3.736398
 Vib (V=0)    1  0.782180D+01          0.893307          2.056915
 Vib (V=0)    2  0.166258D+01          0.220784          0.508373
 Vib (V=0)    3  0.141648D+01          0.151211          0.348177
 Vib (V=0)    4  0.127892D+01          0.106844          0.246016
 Vib (V=0)    5  0.113314D+01          0.054282          0.124990
 Vib (V=0)    6  0.110014D+01          0.041448          0.095438
 Vib (V=0)    7  0.107594D+01          0.031788          0.073195
 Vib (V=0)    8  0.107326D+01          0.030707          0.070705
 Vib (V=0)    9  0.106036D+01          0.025453          0.058609
 Electronic      0.100000D+01          0.000000          0.000000
 Translational   0.472282D+08          7.674201         17.670502
 Rotational      0.251946D+06          5.401308         12.436970
 ***** Axes restored to original set *****
 -------------------------------------------------------------------
 Center     Atomic                   Forces (Hartrees/Bohr)
 Number     Number              X              Y              Z
 -------------------------------------------------------------------
      1        7           0.000070878   -0.000120717    0.000000301
      2        7           0.000008648    0.000062669   -0.000013495
      3        6          -0.000056319    0.000007873    0.000012416
      4        6          -0.000026171   -0.000101465   -0.000003953
      5        7           0.000050691    0.000126513    0.000004015
      6        1           0.000000180   -0.000007454    0.000007378
      7        1           0.000027713   -0.000012237   -0.000011254
      8        1           0.000002610    0.000004194    0.000000736
      9        6          -0.000030655    0.000077947    0.000018445
     10        8          -0.000024181   -0.000032970   -0.000013658
     11        8          -0.000023395   -0.000004354   -0.000000930
 -------------------------------------------------------------------
 Cartesian Forces:  Max     0.000126513 RMS     0.000045299
 FormGI is forming the generalized inverse of G from B-inverse, IUseBI=4.

 GradGradGradGradGradGradGradGradGradGradGradGradGradGradGradGradGradGrad
 Berny optimization.
 Internal  Forces:  Max     0.000075623 RMS     0.000026956
 Search for a local minimum.
 Step number   1 out of a maximum of    2
 All quantities printed in internal units (Hartrees-Bohrs-Radians)
 Second derivative matrix not updated -- analytic derivatives used.
 ITU=  0
     Eigenvalues ---    0.00037   0.00904   0.01126   0.01889   0.02451
     Eigenvalues ---    0.03624   0.04713   0.05713   0.09596   0.10361
     Eigenvalues ---    0.15800   0.18099   0.20646   0.21688   0.23361
[...]
    R7        2.58518  -0.00007   0.00000  -0.00020  -0.00020   2.58498
    R8        2.05301   0.00003   0.00000   0.00006   0.00006   2.05308
    R9        1.85841   0.00000   0.00000   0.00000   0.00000   1.85842
   R10        2.64284  -0.00002   0.00000  -0.00013  -0.00013   2.64272
   R11        2.37879   0.00002   0.00000   0.00005   0.00005   2.37884
    A1        1.98849  -0.00001   0.00000  -0.00004  -0.00004   1.98845
    A2        2.09033  -0.00002   0.00000  -0.00016  -0.00016   2.09017
    A3        2.20437   0.00003   0.00000   0.00019   0.00019   2.20457
    A4        1.76956  -0.00004   0.00000  -0.00013  -0.00013   1.76943
    A5        1.92801   0.00003   0.00000   0.00012   0.00012   1.92813
    A6        2.10645  -0.00001   0.00000   0.00001   0.00001   2.10645
    A7        2.24873  -0.00002   0.00000  -0.00013  -0.00013   2.24860
    A8        1.97057  -0.00005   0.00000  -0.00018  -0.00018   1.97039
    A9        2.22593   0.00002   0.00000  -0.00000  -0.00000   2.22593
   A10        2.08668   0.00003   0.00000   0.00018   0.00018   2.08686
   A11        1.76815   0.00006   0.00000   0.00023   0.00023   1.76837
   A12        1.93469   0.00005   0.00000   0.00013   0.00013   1.93482
   A13        2.26001  -0.00001   0.00000  -0.00002  -0.00002   2.25999
   A14        2.08848  -0.00004   0.00000  -0.00010  -0.00010   2.08838
   A15        1.79518   0.00000   0.00000   0.00004   0.00004   1.79522
    D1       -0.00002  -0.00001   0.00000   0.00015   0.00015   0.00013
    D2        3.14131  -0.00000   0.00000   0.00055   0.00055  -3.14132
    D3        0.00013  -0.00000   0.00000  -0.00024  -0.00024  -0.00011
    D4       -3.14118  -0.00000   0.00000  -0.00067  -0.00067   3.14133
    D5       -0.00017   0.00001   0.00000   0.00016   0.00016  -0.00001
    D6        3.14159   0.00000   0.00000   0.00001   0.00001  -3.14158
    D7        3.14112   0.00001   0.00000   0.00062   0.00062  -3.14145
    D8       -0.00030   0.00000   0.00000   0.00047   0.00047   0.00017
    D9       -0.00011   0.00001   0.00000   0.00001   0.00001  -0.00010
   D10        3.14156   0.00000   0.00000   0.00001   0.00001   3.14157
   D11        0.00021  -0.00001   0.00000  -0.00017  -0.00017   0.00004
   D12       -3.14145  -0.00001   0.00000  -0.00010  -0.00010  -3.14154
   D13       -3.14147  -0.00001   0.00000  -0.00017  -0.00017   3.14155
   D14        0.00007  -0.00000   0.00000  -0.00010  -0.00010  -0.00003
   D15       -0.00020   0.00001   0.00000   0.00024   0.00024   0.00004
   D16        3.14145   0.00001   0.00000   0.00018   0.00018  -3.14156
   D17       -0.00008  -0.00001   0.00000   0.00022   0.00022   0.00014
   D18        3.14136   0.00000   0.00000   0.00035   0.00035  -3.14148
         Item               Value     Threshold  Converged?
 Maximum Force            0.000076     0.000450     YES
 RMS     Force            0.000027     0.000300     YES
 Maximum Displacement     0.001048     0.001800     YES
 RMS     Displacement     0.000326     0.001200     YES
 Predicted change in Energy=-6.266479D-08
 Optimization completed.
    -- Stationary point found.
                           ----------------------------
                           !   Optimized Parameters   !
                           ! (Angstroms and Degrees)  !
 --------------------------                            --------------------------
 ! Name  Definition              Value          Derivative Info.                !
 --------------------------------------------------------------------------------
 ! R1    R(1,2)                  1.4419         -DE/DX =    0.0                 !
 ! R2    R(1,5)                  1.4191         -DE/DX =    0.0                 !
 ! R3    R(1,9)                  1.3238         -DE/DX =    0.0001              !
 ! R4    R(2,3)                  1.3845         -DE/DX =    0.0                 !
 ! R5    R(3,4)                  1.3818         -DE/DX =    0.0                 !
 ! R6    R(3,6)                  1.0844         -DE/DX =    0.0                 !
 ! R7    R(4,5)                  1.368          -DE/DX =   -0.0001              !
 ! R8    R(4,7)                  1.0864         -DE/DX =    0.0                 !
 ! R9    R(8,10)                 0.9834         -DE/DX =    0.0                 !
 ! R10   R(9,10)                 1.3985         -DE/DX =    0.0                 !
 ! R11   R(9,11)                 1.2588         -DE/DX =    0.0                 !
 ! A1    A(2,1,5)              113.9318         -DE/DX =    0.0                 !
 ! A2    A(2,1,9)              119.7669         -DE/DX =    0.0                 !
 ! A3    A(5,1,9)              126.3013         -DE/DX =    0.0                 !
 ! A4    A(1,2,3)              101.3886         -DE/DX =    0.0                 !
 ! A5    A(2,3,4)              110.4668         -DE/DX =    0.0                 !
 ! A6    A(2,3,6)              120.6905         -DE/DX =    0.0                 !
 ! A7    A(4,3,6)              128.8427         -DE/DX =    0.0                 !
 ! A8    A(3,4,5)              112.9054         -DE/DX =    0.0                 !
 ! A9    A(3,4,7)              127.5365         -DE/DX =    0.0                 !
 ! A10   A(5,4,7)              119.5581         -DE/DX =    0.0                 !
 ! A11   A(1,5,4)              101.3074         -DE/DX =    0.0001              !
 ! A12   A(1,9,10)             110.8497         -DE/DX =    0.0                 !
 ! A13   A(1,9,11)             129.4892         -DE/DX =    0.0                 !
 ! A14   A(10,9,11)            119.6611         -DE/DX =    0.0                 !
 ! A15   A(8,10,9)             102.8562         -DE/DX =    0.0                 !
 ! D1    D(5,1,2,3)             -0.001          -DE/DX =    0.0                 !
 ! D2    D(9,1,2,3)           -180.0161         -DE/DX =    0.0                 !
 ! D3    D(2,1,5,4)              0.0074         -DE/DX =    0.0                 !
 ! D4    D(9,1,5,4)            180.0237         -DE/DX =    0.0                 !
 ! D5    D(2,1,9,10)            -0.0098         -DE/DX =    0.0                 !
 ! D6    D(2,1,9,11)          -180.0            -DE/DX =    0.0                 !
 ! D7    D(5,1,9,10)          -180.027          -DE/DX =    0.0                 !
 ! D8    D(5,1,9,11)            -0.0172         -DE/DX =    0.0                 !
 ! D9    D(1,2,3,4)             -0.0061         -DE/DX =    0.0                 !
 ! D10   D(1,2,3,6)            179.998          -DE/DX =    0.0                 !
 ! D11   D(2,3,4,5)              0.0118         -DE/DX =    0.0                 !
 ! D12   D(2,3,4,7)           -179.9915         -DE/DX =    0.0                 !
 ! D13   D(6,3,4,5)            180.0073         -DE/DX =    0.0                 !
 ! D14   D(6,3,4,7)              0.0039         -DE/DX =    0.0                 !
 ! D15   D(3,4,5,1)             -0.0113         -DE/DX =    0.0                 !
 ! D16   D(7,4,5,1)           -180.0082         -DE/DX =    0.0                 !
 ! D17   D(1,9,10,8)            -0.0045         -DE/DX =    0.0                 !
 ! D18   D(11,9,10,8)         -180.0132         -DE/DX =    0.0                 !
 --------------------------------------------------------------------------------
 GradGradGradGradGradGradGradGradGradGradGradGradGradGradGradGradGradGrad


 ----------------------------------------------------------------------

 Electric dipole moment (input orientation):
 (Debye = 10**-18 statcoulomb cm , SI units = C m)
                  (au)            (Debye)         (10**-30 SI)
   Tot        0.989343D+00      0.251466D+01      0.838800D+01
   x          0.812223D-01      0.206447D+00      0.688632D+00
   y          0.986004D+00      0.250617D+01      0.835969D+01
   z         -0.250452D-03     -0.636584D-03     -0.212342D-02

 Dipole polarizability, Alpha (input orientation).
 (esu units = cm**3 , SI units = C**2 m**2 J**-1)
 Alpha(0;0):
               (au)            (10**-24 esu)      (10**-40 SI)
   iso        0.653676D+02      0.968648D+01      0.107777D+02
   aniso      0.329002D+03      0.487531D+02      0.542451D+02
   xx         0.215269D+03      0.318995D+02      0.354930D+02
   yx         0.185977D+02      0.275590D+01      0.306635D+01
   yy         0.127790D+03      0.189365D+02      0.210697D+02
   zx        -0.251838D+01     -0.373186D+00     -0.415225D+00
   zy         0.210747D+01      0.312295D+00      0.347475D+00
   zz        -0.146956D+03     -0.217766D+02     -0.242298D+02

 ----------------------------------------------------------------------

 Dipole orientation:
     7         -0.00546455          0.00094747         -0.23353630
     7          1.11185286         -0.09180995          2.24998340
     6          3.65337002         -0.30146346          1.66555848
     6          3.99572555         -0.32942665         -0.92293375
     7          1.77504253         -0.14554424         -2.23363027
     1          5.06168133         -0.41796426          3.14957277
     1          5.76805569         -0.47580133         -1.94873995
     1         -2.21952174          0.18128585          3.07081133
     6         -2.48730347          0.20523793         -0.47202671
     8         -3.65526156          0.30013040          1.89683289
     8         -3.81361281          0.31502234         -2.44370127

 Electric dipole moment (dipole orientation):
 (Debye = 10**-18 statcoulomb cm , SI units = C m)
                  (au)            (Debye)         (10**-30 SI)
   Tot        0.989343D+00      0.251466D+01      0.838800D+01
   x          0.000000D+00      0.000000D+00      0.000000D+00
   y          0.000000D+00      0.000000D+00      0.000000D+00
   z          0.989343D+00      0.251466D+01      0.838800D+01

 Dipole polarizability, Alpha (dipole orientation).
 (esu units = cm**3 , SI units = C**2 m**2 J**-1)
 Alpha(0;0):
               (au)            (10**-24 esu)      (10**-40 SI)
   iso        0.653676D+02      0.968648D+01      0.107777D+02
   aniso      0.329002D+03      0.487531D+02      0.542451D+02
   xx         0.209657D+03      0.310679D+02      0.345677D+02
   yx        -0.266996D+02     -0.395647D+01     -0.440216D+01
   yy        -0.144976D+03     -0.214832D+02     -0.239033D+02
   zx         0.252579D+02      0.374283D+01      0.416446D+01
   zy        -0.405135D+01     -0.600348D+00     -0.667978D+00
   zz         0.131422D+03      0.194747D+02      0.216686D+02

 ----------------------------------------------------------------------
 1\1\GINC-NODE2\Freq\RM062X\6-31+G(d,p)\C3H3N3O2(2-)\GONGKE2021\23-Jul-
 2023\0\\#N Geom=AllCheck Guess=TCheck SCRF=Check GenChk RM062X/6-31+G(
 d,p) Freq\\"Sketch 2"\\-2,1\N,-0.013059,-0.122925,-0.000231\N,0.686125
 ,1.138153,-0.000185\C,2.005661,0.719144,0.000049\C,2.074363,-0.660926,
 0.00027\N,0.842245,-1.25537,-0.000057\H,2.8154,1.440408,0.000109\H,2.9
 67691,-1.279186,0.000607\H,-1.041045,1.716264,0.000405\C,-1.336746,-0.
 140517,-0.000119\O,-1.851833,1.159706,0.000259\O,-2.124279,-1.122543,-
 0.000134\\Version=ES64L-G16RevA.03\State=1-A\HF=-430.4829409\RMSD=0.00
 0e+00\RMSF=4.530e-05\ZeroPoint=0.069326\Thermal=0.0761086\Dipole=0.081
 2223,0.9860036,-0.0002505\DipoleDeriv=-1.014592,-0.1891326,0.0368804,0
 .009389,-0.2399189,-0.0009209,0.0255653,-0.0164174,1.1826754,-2.164106
 2,0.8509986,-0.0007133,0.6757791,-0.7377658,-0.0118217,-0.0173601,0.01
 3849,-1.7275037,1.4176126,-0.9250975,-0.0124965,-1.8768328,-0.325278,0
 .0006504,-0.0200666,0.0082731,-1.0991963,1.2915482,1.1863595,-0.003398
 4,2.0456295,0.5797723,-0.0093691,0.0432926,-0.0270406,2.2548229,-1.790
 2729,-1.0007362,0.0025719,-0.7751843,-1.00368,0.0197819,-0.0286745,0.0
 207063,-2.5536277,-0.1274844,-0.1560354,-0.0020076,-0.0808824,-0.04186
 23,-0.0004762,0.0163602,-0.0080629,0.820143,-0.153002,0.1781471,-0.004
 4021,0.0841772,-0.0303037,-0.0003526,-0.0206271,0.0120581,-0.930521,0.
 5645387,-0.2061496,-0.0018398,-0.0547521,0.2106175,0.0009499,0.001229,
 -0.0001869,0.1177623,3.3253508,0.6209172,-0.0341107,0.997964,1.7036076
 ,-0.0065985,0.0120212,-0.0129895,2.2480952,-1.0500225,0.1749845,0.0042
 724,0.7953543,-0.8797704,-0.007674,-0.0150392,0.0094514,-1.3938596,-2.
 2995702,-0.5342556,0.0152436,-1.8206415,-1.2354184,0.0158307,0.0032992
 ,0.0003593,-0.9187905\Polar=215.2686209,18.5977202,127.7900795,-2.5183
 839,2.1074697,-146.9559633\Quadrupole=-12.6529107,3.0801908,9.5727199,
 -3.7520417,-0.003066,0.002777\PG=C01 [X(C3H3N3O2)]\NImag=0\\0.94065065
 ,-0.01983540,0.47839999,0.00038295,0.00000971,0.05962561,-0.14432675,-
 0.04336801,0.00001638,0.47019405,0.00907135,-0.13832378,-0.00012776,-0
 .04379976,0.30320656,-0.00025738,-0.00001714,-0.02578128,0.00006165,0.
 00006363,0.03058680,-0.03833545,-0.02952419,-0.00015739,-0.25266444,0.
 01779402,0.00005722,0.62481224,-0.06051312,-0.00894682,0.00002872,0.08
 781325,-0.09427247,0.00000844,0.13730567,0.73647537,-0.00034660,-0.000
 00115,-0.00946512,-0.00009987,0.00015654,-0.01414879,0.00023203,-0.000
 11645,0.06524833,-0.05660265,0.02263381,-0.00004704,-0.06762887,0.0351
 8893,-0.00000939,-0.05274192,0.02852448,0.00004861,0.68426828,0.062520
 37,-0.00398915,-0.00010277,0.05752198,-0.05268461,0.00009900,0.0135541
 1,-0.36588371,0.00015048,-0.13723912,0.70603602,0.00065342,0.00000438,
 0.02432387,0.00000918,-0.00024422,-0.00082865,-0.00026007,0.00012297,-
 0.05639485,0.00008508,-0.00030260,0.11343693,-0.15824833,0.06378392,0.
 00001152,0.03446262,0.01539550,-0.00001652,-0.05155139,-0.06198493,-0.
 00001556,-0.26417535,-0.11409913,-0.00000552,0.46640313,-0.00832163,-0
 .15198147,0.00017676,-0.00818717,-0.02403286,-0.00014290,-0.03359599,-
 0.06874543,-0.00015900,-0.04661466,-0.11339025,0.00034471,0.06057417,0
 .33653772,-0.00045241,0.00001590,-0.02910738,0.00000139,0.00016006,-0.
 00231917,0.00014852,-0.00003357,0.02852380,-0.00001886,0.00010113,-0.0
 5817921,0.00004622,-0.00021204,0.05248886,-0.00772325,0.00133408,-0.00
 002284,-0.01214206,-0.02177469,0.00001284,-0.21169197,-0.14134073,0.00
 000012,0.00578055,0.00328447,-0.00003945,-0.00011656,0.00296695,0.0000
 2270,0.22635705,0.00525074,-0.00157051,-0.00000033,0.00734120,0.008399
 49,0.00000323,-0.14651928,-0.18607016,-0.00001229,-0.02798157,-0.00772
 307,-0.00001401,0.00244097,-0.00292773,0.00000714,0.15886363,0.1895266
 0,0.00025733,-0.00000101,0.00806166,0.00002672,-0.00011118,-0.00843807
 ,-0.00012289,0.00002354,-0.01680959,-0.00002090,-0.00006950,0.01051897
 ,-0.00000024,0.00012520,-0.00033304,0.00000510,0.00001282,0.01694672,-
 0.00765813,-0.00142016,-0.00005142,0.00048541,-0.00262631,0.00002915,0
 .00257961,-0.00170791,0.00003264,-0.24025348,0.12994049,-0.00013839,-0
 .01528758,0.01914420,0.00004831,-0.00023325,0.00095524,-0.00002818,0.2
 6082643,-0.00602618,-0.00117943,0.00000412,-0.00210131,-0.00390290,0.0
 0000066,0.02956333,-0.00526863,0.00000655,0.13542965,-0.15091587,0.000
 04045,-0.00996463,0.00967510,-0.00000383,-0.00094298,-0.00025572,-0.00
 000012,-0.14631074,0.15092542,-0.00031899,0.00000330,-0.00868770,-0.00
 001175,0.00011837,0.01485048,0.00011248,-0.00002575,0.00670117,-0.0000
 3812,0.00013513,-0.03506351,-0.00002138,-0.00016203,0.00822562,0.00002
 222,0.00000348,-0.01006564,0.00011260,-0.00004849,0.02445519,-0.001419
 14,0.01484002,-0.00000813,0.02045211,0.00001448,0.00001949,-0.01337917
 ,-0.00442525,0.00000556,0.00849642,-0.00151570,-0.00003209,-0.00730010
 ,0.00049638,0.00002052,0.00008155,0.00051650,-0.00001281,-0.00030258,-
 0.00078814,0.00001612,0.28217909,0.00429546,-0.00610148,0.00000938,0.0
 0321781,-0.00344788,-0.00000537,-0.00205954,-0.00131436,-0.00001734,0.
 00091565,0.00135092,0.00002641,-0.00202746,-0.00260078,-0.00001521,-0.
 00030967,0.00010273,0.00001177,-0.00031394,-0.00000604,-0.00001301,0.1
 8374647,0.22654898,0.00001504,-0.00000362,0.00405242,0.00000647,-0.000
 01372,0.00007477,-0.00000622,0.00000834,-0.00613453,-0.00000247,-0.000
 00249,0.00010282,-0.00000161,0.00000612,-0.00139337,-0.00000230,-0.000
 00019,0.00120232,-0.00000139,0.00000030,0.00025545,0.00004130,0.000055
 55,0.01325085,-0.45032690,-0.01375327,-0.00035536,-0.00678412,-0.00749
 460,0.00024323,-0.01844237,0.02739383,0.00031219,-0.02224048,-0.030326
 98,-0.00062787,0.00641313,0.01419008,0.00041866,0.00170986,-0.00094537
 ,-0.00024106,0.00167949,0.00094448,0.00029712,0.02750316,-0.03349316,-
 0.00002187,0.87177933,0.00423663,-0.12366852,-0.00006034,-0.01549541,0
 .00596099,0.00003969,-0.00673745,-0.00786096,0.00004479,0.00332072,-0.
 01353812,-0.00010449,0.03447277,-0.00046159,0.00006796,-0.00200227,0.0
 0039980,-0.00003764,0.00205706,0.00056487,0.00005016,-0.01280020,-0.03
 640154,-0.00001787,0.18129304,0.70618072,0.00024497,0.00000799,-0.0390
 1536,-0.00000111,-0.00007695,0.00330943,-0.00007916,-0.00001014,-0.005
 33261,-0.00000578,-0.00005825,0.01231435,0.00000496,0.00012010,-0.0042
 2692,-0.00000855,-0.00000119,0.00108359,-0.00002746,0.00000129,-0.0067
 9463,-0.00001703,-0.00000004,0.00402012,-0.00023296,0.00002837,0.11783
 487,-0.04052565,0.05560055,0.00006121,-0.02764439,0.00450915,-0.000036
 33,0.00416646,0.00066944,-0.00003144,0.00095742,0.00865378,0.00008071,
 -0.00629215,-0.00907323,-0.00005178,-0.00046333,-0.00020677,0.00003047
 ,-0.00113768,0.00043036,-0.00003869,-0.31058512,-0.15587702,-0.0000345
 8,-0.14186489,0.02067101,0.00003946,0.49730355,0.02172401,-0.03783472,
 -0.00011314,-0.02638060,0.01466956,0.00005534,0.01124501,0.00770850,0.
 00008382,-0.01487791,-0.00780167,-0.00015114,0.01944480,-0.00042001,0.
 00009884,0.00048500,-0.00039150,-0.00005939,0.00092861,0.00063021,0.00
 007188,-0.18578712,-0.17046998,-0.00003998,0.07161561,-0.18052346,-0.0
 0006616,0.10276791,0.43402527,-0.00022342,-0.00001696,0.00261228,-0.00
 001816,0.00009487,0.00135582,0.00009029,-0.00002006,0.00801928,0.00001
 698,0.00005925,-0.01053109,-0.00000458,-0.00011230,0.01137473,0.000015
 59,0.00000233,-0.00550815,0.00002784,-0.00000041,0.00696044,-0.0000310
 5,-0.00004978,-0.01652239,0.00024333,0.00000545,-0.04202677,-0.0000156
 7,0.00014415,0.03913781,-0.03548440,-0.05029134,0.00017012,-0.01440356
 ,-0.00627807,-0.00010396,0.00724839,-0.01173475,-0.00013768,0.00414007
 ,0.00770574,0.00027498,-0.00430741,0.00842091,-0.00018328,-0.00155861,
 0.00028471,0.00010646,-0.00069824,-0.00023384,-0.00013163,-0.00572622,
 0.00190539,0.00000763,-0.26942621,-0.20901590,0.00008266,0.02608577,-0
 .00116532,-0.00010113,0.29413041,-0.01240224,-0.00480412,0.00017566,-0
 .01656198,-0.01557210,-0.00010458,0.00897431,-0.00582132,-0.00013595,0
 .00070002,0.00853951,0.00027753,-0.00803597,0.01834730,-0.00018639,-0.
 00056378,0.00051008,0.00010552,-0.00064653,-0.00026700,-0.00013304,0.0
 0570255,-0.00766057,0.00000758,-0.20942366,-0.35065219,0.00005497,-0.0
 2814519,-0.05959219,-0.00010654,0.26040247,0.41697259,0.00004509,-0.00
 000141,0.01338099,0.00000910,-0.00001963,0.00133867,-0.00001482,0.0000
 1396,-0.00020709,-0.00000811,-0.00000938,0.00030036,0.00000271,0.00001
 539,-0.00505393,-0.00000545,-0.00000100,0.00334122,-0.00000371,-0.0000
 0052,-0.00083686,-0.00000187,-0.00000237,0.00109154,-0.00003542,-0.000
 01609,-0.04116609,-0.00000336,-0.00002421,0.00512803,0.00001583,0.0000
 4525,0.02268315\\-0.00007088,0.00012072,-0.00000030,-0.00000865,-0.000
 06267,0.00001349,0.00005632,-0.00000787,-0.00001242,0.00002617,0.00010
 147,0.00000395,-0.00005069,-0.00012651,-0.00000402,-0.00000018,0.00000
 745,-0.00000738,-0.00002771,0.00001224,0.00001125,-0.00000261,-0.00000
 419,-0.00000074,0.00003065,-0.00007795,-0.00001844,0.00002418,0.000032
 97,0.00001366,0.00002339,0.00000435,0.00000093\\\@


      LET US REMEMBER, PLEASE, THAT THE SEARCH FOR THE CONSTITUTION
      OF THE WORLD IS ONE OF THE GREATEST AND NOBLEST PROBLEMS PRESENTED 
      BY NATURE.

                                                  -- GALILEO
 Job cpu time:       0 days  0 hours 31 minutes 42.0 seconds.
 Elapsed time:       0 days  0 hours  1 minutes 35.5 seconds.
 File lengths (MBytes):  RWF=     40 Int=      0 D2E=      0 Chk=      3 Scr=      1
 Normal termination of Gaussian 16 at Sun Jul 23 02:16:19 2023.
