 Entering Gaussian System, Link 0=/opt/soft/g16/g16
 Initial command:
 /opt/soft/g16/l1.exe "/scratch/gongke2021/TS-cycle/Gau-8586.inp" -scrdir="/scratch/gongke2021/TS-cycle/"
 Entering Link 1 = /opt/soft/g16/l1.exe PID=      8587.
  
 Copyright (c) 1988,1990,1992,1993,1995,1998,2003,2009,2016,
            Gaussian, Inc.  All Rights Reserved.
  
 This is part of the Gaussian(R) 16 program.  It is based on
 the Gaussian(R) 09 system (copyright 2009, Gaussian, Inc.),
 the Gaussian(R) 03 system (copyright 2003, Gaussian, Inc.),
 the Gaussian(R) 98 system (copyright 1998, Gaussian, Inc.),
 the Gaussian(R) 94 system (copyright 1995, Gaussian, Inc.),
 the Gaussian 92(TM) system (copyright 1992, Gaussian, Inc.),
 the Gaussian 90(TM) system (copyright 1990, Gaussian, Inc.),
 the Gaussian 88(TM) system (copyright 1988, Gaussian, Inc.),
 the Gaussian 86(TM) system (copyright 1986, Carnegie Mellon
 University), and the Gaussian 82(TM) system (copyright 1983,
 Carnegie Mellon University). Gaussian is a federally registered
 trademark of Gaussian, Inc.
  
 This software contains proprietary and confidential information,
 including trade secrets, belonging to Gaussian, Inc.
  
 This software is provided under written license and may be
 used, copied, transmitted, or stored only in accord with that
 written license.
  
 The following legend is applicable only to US Government
 contracts under FAR:
  
                    RESTRICTED RIGHTS LEGEND
  
 Use, reproduction and disclosure by the US Government is
 subject to restrictions as set forth in subparagraphs (a)
 and (c) of the Commercial Computer Software - Restricted
 Rights clause in FAR 52.227-19.
  
 Gaussian, Inc.
 340 Quinnipiac St., Bldg. 40, Wallingford CT 06492
  
  
 ---------------------------------------------------------------
 Warning -- This program may not be used in any manner that
 competes with the business of Gaussian, Inc. or will provide
 assistance to any competitor of Gaussian, Inc.  The licensee
 of this program is prohibited from giving any competitor of
 Gaussian, Inc. access to this program.  By using this program,
 the user acknowledges that Gaussian, Inc. is engaged in the
 business of creating and licensing software in the field of
 computational chemistry and represents and warrants to the
 licensee that it is not a competitor of Gaussian, Inc. and that
 it will not use this program in any manner prohibited above.
 ---------------------------------------------------------------
  

 Cite this work as:
 Gaussian 16, Revision A.03,
 M. J. Frisch, G. W. Trucks, H. B. Schlegel, G. E. Scuseria, 
 M. A. Robb, J. R. Cheeseman, G. Scalmani, V. Barone, 
 G. A. Petersson, H. Nakatsuji, X. Li, M. Caricato, A. V. Marenich, 
 J. Bloino, B. G. Janesko, R. Gomperts, B. Mennucci, H. P. Hratchian, 
 J. V. Ortiz, A. F. Izmaylov, J. L. Sonnenberg, D. Williams-Young, 
 F. Ding, F. Lipparini, F. Egidi, J. Goings, B. Peng, A. Petrone, 
 T. Henderson, D. Ranasinghe, V. G. Zakrzewski, J. Gao, N. Rega, 
 G. Zheng, W. Liang, M. Hada, M. Ehara, K. Toyota, R. Fukuda, 
 J. Hasegawa, M. Ishida, T. Nakajima, Y. Honda, O. Kitao, H. Nakai, 
 T. Vreven, K. Throssell, J. A. Montgomery, Jr., J. E. Peralta, 
 F. Ogliaro, M. J. Bearpark, J. J. Heyd, E. N. Brothers, K. N. Kudin, 
 V. N. Staroverov, T. A. Keith, R. Kobayashi, J. Normand, 
 K. Raghavachari, A. P. Rendell, J. C. Burant, S. S. Iyengar, 
 J. Tomasi, M. Cossi, J. M. Millam, M. Klene, C. Adamo, R. Cammi, 
 J. W. Ochterski, R. L. Martin, K. Morokuma, O. Farkas, 
 J. B. Foresman, and D. J. Fox, Gaussian, Inc., Wallingford CT, 2016.
 
 ******************************************
 Gaussian 16:  ES64L-G16RevA.03 25-Dec-2016
                 9-Jul-2023 
 ******************************************
 %mem=10GB
 %nprocshared=24
 Will use up to   24 processors via shared memory.
 ----------------------------------------------------------------------
 # opt=(calcfc,ts,noeigentest,maxcycle=600) freq 6-31+g(d,p) integral=g
 rid=ultrafine m062x
 ----------------------------------------------------------------------
 1/5=1,6=600,10=4,11=1,18=20,26=4,38=1/1,3;
 2/9=110,12=2,17=6,18=5,40=1/2;
 3/5=1,6=6,7=111,11=2,25=1,30=1,71=2,74=-55,75=-5,140=1/1,2,3;
 4//1;
 5/5=2,38=5/2;
 8/6=4,10=90,11=11/1;
 11/6=1,8=1,9=11,15=111,16=1/1,2,10;
 10/6=1,13=1/2;
 6/7=2,8=2,9=2,10=2,28=1/1;
 7/10=1,18=20,25=1/1,2,3,16;
 1/5=1,6=600,10=4,11=1,18=20,26=4/3(2);
 2/9=110/2;
 99//99;
 2/9=110/2;
 3/5=1,6=6,7=111,11=2,25=1,30=1,71=1,74=-55,75=-5/1,2,3;
 4/5=5,16=3,69=1/1;
 5/5=2,38=5/2;
 7//1,2,3,16;
 1/5=1,6=600,11=1,18=20,26=4/3(-5);
 2/9=110/2;
 6/7=2,8=2,9=2,10=2,19=2,28=1/1;
 99/9=1/99;
 --
 TS
 --
 Symbolic Z-matrix:
 Charge = -1 Multiplicity = 2
 O                     2.70136  -1.37907   0.07749 
 H                     3.44219  -0.84897  -0.27535 
 H                     2.62192  -2.2      -0.44487 
 N                    -0.55775   0.26143  -0.00018 
 N                    -0.10425  -0.98477   0.01411 
 C                    -1.19649  -1.73794   0.01032 
 C                    -2.31045  -0.88065  -0.00628 
 N                    -1.87537   0.37431  -0.01244 
 H                    -1.14363  -2.81619   0.01952 
 H                    -3.36428  -1.11368  -0.01369 
 H                     1.85054  -0.84249   0.02303 
 C                     0.38352   1.40667   0.00117 
 O                     1.57584   1.04791   0.01515 
 O                    -0.14027   2.52317  -0.01143 
 
 Add virtual bond connecting atoms N5         and H11        Dist= 3.70D+00.
 Add virtual bond connecting atoms O13        and H11        Dist= 3.61D+00.

 GradGradGradGradGradGradGradGradGradGradGradGradGradGradGradGradGradGrad
 Berny optimization.
 Initialization pass.
                           ----------------------------
                           !    Initial Parameters    !
                           ! (Angstroms and Degrees)  !
 --------------------------                            --------------------------
 ! Name  Definition              Value          Derivative Info.                !
 --------------------------------------------------------------------------------
 ! R1    R(1,2)                  0.9769         calculate D2E/DX2 analytically  !
 ! R2    R(1,3)                  0.9763         calculate D2E/DX2 analytically  !
 ! R3    R(1,11)                 1.0074         calculate D2E/DX2 analytically  !
 ! R4    R(4,5)                  1.3262         calculate D2E/DX2 analytically  !
 ! R5    R(4,8)                  1.3225         calculate D2E/DX2 analytically  !
 ! R6    R(4,12)                 1.4824         calculate D2E/DX2 analytically  !
 ! R7    R(5,6)                  1.3268         calculate D2E/DX2 analytically  !
 ! R8    R(5,11)                 1.96           calculate D2E/DX2 analytically  !
 ! R9    R(6,7)                  1.4057         calculate D2E/DX2 analytically  !
 ! R10   R(6,9)                  1.0796         calculate D2E/DX2 analytically  !
 ! R11   R(7,8)                  1.3283         calculate D2E/DX2 analytically  !
 ! R12   R(7,10)                 1.0793         calculate D2E/DX2 analytically  !
 ! R13   R(11,13)                1.9103         calculate D2E/DX2 analytically  !
 ! R14   R(12,13)                1.2452         calculate D2E/DX2 analytically  !
 ! R15   R(12,14)                1.2333         calculate D2E/DX2 analytically  !
 ! A1    A(2,1,3)              108.9508         calculate D2E/DX2 analytically  !
 ! A2    A(2,1,11)             109.3868         calculate D2E/DX2 analytically  !
 ! A3    A(3,1,11)             110.5026         calculate D2E/DX2 analytically  !
 ! A4    A(5,4,8)              114.8972         calculate D2E/DX2 analytically  !
 ! A5    A(5,4,12)             120.5835         calculate D2E/DX2 analytically  !
 ! A6    A(8,4,12)             124.5192         calculate D2E/DX2 analytically  !
 ! A7    A(4,5,6)              104.5892         calculate D2E/DX2 analytically  !
 ! A8    A(4,5,11)             105.8361         calculate D2E/DX2 analytically  !
 ! A9    A(6,5,11)             149.5739         calculate D2E/DX2 analytically  !
 ! A10   A(5,6,7)              107.8302         calculate D2E/DX2 analytically  !
 ! A11   A(5,6,9)              121.7791         calculate D2E/DX2 analytically  !
 ! A12   A(7,6,9)              130.3907         calculate D2E/DX2 analytically  !
 ! A13   A(6,7,8)              108.4623         calculate D2E/DX2 analytically  !
 ! A14   A(6,7,10)             129.9511         calculate D2E/DX2 analytically  !
 ! A15   A(8,7,10)             121.5865         calculate D2E/DX2 analytically  !
 ! A16   A(4,8,7)              104.2211         calculate D2E/DX2 analytically  !
 ! A17   A(1,11,5)             143.5087         calculate D2E/DX2 analytically  !
 ! A18   A(1,11,13)            130.4506         calculate D2E/DX2 analytically  !
 ! A19   A(5,11,13)             85.8939         calculate D2E/DX2 analytically  !
 ! A20   A(4,12,13)            112.6698         calculate D2E/DX2 analytically  !
 ! A21   A(4,12,14)            115.4482         calculate D2E/DX2 analytically  !
 ! A22   A(13,12,14)           131.882          calculate D2E/DX2 analytically  !
 ! A23   A(11,13,12)           115.015          calculate D2E/DX2 analytically  !
 ! D1    D(2,1,11,5)           160.0228         calculate D2E/DX2 analytically  !
 ! D2    D(2,1,11,13)          -26.069          calculate D2E/DX2 analytically  !
 ! D3    D(3,1,11,5)            40.0793         calculate D2E/DX2 analytically  !
 ! D4    D(3,1,11,13)         -146.0125         calculate D2E/DX2 analytically  !
 ! D5    D(8,4,5,6)              0.0311         calculate D2E/DX2 analytically  !
 ! D6    D(8,4,5,11)           179.7968         calculate D2E/DX2 analytically  !
 ! D7    D(12,4,5,6)           179.9041         calculate D2E/DX2 analytically  !
 ! D8    D(12,4,5,11)           -0.3302         calculate D2E/DX2 analytically  !
 ! D9    D(5,4,8,7)             -0.0255         calculate D2E/DX2 analytically  !
 ! D10   D(12,4,8,7)          -179.8928         calculate D2E/DX2 analytically  !
 ! D11   D(5,4,12,13)            0.0732         calculate D2E/DX2 analytically  !
 ! D12   D(5,4,12,14)         -179.9249         calculate D2E/DX2 analytically  !
 ! D13   D(8,4,12,13)          179.9334         calculate D2E/DX2 analytically  !
 ! D14   D(8,4,12,14)           -0.0647         calculate D2E/DX2 analytically  !
 ! D15   D(4,5,6,7)             -0.0228         calculate D2E/DX2 analytically  !
 ! D16   D(4,5,6,9)            179.9951         calculate D2E/DX2 analytically  !
 ! D17   D(11,5,6,7)          -179.5777         calculate D2E/DX2 analytically  !
 ! D18   D(11,5,6,9)             0.4403         calculate D2E/DX2 analytically  !
 ! D19   D(4,5,11,1)           175.706          calculate D2E/DX2 analytically  !
 ! D20   D(4,5,11,13)            0.3499         calculate D2E/DX2 analytically  !
 ! D21   D(6,5,11,1)            -4.7418         calculate D2E/DX2 analytically  !
 ! D22   D(6,5,11,13)          179.9022         calculate D2E/DX2 analytically  !
 ! D23   D(5,6,7,8)              0.0088         calculate D2E/DX2 analytically  !
 ! D24   D(5,6,7,10)          -179.9922         calculate D2E/DX2 analytically  !
 ! D25   D(9,6,7,8)            179.9888         calculate D2E/DX2 analytically  !
 ! D26   D(9,6,7,10)            -0.0122         calculate D2E/DX2 analytically  !
 ! D27   D(6,7,8,4)              0.0092         calculate D2E/DX2 analytically  !
 ! D28   D(10,7,8,4)          -179.9898         calculate D2E/DX2 analytically  !
 ! D29   D(1,11,13,12)        -176.7275         calculate D2E/DX2 analytically  !
 ! D30   D(5,11,13,12)          -0.3553         calculate D2E/DX2 analytically  !
 ! D31   D(4,12,13,11)           0.2513         calculate D2E/DX2 analytically  !
 ! D32   D(14,12,13,11)       -179.7509         calculate D2E/DX2 analytically  !
 --------------------------------------------------------------------------------
 Trust Radius=3.00D-01 FncErr=1.00D-07 GrdErr=1.00D-06 EigMax=2.50D+02 EigMin=1.00D-04
 Number of steps in this run=    100 maximum allowed number of steps=    100.
 Search for a saddle point of order  1.
 GradGradGradGradGradGradGradGradGradGradGradGradGradGradGradGradGradGrad

                          Input orientation:                          
 ---------------------------------------------------------------------
 Center     Atomic      Atomic             Coordinates (Angstroms)
 Number     Number       Type             X           Y           Z
 ---------------------------------------------------------------------
      1          8           0        2.701358   -1.379072    0.077488
      2          1           0        3.442194   -0.848971   -0.275346
      3          1           0        2.621916   -2.200001   -0.444868
      4          7           0       -0.557753    0.261431   -0.000183
      5          7           0       -0.104248   -0.984765    0.014113
      6          6           0       -1.196493   -1.737943    0.010320
      7          6           0       -2.310451   -0.880653   -0.006280
      8          7           0       -1.875368    0.374310   -0.012443
      9          1           0       -1.143630   -2.816191    0.019522
     10          1           0       -3.364277   -1.113682   -0.013694
     11          1           0        1.850535   -0.842493    0.023028
     12          6           0        0.383519    1.406669    0.001173
     13          8           0        1.575840    1.047908    0.015152
     14          8           0       -0.140273    2.523173   -0.011430
 ---------------------------------------------------------------------
                    Distance matrix (angstroms):
                    1          2          3          4          5
     1  O    0.000000
     2  H    0.976902   0.000000
     3  H    0.976264   1.589615   0.000000
     4  N    3.649532   4.160322   4.045576   0.000000
     5  N    2.833888   3.560825   3.019840   1.326226   0.000000
     6  C    3.914913   4.731733   3.873105   2.098951   1.326759
     7  C    5.037228   5.759021   5.124576   2.091971   2.208752
     8  N    4.901924   5.462783   5.199965   1.322498   2.232634
     9  H    4.105192   4.998668   3.843785   3.132953   2.105817
    10  H    6.072123   6.816640   6.099222   3.125331   3.262695
    11  H    1.007364   1.619397   1.629964   2.649347   1.959974
    12  C    3.624714   3.810494   4.268190   1.482419   2.440705
    13  O    2.675987   2.676904   3.443081   2.273983   2.637130
    14  O    4.828073   4.926974   5.488709   2.299977   3.508216
                    6          7          8          9         10
     6  C    0.000000
     7  C    1.405747   0.000000
     8  N    2.218784   1.328257   0.000000
     9  H    1.079582   2.260187   3.273493   0.000000
    10  H    2.256007   1.079308   2.104987   2.798377   0.000000
    11  H    3.175905   4.161264   3.919722   3.586157   5.221988
    12  C    3.519248   3.534031   2.483651   4.490553   4.516455
    13  O    3.930244   4.338556   3.516437   4.725124   5.392408
    14  O    4.390123   4.036797   2.761914   5.432908   4.860136
                   11         12         13         14
    11  H    0.000000
    12  C    2.685394   0.000000
    13  O    1.910271   1.245204   0.000000
    14  O    3.910526   1.233328   2.263218   0.000000
 Stoichiometry    C3H5N3O3(1-,2)
 Framework group  C1[X(C3H5N3O3)]
 Deg. of freedom    36
 Full point group                 C1      NOp   1
 Largest Abelian subgroup         C1      NOp   1
 Largest concise Abelian subgroup C1      NOp   1
                         Standard orientation:                         
 ---------------------------------------------------------------------
 Center     Atomic      Atomic             Coordinates (Angstroms)
 Number     Number       Type             X           Y           Z
 ---------------------------------------------------------------------
      1          8           0       -2.701358   -1.379071   -0.077488
      2          1           0       -3.442194   -0.848970    0.275346
      3          1           0       -2.621916   -2.200001    0.444868
      4          7           0        0.557753    0.261431    0.000183
      5          7           0        0.104248   -0.984765   -0.014113
      6          6           0        1.196493   -1.737943   -0.010320
      7          6           0        2.310451   -0.880654    0.006280
      8          7           0        1.875368    0.374310    0.012443
      9          1           0        1.143629   -2.816191   -0.019522
     10          1           0        3.364277   -1.113683    0.013694
     11          1           0       -1.850535   -0.842493   -0.023028
     12          6           0       -0.383519    1.406669   -0.001173
     13          8           0       -1.575840    1.047908   -0.015152
     14          8           0        0.140274    2.523173    0.011430
 ---------------------------------------------------------------------
 Rotational constants (GHZ):           2.0140310           1.5360997           0.8725407
 Standard basis: 6-31+G(d,p) (6D, 7F)
 There are   196 symmetry adapted cartesian basis functions of A   symmetry.
 There are   196 symmetry adapted basis functions of A   symmetry.
   196 basis functions,   323 primitive gaussians,   196 cartesian basis functions
    35 alpha electrons       34 beta electrons
       nuclear repulsion energy       453.5349873471 Hartrees.
 NAtoms=   14 NActive=   14 NUniq=   14 SFac= 1.00D+00 NAtFMM=   60 NAOKFM=F Big=F
 Integral buffers will be    131072 words long.
 Raffenetti 2 integral format.
 Two-electron integral symmetry is turned on.
 One-electron integrals computed using PRISM.
 NBasis=   196 RedAO= T EigKep=  2.11D-05  NBF=   196
 NBsUse=   196 1.00D-06 EigRej= -1.00D+00 NBFU=   196
 ExpMin= 4.38D-02 ExpMax= 5.48D+03 ExpMxC= 8.25D+02 IAcc=3 IRadAn=         5 AccDes= 0.00D+00
 Harris functional with IExCor= 1009 and IRadAn=       5 diagonalized for initial guess.
 HarFok:  IExCor= 1009 AccDes= 0.00D+00 IRadAn=         5 IDoV= 1 UseB2=F ITyADJ=14
 ICtDFT=  3500011 ScaDFX=  1.000000  1.000000  1.000000  1.000000
 FoFCou: FMM=F IPFlag=           0 FMFlag=      100000 FMFlg1=           0
         NFxFlg=           0 DoJE=T BraDBF=F KetDBF=T FulRan=T
         wScrn=  0.000000 ICntrl=       500 IOpCl=  0 I1Cent=   200000004 NGrid=           0
         NMat0=    1 NMatS0=      1 NMatT0=    0 NMatD0=    1 NMtDS0=    0 NMtDT0=    0
 Petite list used in FoFCou.
 Initial guess <Sx>= 0.0000 <Sy>= 0.0000 <Sz>= 0.5000 <S**2>= 0.7500 S= 0.5000
 Requested convergence on RMS density matrix=1.00D-08 within 128 cycles.
 Requested convergence on MAX density matrix=1.00D-06.
 Requested convergence on             energy=1.00D-06.
 No special actions if energy rises.
 Restarting incremental Fock formation.
 SCF Done:  E(UM062X) =  -507.009053501     A.U. after   27 cycles
            NFock= 27  Conv=0.42D-08     -V/T= 2.0077
 <Sx>= 0.0000 <Sy>= 0.0000 <Sz>= 0.5000 <S**2>= 0.7510 S= 0.5005
 <L.S>=  0.00000000000    
 Annihilation of the first spin contaminant:
 S**2 before annihilation     0.7510,   after     0.7500
 DoSCS=F DFT=T ScalE2(SS,OS)=  1.000000  1.000000
 Range of M.O.s used for correlation:     1   196
 NBasis=   196 NAE=    35 NBE=    34 NFC=     0 NFV=     0
 NROrb=    196 NOA=    35 NOB=    34 NVA=   161 NVB=   162

 **** Warning!!: The largest alpha MO coefficient is  0.68855579D+02


 **** Warning!!: The smallest alpha delta epsilon is  0.91847251D-01


 **** Warning!!: The largest beta MO coefficient is  0.70900281D+02

 Symmetrizing basis deriv contribution to polar:
 IMax=3 JMax=2 DiffMx= 0.00D+00
 G2DrvN: will do    15 centers at a time, making    1 passes.
 Calling FoFCou, ICntrl=  3107 FMM=F I1Cent=   0 AccDes= 0.00D+00.
 End of G2Drv F.D. properties file   721 does not exist.
 End of G2Drv F.D. properties file   722 does not exist.
 End of G2Drv F.D. properties file   788 does not exist.
          IDoAtm=11111111111111
          Differentiating once with respect to nuclear coordinates.
 Keep R1 and R2 ints in memory in canonical form, NReq=397284497.
          There are    45 degrees of freedom in the 1st order CPHF.  IDoFFX=6 NUNeed=     0.
     39 vectors produced by pass  0 Test12= 2.48D-14 2.22D-09 XBig12= 9.56D-01 4.54D-01.
 AX will form    39 AO Fock derivatives at one time.
     39 vectors produced by pass  1 Test12= 2.48D-14 2.22D-09 XBig12= 7.05D-02 7.46D-02.
     39 vectors produced by pass  2 Test12= 2.48D-14 2.22D-09 XBig12= 3.16D-03 7.93D-03.
     39 vectors produced by pass  3 Test12= 2.48D-14 2.22D-09 XBig12= 4.90D-05 6.79D-04.
     39 vectors produced by pass  4 Test12= 2.48D-14 2.22D-09 XBig12= 6.65D-07 9.07D-05.
     39 vectors produced by pass  5 Test12= 2.48D-14 2.22D-09 XBig12= 7.88D-09 1.22D-05.
     39 vectors produced by pass  6 Test12= 2.48D-14 2.22D-09 XBig12= 7.56D-11 1.10D-06.
     35 vectors produced by pass  7 Test12= 2.48D-14 2.22D-09 XBig12= 6.41D-13 1.40D-07.
     11 vectors produced by pass  8 Test12= 2.48D-14 2.22D-09 XBig12= 5.68D-15 9.72D-09.
      2 vectors produced by pass  9 Test12= 2.48D-14 2.22D-09 XBig12= 1.48D-16 3.08D-09.
 InvSVY:  IOpt=1 It=  1 EMax= 2.00D-15
 Solved reduced A of dimension   321 with    39 vectors.
 End of Minotr F.D. properties file   721 does not exist.
 End of Minotr F.D. properties file   722 does not exist.
 End of Minotr F.D. properties file   788 does not exist.

 **********************************************************************

            Population analysis using the SCF density.

 **********************************************************************

 Orbital symmetries:
 Alpha Orbitals:
       Occupied  (A) (A) (A) (A) (A) (A) (A) (A) (A) (A) (A) (A)
                 (A) (A) (A) (A) (A) (A) (A) (A) (A) (A) (A) (A)
                 (A) (A) (A) (A) (A) (A) (A) (A) (A) (A) (A)
       Virtual   (A) (A) (A) (A) (A) (A) (A) (A) (A) (A) (A) (A)
                 (A) (A) (A) (A) (A) (A) (A) (A) (A) (A) (A) (A)
                 (A) (A) (A) (A) (A) (A) (A) (A) (A) (A) (A) (A)
                 (A) (A) (A) (A) (A) (A) (A) (A) (A) (A) (A) (A)
                 (A) (A) (A) (A) (A) (A) (A) (A) (A) (A) (A) (A)
                 (A) (A) (A) (A) (A) (A) (A) (A) (A) (A) (A) (A)
                 (A) (A) (A) (A) (A) (A) (A) (A) (A) (A) (A) (A)
                 (A) (A) (A) (A) (A) (A) (A) (A) (A) (A) (A) (A)
                 (A) (A) (A) (A) (A) (A) (A) (A) (A) (A) (A) (A)
                 (A) (A) (A) (A) (A) (A) (A) (A) (A) (A) (A) (A)
                 (A) (A) (A) (A) (A) (A) (A) (A) (A) (A) (A) (A)
                 (A) (A) (A) (A) (A) (A) (A) (A) (A) (A) (A) (A)
                 (A) (A) (A) (A) (A) (A) (A) (A) (A) (A) (A) (A)
                 (A) (A) (A) (A) (A)
 Beta  Orbitals:
       Occupied  (A) (A) (A) (A) (A) (A) (A) (A) (A) (A) (A) (A)
                 (A) (A) (A) (A) (A) (A) (A) (A) (A) (A) (A) (A)
                 (A) (A) (A) (A) (A) (A) (A) (A) (A) (A)
       Virtual   (A) (A) (A) (A) (A) (A) (A) (A) (A) (A) (A) (A)
                 (A) (A) (A) (A) (A) (A) (A) (A) (A) (A) (A) (A)
                 (A) (A) (A) (A) (A) (A) (A) (A) (A) (A) (A) (A)
                 (A) (A) (A) (A) (A) (A) (A) (A) (A) (A) (A) (A)
                 (A) (A) (A) (A) (A) (A) (A) (A) (A) (A) (A) (A)
                 (A) (A) (A) (A) (A) (A) (A) (A) (A) (A) (A) (A)
                 (A) (A) (A) (A) (A) (A) (A) (A) (A) (A) (A) (A)
                 (A) (A) (A) (A) (A) (A) (A) (A) (A) (A) (A) (A)
                 (A) (A) (A) (A) (A) (A) (A) (A) (A) (A) (A) (A)
                 (A) (A) (A) (A) (A) (A) (A) (A) (A) (A) (A) (A)
                 (A) (A) (A) (A) (A) (A) (A) (A) (A) (A) (A) (A)
                 (A) (A) (A) (A) (A) (A) (A) (A) (A) (A) (A) (A)
                 (A) (A) (A) (A) (A) (A) (A) (A) (A) (A) (A) (A)
                 (A) (A) (A) (A) (A) (A)
 The electronic state is 2-A.
 Alpha  occ. eigenvalues --  -19.61242 -19.46293 -19.45471 -14.74546 -14.68666
 Alpha  occ. eigenvalues --  -14.68276 -10.54090 -10.46541 -10.46451  -1.12595
 Alpha  occ. eigenvalues --   -1.11412  -1.02686  -0.94245  -0.87855  -0.80414
 Alpha  occ. eigenvalues --   -0.61185  -0.59534  -0.56285  -0.56144  -0.51134
 Alpha  occ. eigenvalues --   -0.44603  -0.43853  -0.40701  -0.39847  -0.38739
 Alpha  occ. eigenvalues --   -0.35133  -0.34216  -0.28505  -0.25483  -0.23623
 Alpha  occ. eigenvalues --   -0.21494  -0.20615  -0.18555  -0.18383   0.02460
 Alpha virt. eigenvalues --    0.11645   0.13535   0.14116   0.16260   0.17286
 Alpha virt. eigenvalues --    0.17681   0.18363   0.20032   0.20631   0.21696
 Alpha virt. eigenvalues --    0.21773   0.23117   0.24428   0.26573   0.27137
 Alpha virt. eigenvalues --    0.27603   0.27867   0.29064   0.31729   0.33067
 Alpha virt. eigenvalues --    0.33475   0.33795   0.35080   0.35652   0.36534
 Alpha virt. eigenvalues --    0.36813   0.37778   0.38776   0.39282   0.39997
 Alpha virt. eigenvalues --    0.41439   0.42485   0.43993   0.44559   0.44898
 Alpha virt. eigenvalues --    0.45351   0.45668   0.46304   0.46815   0.48921
 Alpha virt. eigenvalues --    0.49747   0.50380   0.53183   0.54185   0.54683
 Alpha virt. eigenvalues --    0.59371   0.61091   0.64336   0.67279   0.70041
 Alpha virt. eigenvalues --    0.83332   0.83542   0.85622   0.87504   0.95565
 Alpha virt. eigenvalues --    0.96735   1.00114   1.01892   1.05443   1.05795
 Alpha virt. eigenvalues --    1.06367   1.08469   1.09835   1.10849   1.14321
 Alpha virt. eigenvalues --    1.15009   1.15352   1.16090   1.19001   1.22074
 Alpha virt. eigenvalues --    1.23417   1.27231   1.28803   1.30117   1.33916
 Alpha virt. eigenvalues --    1.36229   1.41963   1.42454   1.43249   1.44184
 Alpha virt. eigenvalues --    1.45254   1.49313   1.51052   1.52226   1.52281
 Alpha virt. eigenvalues --    1.55091   1.55807   1.57070   1.57301   1.57939
 Alpha virt. eigenvalues --    1.59728   1.62163   1.66461   1.66954   1.70100
 Alpha virt. eigenvalues --    1.72769   1.77380   1.78770   1.84098   1.95099
 Alpha virt. eigenvalues --    1.95664   2.02475   2.04007   2.04051   2.07541
 Alpha virt. eigenvalues --    2.09812   2.16762   2.17857   2.19065   2.19636
 Alpha virt. eigenvalues --    2.20935   2.24409   2.26466   2.29639   2.36835
 Alpha virt. eigenvalues --    2.38567   2.39123   2.43176   2.45021   2.46180
 Alpha virt. eigenvalues --    2.46542   2.47801   2.53646   2.58874   2.59223
 Alpha virt. eigenvalues --    2.62085   2.64313   2.66345   2.69410   2.74302
 Alpha virt. eigenvalues --    2.75621   2.81343   2.83644   2.88879   2.94131
 Alpha virt. eigenvalues --    2.96428   2.97729   3.02520   3.09138   3.11271
 Alpha virt. eigenvalues --    3.15672   3.18363   3.25904   3.28547   3.31653
 Alpha virt. eigenvalues --    3.40136   3.40772   3.46330   3.48007   3.59893
 Alpha virt. eigenvalues --    3.69291   3.85036   4.17346   4.36963   4.40713
 Alpha virt. eigenvalues --    4.42166   4.50183   4.58033   4.73774   4.80551
 Alpha virt. eigenvalues --    4.99683
  Beta  occ. eigenvalues --  -19.60733 -19.46253 -19.45468 -14.74545 -14.68610
  Beta  occ. eigenvalues --  -14.68270 -10.54087 -10.46530 -10.46448  -1.11569
  Beta  occ. eigenvalues --   -1.11143  -1.02645  -0.94195  -0.87793  -0.80391
  Beta  occ. eigenvalues --   -0.61153  -0.59492  -0.55823  -0.55422  -0.51051
  Beta  occ. eigenvalues --   -0.44574  -0.43775  -0.40678  -0.39627  -0.38371
  Beta  occ. eigenvalues --   -0.35087  -0.34181  -0.28351  -0.25380  -0.23584
  Beta  occ. eigenvalues --   -0.21445  -0.20598  -0.18514  -0.18325
  Beta virt. eigenvalues --    0.06319   0.12077   0.12399   0.13311   0.14550
  Beta virt. eigenvalues --    0.15195   0.16087   0.16551   0.17938   0.18926
  Beta virt. eigenvalues --    0.19722   0.20194   0.21511   0.22656   0.23541
  Beta virt. eigenvalues --    0.25117   0.25474   0.26969   0.28637   0.31290
  Beta virt. eigenvalues --    0.32165   0.32895   0.33331   0.33733   0.34333
  Beta virt. eigenvalues --    0.35082   0.35897   0.36187   0.37248   0.38912
  Beta virt. eigenvalues --    0.39265   0.40147   0.41011   0.42811   0.42953
  Beta virt. eigenvalues --    0.43919   0.44596   0.44788   0.44973   0.46125
  Beta virt. eigenvalues --    0.47224   0.49050   0.49320   0.50988   0.53222
  Beta virt. eigenvalues --    0.53894   0.57999   0.60886   0.62824   0.67029
  Beta virt. eigenvalues --    0.69430   0.83059   0.83239   0.85316   0.87206
  Beta virt. eigenvalues --    0.95043   0.96125   0.99924   1.01635   1.04483
  Beta virt. eigenvalues --    1.05035   1.05900   1.05954   1.09014   1.10223
  Beta virt. eigenvalues --    1.12324   1.14253   1.14694   1.15133   1.18627
  Beta virt. eigenvalues --    1.21488   1.22928   1.26423   1.28111   1.28820
  Beta virt. eigenvalues --    1.33533   1.35765   1.41597   1.41954   1.42722
  Beta virt. eigenvalues --    1.43954   1.45069   1.49027   1.51056   1.52050
  Beta virt. eigenvalues --    1.52078   1.55086   1.55565   1.57000   1.57313
  Beta virt. eigenvalues --    1.57969   1.59513   1.61934   1.66743   1.66939
  Beta virt. eigenvalues --    1.70132   1.72718   1.77134   1.78808   1.84092
  Beta virt. eigenvalues --    1.95119   1.95560   2.02432   2.04066   2.04196
  Beta virt. eigenvalues --    2.07743   2.09776   2.16782   2.17926   2.19133
  Beta virt. eigenvalues --    2.19658   2.20976   2.24281   2.26807   2.30730
  Beta virt. eigenvalues --    2.36859   2.38863   2.39168   2.43361   2.45085
  Beta virt. eigenvalues --    2.46251   2.47415   2.48595   2.53793   2.58906
  Beta virt. eigenvalues --    2.59661   2.62368   2.64476   2.66762   2.69475
  Beta virt. eigenvalues --    2.74327   2.75655   2.81335   2.83678   2.89900
  Beta virt. eigenvalues --    2.94160   2.96624   2.97736   3.02624   3.09241
  Beta virt. eigenvalues --    3.11313   3.16724   3.19149   3.25952   3.28543
  Beta virt. eigenvalues --    3.31682   3.40181   3.40779   3.46369   3.48699
  Beta virt. eigenvalues --    3.61002   3.70073   3.85062   4.17274   4.36976
  Beta virt. eigenvalues --    4.40591   4.42400   4.50093   4.57962   4.73728
  Beta virt. eigenvalues --    4.80572   4.99504
          Condensed to atoms (all electrons):
               1          2          3          4          5          6
     1  O    8.268139   0.278335   0.247332   0.222478  -0.306478   0.272997
     2  H    0.278335   0.287649  -0.006314  -0.035558   0.030839  -0.000654
     3  H    0.247332  -0.006314   0.326905  -0.070570   0.055949  -0.000932
     4  N    0.222478  -0.035558  -0.070570  22.722711   0.608910 -15.406497
     5  N   -0.306478   0.030839   0.055949   0.608910  11.357718  -4.722465
     6  C    0.272997  -0.000654  -0.000932 -15.406497  -4.722465  48.162763
     7  C   -0.390986   0.014989   0.084337  16.456109   5.936980 -48.116829
     8  N    0.286706  -0.006271  -0.022552 -16.694511  -7.631148  27.095373
     9  H    0.000136  -0.000004  -0.000084   0.006832  -0.052329   0.487505
    10  H    0.000053  -0.000000  -0.000000  -0.090347  -0.005925   0.203732
    11  H    0.194537  -0.011312  -0.011005   0.029971   0.000324   0.024844
    12  C   -0.144493   0.022091   0.029120  -0.487740   1.475099  -1.659697
    13  O   -0.087263   0.007762   0.014675  -0.147894   0.406526  -0.532522
    14  O   -0.006534   0.000140   0.000114   0.092730   0.092475  -0.164449
               7          8          9         10         11         12
     1  O   -0.390986   0.286706   0.000136   0.000053   0.194537  -0.144493
     2  H    0.014989  -0.006271  -0.000004  -0.000000  -0.011312   0.022091
     3  H    0.084337  -0.022552  -0.000084  -0.000000  -0.011005   0.029120
     4  N   16.456109 -16.694511   0.006832  -0.090347   0.029971  -0.487740
     5  N    5.936980  -7.631148  -0.052329  -0.005925   0.000324   1.475099
     6  C  -48.116829  27.095373   0.487505   0.203732   0.024844  -1.659697
     7  C   60.744009 -30.355876  -0.146597   0.148110  -0.032278   2.044678
     8  N  -30.355876  37.262801   0.027526   0.056716   0.024704  -2.165223
     9  H   -0.146597   0.027526   0.503306   0.001069  -0.000071  -0.001340
    10  H    0.148110   0.056716   0.001069   0.541569  -0.000001  -0.000491
    11  H   -0.032278   0.024704  -0.000071  -0.000001   0.198881  -0.013747
    12  C    2.044678  -2.165223  -0.001340  -0.000491  -0.013747   5.274597
    13  O    0.680641  -0.726510  -0.000215  -0.000162   0.041665   0.545668
    14  O    0.177582  -0.381931   0.000022  -0.000155   0.001517   0.525497
              13         14
     1  O   -0.087263  -0.006534
     2  H    0.007762   0.000140
     3  H    0.014675   0.000114
     4  N   -0.147894   0.092730
     5  N    0.406526   0.092475
     6  C   -0.532522  -0.164449
     7  C    0.680641   0.177582
     8  N   -0.726510  -0.381931
     9  H   -0.000215   0.000022
    10  H   -0.000162  -0.000155
    11  H    0.041665   0.001517
    12  C    0.545668   0.525497
    13  O    8.606383  -0.115270
    14  O   -0.115270   8.338238
          Atomic-Atomic Spin Densities.
               1          2          3          4          5          6
     1  O    0.442067  -0.017864  -0.043994   0.276182  -0.341367   0.283270
     2  H   -0.017864   0.018570   0.011249  -0.035253   0.028821  -0.000555
     3  H   -0.043994   0.011249   0.086997  -0.079298   0.065002  -0.002159
     4  N    0.276182  -0.035253  -0.079298  13.884665   1.520776 -15.660609
     5  N   -0.341367   0.028821   0.065002   1.520776   3.036690  -4.694164
     6  C    0.283270  -0.000555  -0.002159 -15.660609  -4.694164  42.623309
     7  C   -0.396955   0.015067   0.084485  16.725479   5.628751 -48.117545
     8  N    0.286992  -0.006468  -0.022761 -16.572204  -6.870795  27.043710
     9  H    0.000470  -0.000002  -0.000072  -0.029937   0.028983   0.076017
    10  H    0.000053  -0.000000  -0.000000  -0.078721  -0.003999   0.226891
    11  H    0.007911  -0.001339  -0.003297   0.018651  -0.018704   0.013481
    12  C   -0.134351   0.020908   0.029596  -0.334076   1.347831  -1.642159
    13  O   -0.065161   0.010461   0.013402  -0.064885   0.477913  -0.538567
    14  O   -0.003846   0.000147   0.000082   0.120885   0.136023  -0.170020
               7          8          9         10         11         12
     1  O   -0.396955   0.286992   0.000470   0.000053   0.007911  -0.134351
     2  H    0.015067  -0.006468  -0.000002  -0.000000  -0.001339   0.020908
     3  H    0.084485  -0.022761  -0.000072  -0.000000  -0.003297   0.029596
     4  N   16.725479 -16.572204  -0.029937  -0.078721   0.018651  -0.334076
     5  N    5.628751  -6.870795   0.028983  -0.003999  -0.018704   1.347831
     6  C  -48.117545  27.043710   0.076017   0.226891   0.013481  -1.642159
     7  C   55.118176 -30.497777  -0.099547  -0.246028  -0.025420   2.053534
     8  N  -30.497777  29.416501   0.023297   0.099004   0.018307  -2.154511
     9  H   -0.099547   0.023297  -0.005855   0.000177   0.000005  -0.001471
    10  H   -0.246028   0.099004   0.000177   0.003247   0.000001  -0.001176
    11  H   -0.025420   0.018307   0.000005   0.000001   0.006432  -0.010675
    12  C    2.053534  -2.154511  -0.001471  -0.001176  -0.010675   0.780134
    13  O    0.688956  -0.754128  -0.000322  -0.000196  -0.003966   0.185544
    14  O    0.187554  -0.346110  -0.000045  -0.000099  -0.000283   0.056531
              13         14
     1  O   -0.065161  -0.003846
     2  H    0.010461   0.000147
     3  H    0.013402   0.000082
     4  N   -0.064885   0.120885
     5  N    0.477913   0.136023
     6  C   -0.538567  -0.170020
     7  C    0.688956   0.187554
     8  N   -0.754128  -0.346110
     9  H   -0.000322  -0.000045
    10  H   -0.000196  -0.000099
    11  H   -0.003966  -0.000283
    12  C    0.185544   0.056531
    13  O    0.108389   0.014246
    14  O    0.014246   0.013154
 Mulliken charges and spin densities:
               1          2
     1  O   -0.834960   0.293407
     2  H    0.418307   0.043742
     3  H    0.353024   0.139230
     4  N   -0.206625  -0.308346
     5  N   -0.246476   0.341763
     6  C    0.356831  -0.559100
     7  C   -1.244870   1.118731
     8  N    0.230198  -0.336942
     9  H    0.174246  -0.008303
    10  H    0.145834  -0.000846
    11  H    0.551972   0.001103
    12  C    0.555980   0.195658
    13  O   -0.693484   0.071686
    14  O   -0.559977   0.008218
 Sum of Mulliken charges =  -1.00000   1.00000
 Mulliken charges and spin densities with hydrogens summed into heavy atoms:
               1          2
     1  O    0.488343   0.477482
     4  N   -0.206625  -0.308346
     5  N   -0.246476   0.341763
     6  C    0.531077  -0.567403
     7  C   -1.099036   1.117884
     8  N    0.230198  -0.336942
    12  C    0.555980   0.195658
    13  O   -0.693484   0.071686
    14  O   -0.559977   0.008218
 APT charges:
               1
     1  O   -0.539127
     2  H    0.707752
     3  H    0.442475
     4  N   -0.159013
     5  N   -0.852210
     6  C    1.099419
     7  C   -2.891515
     8  N    0.820648
     9  H    0.632789
    10  H    0.731107
    11  H    0.136829
    12  C   -0.235485
    13  O   -0.653180
    14  O   -0.240489
 Sum of APT charges =  -1.00000
 APT charges with hydrogens summed into heavy atoms:
               1
     1  O    0.747929
     4  N   -0.159013
     5  N   -0.852210
     6  C    1.732209
     7  C   -2.160409
     8  N    0.820648
    12  C   -0.235485
    13  O   -0.653180
    14  O   -0.240489
 Electronic spatial extent (au):  <R**2>=           1289.2059
 Charge=             -1.0000 electrons
 Dipole moment (field-independent basis, Debye):
    X=              3.6647    Y=             -2.5740    Z=             -0.5376  Tot=              4.5105
 Quadrupole moment (field-independent basis, Debye-Ang):
   XX=            -69.4067   YY=            -89.5136   ZZ=            -61.3876
   XY=            -10.0889   XZ=              0.2421   YZ=              1.0367
 Traceless Quadrupole moment (field-independent basis, Debye-Ang):
   XX=              4.0292   YY=            -16.0776   ZZ=             12.0484
   XY=            -10.0889   XZ=              0.2421   YZ=              1.0367
 Octapole moment (field-independent basis, Debye-Ang**2):
  XXX=             30.1562  YYY=             25.6686  ZZZ=             -7.5947  XYY=             28.0539
  XXY=             12.6021  XXZ=             -0.7974  XZZ=              4.5191  YZZ=             17.3691
  YYZ=             -4.7389  XYZ=             -0.6682
 Hexadecapole moment (field-independent basis, Debye-Ang**3):
 XXXX=          -1059.5639 YYYY=          -1099.0296 ZZZZ=            -96.1777 XXXY=           -113.1364
 XXXZ=              5.4520 YYYX=            -96.9810 YYYZ=             16.0823 ZZZX=             14.6178
 ZZZY=             12.3293 XXYY=           -378.5946 XXZZ=           -206.0461 YYZZ=           -172.5444
 XXYZ=              2.4961 YYXZ=              4.3602 ZZXY=            -13.5862
 N-N= 4.535349873471D+02 E-N=-2.104143342468D+03  KE= 5.031508187995D+02
  Exact polarizability:   0.000   0.000   0.000   0.000   0.000   0.000
 Approx polarizability: 210.719 -51.221 183.756  -1.085  13.347  96.470
                          Isotropic Fermi Contact Couplings
        Atom                 a.u.       MegaHertz       Gauss      10(-4) cm-1
     1  O(17)              0.73294    -444.30617    -158.53949    -148.20458
     2  H(1)               0.00585      26.13046       9.32400       8.71618
     3  H(1)               0.00593      26.50704       9.45837       8.84180
     4  N(14)             -0.00024      -0.07846      -0.02800      -0.02617
     5  N(14)              0.04618      14.92210       5.32458       4.97748
     6  C(13)              0.00523       5.88344       2.09936       1.96250
     7  C(13)             -0.00022      -0.24501      -0.08743      -0.08173
     8  N(14)              0.00126       0.40861       0.14580       0.13630
     9  H(1)              -0.00003      -0.12479      -0.04453      -0.04163
    10  H(1)               0.00001       0.05701       0.02034       0.01902
    11  H(1)               0.00243      10.86809       3.87800       3.62520
    12  C(13)              0.00375       4.21220       1.50302       1.40504
    13  O(17)              0.03888     -23.56911      -8.41004      -7.86181
    14  O(17)              0.00103      -0.62138      -0.22172      -0.20727
 --------------------------------------------------------
       Center         ----  Spin Dipole Couplings  ----
                      3XX-RR        3YY-RR        3ZZ-RR
 --------------------------------------------------------
     1   Atom       -0.074944     -0.071089      0.146033
     2   Atom        0.008900      0.007639     -0.016539
     3   Atom       -0.021522      0.033528     -0.012006
     4   Atom       -0.000452      0.002980     -0.002528
     5   Atom        0.024930     -0.013405     -0.011524
     6   Atom       -0.003234      0.009143     -0.005909
     7   Atom        0.002052     -0.000640     -0.001413
     8   Atom       -0.000194      0.000549     -0.000354
     9   Atom        0.001941      0.002342     -0.004283
    10   Atom        0.001389     -0.000566     -0.000823
    11   Atom        0.005648      0.001435     -0.007083
    12   Atom        0.001393      0.000636     -0.002030
    13   Atom       -0.007226      0.010874     -0.003648
    14   Atom        0.002446     -0.000751     -0.001695
 --------------------------------------------------------
                        XY            XZ            YZ
 --------------------------------------------------------
     1   Atom        0.067362     -0.084892     -0.092463
     2   Atom       -0.024690     -0.006221      0.003830
     3   Atom       -0.013458      0.005534     -0.029039
     4   Atom        0.002932      0.000494      0.002575
     5   Atom        0.011438      0.003246      0.000481
     6   Atom       -0.000652     -0.000188     -0.004272
     7   Atom        0.001245     -0.000174      0.000191
     8   Atom        0.004682      0.003253      0.004430
     9   Atom        0.001632     -0.000865      0.000429
    10   Atom        0.000429     -0.000171     -0.000028
    11   Atom        0.009994     -0.003600     -0.004133
    12   Atom        0.002489      0.000930     -0.000006
    13   Atom        0.009547     -0.002038     -0.001247
    14   Atom        0.002019      0.002902      0.000454
 --------------------------------------------------------


 ---------------------------------------------------------------------------------
              Anisotropic Spin Dipole Couplings in Principal Axis System
 ---------------------------------------------------------------------------------

       Atom             a.u.   MegaHertz   Gauss  10(-4) cm-1        Axes

              Baa    -0.1405    10.165     3.627     3.391 -0.7033  0.7106  0.0210
     1 O(17)  Bbb    -0.0764     5.525     1.971     1.843  0.6264  0.6055  0.4909
              Bcc     0.2168   -15.690    -5.599    -5.234 -0.3361 -0.3583  0.8710
 
              Baa    -0.0187    -9.959    -3.554    -3.322  0.4833  0.3359  0.8084
     2 H(1)   Bbb    -0.0153    -8.168    -2.914    -2.724  0.5092  0.6433 -0.5717
              Bcc     0.0340    18.127     6.468     6.047  0.7121 -0.6880 -0.1399
 
              Baa    -0.0265   -14.152    -5.050    -4.721  0.3882  0.4702  0.7926
     3 H(1)   Bbb    -0.0241   -12.838    -4.581    -4.282  0.9002 -0.0092 -0.4355
              Bcc     0.0506    26.990     9.631     9.003 -0.1975  0.8825 -0.4269
 
              Baa    -0.0037    -0.143    -0.051    -0.048  0.2719 -0.4467  0.8524
     4 N(14)  Bbb    -0.0017    -0.066    -0.024    -0.022  0.8533 -0.2976 -0.4282
              Bcc     0.0054     0.210     0.075     0.070  0.4449  0.8438  0.3002
 
              Baa    -0.0166    -0.640    -0.228    -0.213 -0.2707  0.9592  0.0823
     5 N(14)  Bbb    -0.0118    -0.453    -0.162    -0.151 -0.0564 -0.1011  0.9933
              Bcc     0.0283     1.093     0.390     0.365  0.9610  0.2642  0.0814
 
              Baa    -0.0071    -0.949    -0.338    -0.316  0.0908  0.2572  0.9621
     6 C(13)  Bbb    -0.0032    -0.433    -0.155    -0.144  0.9949  0.0183 -0.0988
              Bcc     0.0103     1.382     0.493     0.461 -0.0430  0.9662 -0.2542
 
              Baa    -0.0016    -0.208    -0.074    -0.069  0.1983 -0.4523  0.8696
     7 C(13)  Bbb    -0.0010    -0.133    -0.047    -0.044 -0.3050  0.8147  0.4933
              Bcc     0.0025     0.341     0.122     0.114  0.9315  0.3630 -0.0236
 
              Baa    -0.0048    -0.185    -0.066    -0.062 -0.4975  0.7687 -0.4020
     8 N(14)  Bbb    -0.0035    -0.136    -0.049    -0.045 -0.6669 -0.0426  0.7439
              Bcc     0.0083     0.321     0.115     0.107  0.5547  0.6382  0.5338
 
              Baa    -0.0045    -2.383    -0.850    -0.795  0.1581 -0.0998  0.9824
     9 H(1)   Bbb     0.0007     0.358     0.128     0.119  0.7263 -0.6623 -0.1841
              Bcc     0.0038     2.024     0.722     0.675  0.6690  0.7426 -0.0322
 
              Baa    -0.0008    -0.446    -0.159    -0.149  0.0816 -0.0254  0.9963
    10 H(1)   Bbb    -0.0007    -0.350    -0.125    -0.117 -0.2018  0.9785  0.0415
              Bcc     0.0015     0.796     0.284     0.265  0.9760  0.2045 -0.0747
 
              Baa    -0.0088    -4.692    -1.674    -1.565 -0.0835  0.4424  0.8929
    11 H(1)   Bbb    -0.0063    -3.351    -1.196    -1.118  0.6585 -0.6480  0.3827
              Bcc     0.0151     8.043     2.870     2.683  0.7479  0.6199 -0.2372
 
              Baa    -0.0025    -0.334    -0.119    -0.111 -0.4159  0.3327  0.8463
    12 C(13)  Bbb    -0.0011    -0.152    -0.054    -0.051 -0.4962  0.6969 -0.5178
              Bcc     0.0036     0.486     0.173     0.162  0.7621  0.6353  0.1247
 
              Baa    -0.0116     0.838     0.299     0.279  0.9096 -0.3771  0.1745
    13 O(17)  Bbb    -0.0036     0.261     0.093     0.087 -0.1201  0.1635  0.9792
              Bcc     0.0152    -1.099    -0.392    -0.366  0.3978  0.9116 -0.1034
 
              Baa    -0.0033     0.240     0.086     0.080 -0.5034  0.2492  0.8274
    14 O(17)  Bbb    -0.0014     0.098     0.035     0.033 -0.1858  0.9039 -0.3853
              Bcc     0.0047    -0.339    -0.121    -0.113  0.8439  0.3477  0.4087
 

 ---------------------------------------------------------------------------------

 Calling FoFJK, ICntrl=    100147 FMM=F ISym2X=0 I1Cent= 0 IOpClX= 1 NMat=1 NMatS=1 NMatT=0.
 ***** Axes restored to original set *****
 -------------------------------------------------------------------
 Center     Atomic                   Forces (Hartrees/Bohr)
 Number     Number              X              Y              Z
 -------------------------------------------------------------------
      1        8          -0.004674622    0.020138504    0.030839446
      2        1           0.011945712    0.009872756   -0.008090641
      3        1          -0.005651111   -0.035342147   -0.021308074
      4        7          -0.013395512   -0.014163603    0.000120227
      5        7          -0.003907642    0.003171043    0.001347003
      6        6           0.001660491   -0.000552365   -0.001933414
      7        6           0.002505426   -0.003994544    0.001307553
      8        7           0.002915203    0.003294862   -0.000771344
      9        1           0.002318517   -0.000605261   -0.000380552
     10        1          -0.000635213    0.000687993    0.000014611
     11        1          -0.003834304    0.006527903   -0.001678417
     12        6           0.012781571    0.035790126   -0.000527195
     13        8          -0.002239465   -0.009378933    0.000979330
     14        8           0.000210949   -0.015446334    0.000081465
 -------------------------------------------------------------------
 Cartesian Forces:  Max     0.035790126 RMS     0.011671188
 FormGI is forming the generalized inverse of G from B-inverse, IUseBI=4.

 GradGradGradGradGradGradGradGradGradGradGradGradGradGradGradGradGradGrad
 Berny optimization.
 Internal  Forces:  Max     0.041577596 RMS     0.006441792
 Search for a saddle point.
 Step number   1 out of a maximum of  100
 All quantities printed in internal units (Hartrees-Bohrs-Radians)
 Swapping is turned off.
 Second derivative matrix not updated -- analytic derivatives used.
 ITU=  0
     Eigenvalues ---   -0.00693   0.00134   0.00167   0.00264   0.00351
     Eigenvalues ---    0.01030   0.01405   0.01439   0.02076   0.02577
     Eigenvalues ---    0.02620   0.03918   0.06472   0.06904   0.08164
     Eigenvalues ---    0.09328   0.10235   0.10667   0.11362   0.15913
     Eigenvalues ---    0.20429   0.22239   0.26617   0.32462   0.33582
     Eigenvalues ---    0.35567   0.37748   0.38485   0.38815   0.41295
     Eigenvalues ---    0.42283   0.45221   0.52243   0.60002   0.61998
     Eigenvalues ---    0.82623
 Eigenvectors required to have negative eigenvalues:
                          R13       A17       A18       R8        A9
   1                   -0.53007  -0.50807   0.47945   0.37377   0.14858
                          A8        A23       D3        D21       D19
   1                   -0.14341   0.10761  -0.09523   0.08624   0.08284
 RFO step:  Lambda0=5.838027438D-04 Lambda=-1.22099140D-02.
 Linear search not attempted -- option 19 set.
 Maximum step size (   0.300) exceeded in Quadratic search.
    -- Step size scaled by   0.667
 Iteration  1 RMS(Cart)=  0.07287251 RMS(Int)=  0.00178795
 Iteration  2 RMS(Cart)=  0.00236491 RMS(Int)=  0.00038948
 Iteration  3 RMS(Cart)=  0.00000392 RMS(Int)=  0.00038946
 Iteration  4 RMS(Cart)=  0.00000000 RMS(Int)=  0.00038946
 Variable       Old X    -DE/DX   Delta X   Delta X   Delta X     New X
                                 (Linear)    (Quad)   (Total)
    R1        1.84608   0.01734   0.00000   0.01889   0.01889   1.86496
    R2        1.84487   0.04158   0.00000   0.07908   0.07908   1.92395
    R3        1.90364   0.00428   0.00000   0.00767   0.00767   1.91131
    R4        2.50620  -0.00246   0.00000  -0.01258  -0.01218   2.49402
    R5        2.49916  -0.00276   0.00000  -0.00820  -0.00817   2.49099
    R6        2.80137   0.01718   0.00000   0.07308   0.07356   2.87492
    R7        2.50721  -0.00469   0.00000  -0.00235  -0.00235   2.50486
    R8        3.70381  -0.00323   0.00000  -0.19689  -0.19711   3.50670
    R9        2.65648  -0.00126   0.00000  -0.00347  -0.00352   2.65296
   R10        2.04011   0.00072   0.00000   0.00150   0.00150   2.04162
   R11        2.51004   0.00381   0.00000   0.01087   0.01083   2.52088
   R12        2.03960   0.00047   0.00000   0.00083   0.00083   2.04043
   R13        3.60989  -0.00147   0.00000   0.13407   0.13364   3.74353
   R14        2.35310   0.00104   0.00000  -0.00889  -0.00882   2.34427
   R15        2.33065  -0.01407   0.00000  -0.01913  -0.01913   2.31152
    A1        1.90155   0.00139   0.00000   0.00628   0.00525   1.90680
    A2        1.90916  -0.00195   0.00000  -0.02154  -0.02201   1.88715
    A3        1.92863  -0.00257   0.00000  -0.04493  -0.04540   1.88323
    A4        2.00533  -0.00055   0.00000  -0.00242  -0.00264   2.00269
    A5        2.10458  -0.00149   0.00000  -0.01898  -0.01833   2.08625
    A6        2.17327   0.00204   0.00000   0.02142   0.02094   2.19421
    A7        1.82543   0.00358   0.00000   0.01217   0.01220   1.83763
    A8        1.84719   0.00206   0.00000   0.06827   0.06830   1.91549
    A9        2.61056  -0.00565   0.00000  -0.08049  -0.08061   2.52995
   A10        1.88199  -0.00183   0.00000  -0.00931  -0.00927   1.87272
   A11        2.12545  -0.00142   0.00000  -0.01022  -0.01024   2.11521
   A12        2.27575   0.00325   0.00000   0.01953   0.01951   2.29526
   A13        1.89303   0.00031   0.00000   0.00092   0.00092   1.89395
   A14        2.26807   0.00067   0.00000   0.00617   0.00616   2.27424
   A15        2.12209  -0.00097   0.00000  -0.00709  -0.00710   2.11499
   A16        1.81900  -0.00151   0.00000  -0.00137  -0.00125   1.81775
   A17        2.50470  -0.00483   0.00000   0.01920   0.01964   2.52434
   A18        2.27679   0.00301   0.00000  -0.02018  -0.01974   2.25705
   A19        1.49913   0.00181   0.00000   0.00095   0.00006   1.49920
   A20        1.96646  -0.00530   0.00000  -0.03035  -0.02983   1.93663
   A21        2.01495  -0.00477   0.00000  -0.01915  -0.01941   1.99554
   A22        2.30178   0.01008   0.00000   0.04950   0.04924   2.35101
   A23        2.00739   0.00293   0.00000  -0.01980  -0.02018   1.98721
    D1        2.79293  -0.00208   0.00000  -0.08748  -0.08689   2.70603
    D2       -0.45499  -0.00202   0.00000  -0.08854  -0.08826  -0.54325
    D3        0.69952  -0.00096   0.00000  -0.05366  -0.05394   0.64558
    D4       -2.54840  -0.00091   0.00000  -0.05472  -0.05530  -2.60370
    D5        0.00054   0.00036   0.00000   0.00612   0.00663   0.00717
    D6        3.13805  -0.00000   0.00000  -0.00110  -0.00139   3.13666
    D7        3.13992   0.00049   0.00000   0.01667   0.01719  -3.12608
    D8       -0.00576   0.00013   0.00000   0.00946   0.00917   0.00341
    D9       -0.00045   0.00011   0.00000  -0.00129  -0.00169  -0.00214
   D10       -3.13972  -0.00002   0.00000  -0.01227  -0.01295   3.13051
   D11        0.00128  -0.00018   0.00000  -0.00348  -0.00281  -0.00153
   D12       -3.14028  -0.00009   0.00000  -0.00450  -0.00412   3.13878
   D13        3.14043  -0.00004   0.00000   0.00810   0.00897  -3.13379
   D14       -0.00113   0.00005   0.00000   0.00708   0.00765   0.00652
   D15       -0.00040  -0.00065   0.00000  -0.00806  -0.00843  -0.00883
   D16        3.14151  -0.00042   0.00000  -0.00670  -0.00677   3.13474
   D17       -3.13422  -0.00005   0.00000   0.00443   0.00365  -3.13057
   D18        0.00768   0.00018   0.00000   0.00579   0.00531   0.01299
   D19        3.06665   0.00023   0.00000  -0.01160  -0.01155   3.05509
   D20        0.00611  -0.00003   0.00000  -0.00940  -0.00915  -0.00304
   D21       -0.08276  -0.00037   0.00000  -0.02429  -0.02408  -0.10684
   D22        3.13989  -0.00063   0.00000  -0.02210  -0.02167   3.11821
   D23        0.00015   0.00075   0.00000   0.00777   0.00786   0.00801
   D24       -3.14146   0.00016   0.00000   0.00233   0.00252  -3.13893
   D25        3.14140   0.00050   0.00000   0.00625   0.00595  -3.13584
   D26       -0.00021  -0.00009   0.00000   0.00081   0.00062   0.00041
   D27        0.00016  -0.00051   0.00000  -0.00390  -0.00376  -0.00360
   D28       -3.14142   0.00002   0.00000   0.00100   0.00100  -3.14042
   D29       -3.08448   0.00031   0.00000   0.00788   0.00773  -3.07674
   D30       -0.00620  -0.00007   0.00000   0.00890   0.00864   0.00244
   D31        0.00439   0.00013   0.00000  -0.00581  -0.00552  -0.00113
   D32       -3.13724   0.00001   0.00000  -0.00457  -0.00383  -3.14108
         Item               Value     Threshold  Converged?
 Maximum Force            0.041578     0.000450     NO 
 RMS     Force            0.006442     0.000300     NO 
 Maximum Displacement     0.270120     0.001800     NO 
 RMS     Displacement     0.073780     0.001200     NO 
 Predicted change in Energy=-5.641959D-03
 GradGradGradGradGradGradGradGradGradGradGradGradGradGradGradGradGradGrad

                          Input orientation:                          
 ---------------------------------------------------------------------
 Center     Atomic      Atomic             Coordinates (Angstroms)
 Number     Number       Type             X           Y           Z
 ---------------------------------------------------------------------
      1          8           0        2.635171   -1.413037    0.100037
      2          1           0        3.363782   -0.908850   -0.334572
      3          1           0        2.478975   -2.281772   -0.407359
      4          7           0       -0.555449    0.296012    0.009894
      5          7           0       -0.064258   -0.928906    0.021165
      6          6           0       -1.120640   -1.729282   -0.000061
      7          6           0       -2.262707   -0.912939   -0.012649
      8          7           0       -1.871813    0.362489   -0.008898
      9          1           0       -1.008542   -2.803824   -0.003127
     10          1           0       -3.309627   -1.176714   -0.028232
     11          1           0        1.790077   -0.860773    0.038443
     12          6           0        0.394008    1.484716    0.008015
     13          8           0        1.576073    1.108535    0.019796
     14          8           0       -0.162181    2.574066   -0.005902
 ---------------------------------------------------------------------
                    Distance matrix (angstroms):
                    1          2          3          4          5
     1  O    0.000000
     2  H    0.986896   0.000000
     3  H    1.018111   1.634961   0.000000
     4  N    3.620639   4.114696   4.003349   0.000000
     5  N    2.743633   3.446507   2.912373   1.319781   0.000000
     6  C    3.770430   4.571110   3.664473   2.102702   1.325517
     7  C    4.924632   5.635693   4.951065   2.092081   2.198767
     8  N    4.845333   5.397575   5.106882   1.318175   2.221679
     9  H    3.901483   4.776819   3.549466   3.132802   2.099423
    10  H    5.950875   6.685804   5.905320   3.123439   3.255190
    11  H    1.011421   1.618023   1.640902   2.615428   1.855667
    12  C    3.664457   3.829631   4.325049   1.521345   2.456777
    13  O    2.736138   2.718698   3.534385   2.281157   2.615694
    14  O    4.871693   4.967006   5.542205   2.311804   3.504445
                    6          7          8          9         10
     6  C    0.000000
     7  C    1.403885   0.000000
     8  N    2.222576   1.333990   0.000000
     9  H    1.080377   2.269023   3.281891   0.000000
    10  H    2.257828   1.079750   2.106378   2.818353   0.000000
    11  H    3.037773   4.053442   3.861094   3.407263   5.109916
    12  C    3.553028   3.578731   2.528562   4.512078   4.560859
    13  O    3.914826   4.338622   3.527793   4.689063   5.393953
    14  O    4.408796   4.070806   2.795339   5.444083   4.896454
                   11         12         13         14
    11  H    0.000000
    12  C    2.729698   0.000000
    13  O    1.980990   1.240535   0.000000
    14  O    3.951126   1.223203   2.273757   0.000000
 Stoichiometry    C3H5N3O3(1-,2)
 Framework group  C1[X(C3H5N3O3)]
 Deg. of freedom    36
 Full point group                 C1      NOp   1
 Largest Abelian subgroup         C1      NOp   1
 Largest concise Abelian subgroup C1      NOp   1
                         Standard orientation:                         
 ---------------------------------------------------------------------
 Center     Atomic      Atomic             Coordinates (Angstroms)
 Number     Number       Type             X           Y           Z
 ---------------------------------------------------------------------
      1          8           0       -2.655952   -1.384362   -0.087354
      2          1           0       -3.373754   -0.867715    0.350596
      3          1           0       -2.513489   -2.256399    0.418418
      4          7           0        0.565173    0.266988   -0.007213
      5          7           0        0.052016   -0.948895   -0.018085
      6          6           0        1.093919   -1.768142   -0.001793
      7          6           0        2.250508   -0.972461    0.007458
      8          7           0        1.882579    0.309786    0.006694
      9          1           0        0.962546   -2.840500    0.000421
     10          1           0        3.292570   -1.255016    0.018781
     11          1           0       -1.800848   -0.847445   -0.028292
     12          6           0       -0.362761    1.472550   -0.000345
     13          8           0       -1.551429    1.117677   -0.008115
     14          8           0        0.212958    2.551716    0.012768
 ---------------------------------------------------------------------
 Rotational constants (GHZ):           1.9388151           1.5971676           0.8769852
 Standard basis: 6-31+G(d,p) (6D, 7F)
 There are   196 symmetry adapted cartesian basis functions of A   symmetry.
 There are   196 symmetry adapted basis functions of A   symmetry.
   196 basis functions,   323 primitive gaussians,   196 cartesian basis functions
    35 alpha electrons       34 beta electrons
       nuclear repulsion energy       453.4589432673 Hartrees.
 NAtoms=   14 NActive=   14 NUniq=   14 SFac= 1.00D+00 NAtFMM=   60 NAOKFM=F Big=F
 Integral buffers will be    131072 words long.
 Raffenetti 2 integral format.
 Two-electron integral symmetry is turned on.
 One-electron integrals computed using PRISM.
 NBasis=   196 RedAO= T EigKep=  2.12D-05  NBF=   196
 NBsUse=   196 1.00D-06 EigRej= -1.00D+00 NBFU=   196
 Initial guess from the checkpoint file:  "/scratch/gongke2021/TS-cycle/Gau-8587.chk"
 B after Tr=     0.000000    0.000000    0.000000
         Rot=    0.999941   -0.000322   -0.000279    0.010891 Ang=  -1.25 deg.
 Initial guess <Sx>= 0.0000 <Sy>= 0.0000 <Sz>= 0.5000 <S**2>= 0.7511 S= 0.5005
 ExpMin= 4.38D-02 ExpMax= 5.48D+03 ExpMxC= 8.25D+02 IAcc=2 IRadAn=         4 AccDes= 0.00D+00
 Harris functional with IExCor= 1009 and IRadAn=       4 diagonalized for initial guess.
 HarFok:  IExCor= 1009 AccDes= 0.00D+00 IRadAn=         4 IDoV= 1 UseB2=F ITyADJ=14
 ICtDFT=  3500011 ScaDFX=  1.000000  1.000000  1.000000  1.000000
 FoFCou: FMM=F IPFlag=           0 FMFlag=      100000 FMFlg1=           0
         NFxFlg=           0 DoJE=T BraDBF=F KetDBF=T FulRan=T
         wScrn=  0.000000 ICntrl=       500 IOpCl=  0 I1Cent=   200000004 NGrid=           0
         NMat0=    1 NMatS0=      1 NMatT0=    0 NMatD0=    1 NMtDS0=    0 NMtDT0=    0
 Petite list used in FoFCou.
 Requested convergence on RMS density matrix=1.00D-08 within 128 cycles.
 Requested convergence on MAX density matrix=1.00D-06.
 Requested convergence on             energy=1.00D-06.
 No special actions if energy rises.
 Restarting incremental Fock formation.
 SCF Done:  E(UM062X) =  -507.014950444     A.U. after   21 cycles
            NFock= 21  Conv=0.51D-08     -V/T= 2.0078
 <Sx>= 0.0000 <Sy>= 0.0000 <Sz>= 0.5000 <S**2>= 0.7510 S= 0.5005
 <L.S>=  0.00000000000    
 Annihilation of the first spin contaminant:
 S**2 before annihilation     0.7510,   after     0.7500
 Calling FoFJK, ICntrl=      2127 FMM=F ISym2X=0 I1Cent= 0 IOpClX= 1 NMat=1 NMatS=1 NMatT=0.
 ***** Axes restored to original set *****
 -------------------------------------------------------------------
 Center     Atomic                   Forces (Hartrees/Bohr)
 Number     Number              X              Y              Z
 -------------------------------------------------------------------
      1        8           0.002178071    0.010911526    0.013114499
      2        1           0.003965225    0.002812590   -0.004413505
      3        1          -0.004097341   -0.016819378   -0.008577427
      4        7          -0.006367840   -0.006574952    0.000606489
      5        7           0.000546819    0.001816848   -0.000095922
      6        6           0.000408478   -0.000608633   -0.001238130
      7        6           0.000958189   -0.001507622    0.000780007
      8        7           0.000935224    0.000987014   -0.000609258
      9        1           0.001006853   -0.000222118   -0.000198713
     10        1          -0.000233369    0.000231473    0.000007320
     11        1          -0.004488691    0.002314363    0.000312595
     12        6           0.006782665    0.014743725   -0.000360222
     13        8          -0.001298038   -0.002871244    0.000572976
     14        8          -0.000296245   -0.005213591    0.000099290
 -------------------------------------------------------------------
 Cartesian Forces:  Max     0.016819378 RMS     0.005200429

 GradGradGradGradGradGradGradGradGradGradGradGradGradGradGradGradGradGrad
 Berny optimization.
 FormGI is forming the generalized inverse of G from B-inverse, IUseBI=4.
 Internal  Forces:  Max     0.019250042 RMS     0.002922321
 Search for a saddle point.
 Step number   2 out of a maximum of  100
 All quantities printed in internal units (Hartrees-Bohrs-Radians)
 Swapping is turned off.
 Update second derivatives using D2CorX and points    1    2
 ITU=  0  0
     Eigenvalues ---   -0.00827   0.00149   0.00165   0.00311   0.00416
     Eigenvalues ---    0.01041   0.01412   0.01443   0.02066   0.02593
     Eigenvalues ---    0.02623   0.03915   0.06466   0.06896   0.08127
     Eigenvalues ---    0.09322   0.10236   0.10666   0.11361   0.15682
     Eigenvalues ---    0.20402   0.22238   0.26613   0.32413   0.33133
     Eigenvalues ---    0.35566   0.37746   0.38485   0.38700   0.41292
     Eigenvalues ---    0.41937   0.45218   0.52240   0.60002   0.61995
     Eigenvalues ---    0.82618
 Eigenvectors required to have negative eigenvalues:
                          R13       A17       A18       R8        A9
   1                   -0.53457  -0.50354   0.46915   0.38337   0.15557
                          A8        A23       D3        D19       D21
   1                   -0.14917   0.10737  -0.09169   0.07770   0.07266
 RFO step:  Lambda0=7.399002469D-05 Lambda=-5.09229877D-03.
 Linear search not attempted -- option 19 set.
 Maximum step size (   0.300) exceeded in Quadratic search.
    -- Step size scaled by   0.964
 Iteration  1 RMS(Cart)=  0.12744919 RMS(Int)=  0.01321592
 Iteration  2 RMS(Cart)=  0.01680875 RMS(Int)=  0.00180304
 Iteration  3 RMS(Cart)=  0.00039530 RMS(Int)=  0.00177453
 Iteration  4 RMS(Cart)=  0.00000098 RMS(Int)=  0.00177453
 Variable       Old X    -DE/DX   Delta X   Delta X   Delta X     New X
                                 (Linear)    (Quad)   (Total)
    R1        1.86496   0.00631   0.00000   0.00344   0.00344   1.86840
    R2        1.92395   0.01925   0.00000   0.07010   0.07010   1.99405
    R3        1.91131   0.00340   0.00000   0.01895   0.01895   1.93026
    R4        2.49402  -0.00093   0.00000  -0.00999  -0.00987   2.48416
    R5        2.49099  -0.00082   0.00000  -0.00439  -0.00438   2.48661
    R6        2.87492   0.00846   0.00000   0.05476   0.05475   2.92967
    R7        2.50486  -0.00148   0.00000  -0.00134  -0.00136   2.50351
    R8        3.50670  -0.00301   0.00000  -0.17526  -0.17520   3.33150
    R9        2.65296  -0.00054   0.00000  -0.00173  -0.00173   2.65123
   R10        2.04162   0.00033   0.00000   0.00172   0.00172   2.04334
   R11        2.52088   0.00155   0.00000   0.00795   0.00795   2.52883
   R12        2.04043   0.00017   0.00000   0.00044   0.00044   2.04087
   R13        3.74353   0.00048   0.00000   0.01390   0.01386   3.75739
   R14        2.34427   0.00030   0.00000  -0.00415  -0.00430   2.33997
   R15        2.31152  -0.00451   0.00000  -0.01111  -0.01111   2.30040
    A1        1.90680   0.00038   0.00000   0.00187   0.00193   1.90873
    A2        1.88715  -0.00073   0.00000   0.01440   0.01443   1.90158
    A3        1.88323  -0.00120   0.00000  -0.03748  -0.03746   1.84578
    A4        2.00269  -0.00042   0.00000  -0.00215  -0.00224   2.00046
    A5        2.08625  -0.00097   0.00000  -0.02449  -0.02455   2.06170
    A6        2.19421   0.00138   0.00000   0.02645   0.02633   2.22054
    A7        1.83763   0.00150   0.00000   0.01015   0.01020   1.84783
    A8        1.91549   0.00144   0.00000   0.04199   0.04192   1.95741
    A9        2.52995  -0.00294   0.00000  -0.05217  -0.05213   2.47782
   A10        1.87272  -0.00074   0.00000  -0.00804  -0.00806   1.86466
   A11        2.11521  -0.00063   0.00000  -0.00876  -0.00875   2.10646
   A12        2.29526   0.00137   0.00000   0.01679   0.01680   2.31205
   A13        1.89395   0.00009   0.00000   0.00156   0.00157   1.89552
   A14        2.27424   0.00023   0.00000   0.00264   0.00263   2.27687
   A15        2.11499  -0.00032   0.00000  -0.00423  -0.00424   2.11074
   A16        1.81775  -0.00043   0.00000  -0.00161  -0.00160   1.81615
   A17        2.52434  -0.00228   0.00000  -0.14579  -0.14641   2.37793
   A18        2.25705   0.00143   0.00000   0.13117   0.13081   2.38786
   A19        1.49920   0.00085   0.00000   0.01875   0.01814   1.51734
   A20        1.93663  -0.00246   0.00000  -0.02308  -0.02334   1.91328
   A21        1.99554  -0.00182   0.00000  -0.00966  -0.00953   1.98601
   A22        2.35101   0.00428   0.00000   0.03274   0.03286   2.38387
   A23        1.98721   0.00114   0.00000  -0.01332  -0.01346   1.97374
    D1        2.70603  -0.00181   0.00000  -0.25040  -0.25105   2.45498
    D2       -0.54325  -0.00162   0.00000  -0.15950  -0.15890  -0.70215
    D3        0.64558  -0.00122   0.00000  -0.24004  -0.24064   0.40494
    D4       -2.60370  -0.00103   0.00000  -0.14914  -0.14849  -2.75219
    D5        0.00717   0.00021   0.00000   0.00606   0.00572   0.01290
    D6        3.13666  -0.00003   0.00000   0.00400   0.00485   3.14151
    D7       -3.12608   0.00041   0.00000   0.03052   0.02869  -3.09739
    D8        0.00341   0.00017   0.00000   0.02847   0.02782   0.03123
    D9       -0.00214   0.00009   0.00000  -0.00043  -0.00043  -0.00257
   D10        3.13051  -0.00015   0.00000  -0.02695  -0.02616   3.10435
   D11       -0.00153  -0.00009   0.00000   0.00435   0.00683   0.00531
   D12        3.13878  -0.00009   0.00000   0.00181   0.00310  -3.14131
   D13       -3.13379   0.00015   0.00000   0.03191   0.03325  -3.10054
   D14        0.00652   0.00016   0.00000   0.02937   0.02951   0.03603
   D15       -0.00883  -0.00039   0.00000  -0.00874  -0.00821  -0.01704
   D16        3.13474  -0.00023   0.00000  -0.00585  -0.00533   3.12941
   D17       -3.13057  -0.00009   0.00000  -0.00714  -0.00855  -3.13912
   D18        0.01299   0.00007   0.00000  -0.00425  -0.00567   0.00733
   D19        3.05509   0.00010   0.00000   0.04405   0.03681   3.09191
   D20       -0.00304  -0.00015   0.00000  -0.03540  -0.03600  -0.03904
   D21       -0.10684  -0.00021   0.00000   0.04216   0.03689  -0.06995
   D22        3.11821  -0.00046   0.00000  -0.03728  -0.03592   3.08229
   D23        0.00801   0.00046   0.00000   0.00889   0.00830   0.01631
   D24       -3.13893   0.00010   0.00000   0.00214   0.00209  -3.13685
   D25       -3.13584   0.00027   0.00000   0.00554   0.00489  -3.13095
   D26        0.00041  -0.00009   0.00000  -0.00121  -0.00132  -0.00091
   D27       -0.00360  -0.00033   0.00000  -0.00512  -0.00480  -0.00839
   D28       -3.14042  -0.00001   0.00000   0.00087   0.00069  -3.13973
   D29       -3.07674   0.00019   0.00000   0.00162  -0.00896  -3.08570
   D30        0.00244   0.00010   0.00000   0.04142   0.04269   0.04513
   D31       -0.00113  -0.00003   0.00000  -0.03339  -0.03404  -0.03517
   D32       -3.14108  -0.00003   0.00000  -0.03007  -0.02900   3.11311
         Item               Value     Threshold  Converged?
 Maximum Force            0.019250     0.000450     NO 
 RMS     Force            0.002922     0.000300     NO 
 Maximum Displacement     0.621128     0.001800     NO 
 RMS     Displacement     0.135735     0.001200     NO 
 Predicted change in Energy=-3.172716D-03
 GradGradGradGradGradGradGradGradGradGradGradGradGradGradGradGradGradGrad

                          Input orientation:                          
 ---------------------------------------------------------------------
 Center     Atomic      Atomic             Coordinates (Angstroms)
 Number     Number       Type             X           Y           Z
 ---------------------------------------------------------------------
      1          8           0        2.537429   -1.440307    0.112392
      2          1           0        3.269827   -1.127122   -0.473327
      3          1           0        2.150288   -2.346254   -0.265559
      4          7           0       -0.545595    0.339031    0.029535
      5          7           0        0.007397   -0.853551    0.026079
      6          6           0       -0.995361   -1.717766   -0.025862
      7          6           0       -2.179913   -0.966004   -0.030229
      8          7           0       -1.861075    0.333339   -0.001471
      9          1           0       -0.805976   -2.782042   -0.050998
     10          1           0       -3.211556   -1.283978   -0.061400
     11          1           0        1.767865   -0.770082    0.068486
     12          6           0        0.387317    1.577231    0.025741
     13          8           0        1.569029    1.207512    0.013532
     14          8           0       -0.206807    2.639715    0.029632
 ---------------------------------------------------------------------
                    Distance matrix (angstroms):
                    1          2          3          4          5
     1  O    0.000000
     2  H    0.988715   0.000000
     3  H    1.055208   1.668177   0.000000
     4  N    3.560611   4.118243   3.816493   0.000000
     5  N    2.598614   3.311751   2.627773   1.314559   0.000000
     6  C    3.546365   4.329078   3.216762   2.106128   1.324798
     7  C    4.743271   5.470096   4.550946   2.092291   2.190923
     8  N    4.744009   5.355534   4.831251   1.315857   2.213742
     9  H    3.606287   4.419196   2.995905   3.132951   2.094420
    10  H    5.753735   6.496353   5.469870   3.122463   3.248781
    11  H    1.021450   1.636132   1.655944   2.565881   1.762955
    12  C    3.706215   3.983900   4.311224   1.550315   2.460293
    13  O    2.821085   2.929209   3.611786   2.286077   2.585890
    14  O    4.917750   5.150633   5.522945   2.325495   3.499829
                    6          7          8          9         10
     6  C    0.000000
     7  C    1.402971   0.000000
     8  N    2.226452   1.338200   0.000000
     9  H    1.081287   2.277306   3.289572   0.000000
    10  H    2.258529   1.079984   2.107868   2.833922   0.000000
    11  H    2.922743   3.953869   3.793631   3.269085   5.007553
    12  C    3.573719   3.614117   2.569683   4.520298   4.598477
    13  O    3.890360   4.333664   3.539775   4.643420   5.391393
    14  O    4.428605   4.110711   2.838475   5.455360   4.942891
                   11         12         13         14
    11  H    0.000000
    12  C    2.723530   0.000000
    13  O    1.988324   1.238259   0.000000
    14  O    3.940502   1.217321   2.281460   0.000000
 Stoichiometry    C3H5N3O3(1-,2)
 Framework group  C1[X(C3H5N3O3)]
 Deg. of freedom    36
 Full point group                 C1      NOp   1
 Largest Abelian subgroup         C1      NOp   1
 Largest concise Abelian subgroup C1      NOp   1
                         Standard orientation:                         
 ---------------------------------------------------------------------
 Center     Atomic      Atomic             Coordinates (Angstroms)
 Number     Number       Type             X           Y           Z
 ---------------------------------------------------------------------
      1          8           0       -2.632267   -1.285632   -0.098512
      2          1           0       -3.334644   -0.922954    0.495365
      3          1           0       -2.313468   -2.222331    0.268130
      4          7           0        0.578853    0.250815   -0.021092
      5          7           0       -0.064121   -0.895761   -0.024861
      6          6           0        0.869570   -1.834894    0.011766
      7          6           0        2.108395   -1.176387    0.014684
      8          7           0        1.890177    0.143823    0.000414
      9          1           0        0.599120   -2.881682    0.028269
     10          1           0        3.112729   -1.572930    0.035461
     11          1           0       -1.813204   -0.676944   -0.053843
     12          6           0       -0.256099    1.556894    0.001022
     13          8           0       -1.462626    1.278901    0.018243
     14          8           0        0.417883    2.570608    0.002838
 ---------------------------------------------------------------------
 Rotational constants (GHZ):           1.8476724           1.7035868           0.8878495
 Standard basis: 6-31+G(d,p) (6D, 7F)
 There are   196 symmetry adapted cartesian basis functions of A   symmetry.
 There are   196 symmetry adapted basis functions of A   symmetry.
   196 basis functions,   323 primitive gaussians,   196 cartesian basis functions
    35 alpha electrons       34 beta electrons
       nuclear repulsion energy       454.4096072632 Hartrees.
 NAtoms=   14 NActive=   14 NUniq=   14 SFac= 1.00D+00 NAtFMM=   60 NAOKFM=F Big=F
 Integral buffers will be    131072 words long.
 Raffenetti 2 integral format.
 Two-electron integral symmetry is turned on.
 One-electron integrals computed using PRISM.
 NBasis=   196 RedAO= T EigKep=  2.16D-05  NBF=   196
 NBsUse=   196 1.00D-06 EigRej= -1.00D+00 NBFU=   196
 Initial guess from the checkpoint file:  "/scratch/gongke2021/TS-cycle/Gau-8587.chk"
 B after Tr=    -0.000000    0.000000   -0.000000
         Rot=    0.999402   -0.000832   -0.000441    0.034572 Ang=  -3.96 deg.
 Initial guess <Sx>= 0.0000 <Sy>= 0.0000 <Sz>= 0.5000 <S**2>= 0.7512 S= 0.5006
 ExpMin= 4.38D-02 ExpMax= 5.48D+03 ExpMxC= 8.25D+02 IAcc=2 IRadAn=         4 AccDes= 0.00D+00
 Harris functional with IExCor= 1009 and IRadAn=       4 diagonalized for initial guess.
 HarFok:  IExCor= 1009 AccDes= 0.00D+00 IRadAn=         4 IDoV= 1 UseB2=F ITyADJ=14
 ICtDFT=  3500011 ScaDFX=  1.000000  1.000000  1.000000  1.000000
 FoFCou: FMM=F IPFlag=           0 FMFlag=      100000 FMFlg1=           0
         NFxFlg=           0 DoJE=T BraDBF=F KetDBF=T FulRan=T
         wScrn=  0.000000 ICntrl=       500 IOpCl=  0 I1Cent=   200000004 NGrid=           0
         NMat0=    1 NMatS0=      1 NMatT0=    0 NMatD0=    1 NMtDS0=    0 NMtDT0=    0
 Petite list used in FoFCou.
 Requested convergence on RMS density matrix=1.00D-08 within 128 cycles.
 Requested convergence on MAX density matrix=1.00D-06.
 Requested convergence on             energy=1.00D-06.
 No special actions if energy rises.
 Restarting incremental Fock formation.
 SCF Done:  E(UM062X) =  -507.017573572     A.U. after   21 cycles
            NFock= 21  Conv=0.58D-08     -V/T= 2.0079
 <Sx>= 0.0000 <Sy>= 0.0000 <Sz>= 0.5000 <S**2>= 0.7510 S= 0.5005
 <L.S>=  0.00000000000    
 Annihilation of the first spin contaminant:
 S**2 before annihilation     0.7510,   after     0.7500
 Calling FoFJK, ICntrl=      2127 FMM=F ISym2X=0 I1Cent= 0 IOpClX= 1 NMat=1 NMatS=1 NMatT=0.
 ***** Axes restored to original set *****
 -------------------------------------------------------------------
 Center     Atomic                   Forces (Hartrees/Bohr)
 Number     Number              X              Y              Z
 -------------------------------------------------------------------
      1        8           0.006420941    0.006575941    0.003723518
      2        1          -0.000457075   -0.000818349   -0.001544902
      3        1          -0.000884429   -0.007182835   -0.002199522
      4        7          -0.002430198   -0.001505629    0.000809590
      5        7          -0.000987080    0.001697417   -0.001337792
      6        6          -0.001028184   -0.000519306    0.000295592
      7        6           0.000017954    0.000200547    0.000014794
      8        7          -0.000073182   -0.000300231   -0.000353931
      9        1          -0.000041071   -0.000006613   -0.000059153
     10        1          -0.000024266    0.000033361   -0.000030040
     11        1          -0.002035340   -0.001583238    0.000214735
     12        6           0.002864891    0.002784692   -0.000469134
     13        8          -0.000998703    0.000692283    0.000745480
     14        8          -0.000344257   -0.000068041    0.000190765
 -------------------------------------------------------------------
 Cartesian Forces:  Max     0.007182835 RMS     0.002182403

 GradGradGradGradGradGradGradGradGradGradGradGradGradGradGradGradGradGrad
 Berny optimization.
 FormGI is forming the generalized inverse of G from B-inverse, IUseBI=4.
 Internal  Forces:  Max     0.007282551 RMS     0.001440271
 Search for a saddle point.
[...]
 ! D5    D(8,4,5,6)              0.1514         -DE/DX =    0.0                 !
 ! D6    D(8,4,5,11)           179.3811         -DE/DX =    0.0                 !
 ! D7    D(12,4,5,6)          -177.9973         -DE/DX =    0.0                 !
 ! D8    D(12,4,5,11)            1.2324         -DE/DX =    0.0                 !
 ! D9    D(5,4,8,7)              0.145          -DE/DX =    0.0                 !
 ! D10   D(12,4,8,7)           178.1021         -DE/DX =    0.0                 !
 ! D11   D(5,4,12,13)           -0.0751         -DE/DX =    0.0                 !
 ! D12   D(5,4,12,14)          179.8051         -DE/DX =    0.0                 !
 ! D13   D(8,4,12,13)         -177.97           -DE/DX =    0.0                 !
 ! D14   D(8,4,12,14)            1.9102         -DE/DX =    0.0                 !
 ! D15   D(4,5,6,7)             -0.3698         -DE/DX =    0.0                 !
 ! D16   D(4,5,6,9)            179.5986         -DE/DX =    0.0                 !
 ! D17   D(11,5,6,7)          -179.1538         -DE/DX =    0.0                 !
 ! D18   D(11,5,6,9)             0.8145         -DE/DX =    0.0                 !
 ! D19   D(4,5,11,1)          -174.0108         -DE/DX =    0.0                 !
 ! D20   D(4,5,11,13)           -1.4011         -DE/DX =    0.0                 !
 ! D21   D(6,5,11,1)             4.7374         -DE/DX =    0.0                 !
 ! D22   D(6,5,11,13)          177.3471         -DE/DX =    0.0                 !
 ! D23   D(5,6,7,8)              0.4753         -DE/DX =    0.0                 !
 ! D24   D(5,6,7,10)          -179.9485         -DE/DX =    0.0                 !
 ! D25   D(9,6,7,8)           -179.4878         -DE/DX =    0.0                 !
 ! D26   D(9,6,7,10)             0.0883         -DE/DX =    0.0                 !
 ! D27   D(6,7,8,4)             -0.3692         -DE/DX =    0.0                 !
 ! D28   D(10,7,8,4)          -179.9938         -DE/DX =    0.0                 !
 ! D29   D(1,11,13,12)         173.3127         -DE/DX =    0.0                 !
 ! D30   D(5,11,13,12)           1.5219         -DE/DX =    0.0                 !
 ! D31   D(4,12,13,11)          -1.1447         -DE/DX =    0.0                 !
 ! D32   D(14,12,13,11)        179.0152         -DE/DX =    0.0                 !
 --------------------------------------------------------------------------------
 GradGradGradGradGradGradGradGradGradGradGradGradGradGradGradGradGradGrad


 ----------------------------------------------------------------------

 Electric dipole moment (input orientation):
 (Debye = 10**-18 statcoulomb cm , SI units = C m)
                  (au)            (Debye)         (10**-30 SI)
   Tot        0.122841D+01      0.312230D+01      0.104149D+02
   x         -0.945128D+00     -0.240228D+01     -0.801313D+01
   y         -0.758555D+00     -0.192805D+01     -0.643129D+01
   z         -0.200783D+00     -0.510339D+00     -0.170231D+01

 Dipole polarizability, Alpha (input orientation).
 (esu units = cm**3 , SI units = C**2 m**2 J**-1)
 Alpha(0;0):
               (au)            (10**-24 esu)      (10**-40 SI)
   iso        0.136546D+03      0.202341D+02      0.225135D+02
   aniso      0.948234D+02      0.140514D+02      0.156343D+02
   xx         0.157772D+03      0.233794D+02      0.260130D+02
   yx         0.377413D+02      0.559268D+01      0.622270D+01
   yy         0.156836D+03      0.232406D+02      0.258587D+02
   zx        -0.652422D+01     -0.966790D+00     -0.107570D+01
   zy        -0.154071D+02     -0.228310D+01     -0.254029D+01
   zz         0.950319D+02      0.140823D+02      0.156686D+02

 ----------------------------------------------------------------------

 Dipole orientation:
     8          3.42051170          3.89742955         -2.28470319
     1          4.98300907          3.01510394         -2.81156727
     1          3.85181967          4.73373395         -0.44418388
     7         -0.83076311         -0.81442285          0.40700234
     7          0.59561215          1.13500373          0.99320877
     6          0.43627732          1.36364174          3.48338537
     6         -1.18190317         -0.55566439          4.33694981
     7         -1.94554523         -1.90985705          2.34326965
     1          1.45867921          2.83789312          4.46098096
     1         -1.80603523         -1.02341826          6.22323166
     1          2.12165229          2.52499722         -1.95432678
     6         -0.97084051         -1.63758142         -2.41670619
     8          0.36807030         -0.22540932         -3.71464009
     8         -2.32675378         -3.45831309         -2.78257072

 Electric dipole moment (dipole orientation):
 (Debye = 10**-18 statcoulomb cm , SI units = C m)
                  (au)            (Debye)         (10**-30 SI)
   Tot        0.122841D+01      0.312230D+01      0.104149D+02
   x          0.000000D+00      0.000000D+00      0.000000D+00
   y          0.000000D+00      0.000000D+00      0.000000D+00
   z          0.122841D+01      0.312230D+01      0.104149D+02

 Dipole polarizability, Alpha (dipole orientation).
 (esu units = cm**3 , SI units = C**2 m**2 J**-1)
 Alpha(0;0):
               (au)            (10**-24 esu)      (10**-40 SI)
   iso        0.136546D+03      0.202341D+02      0.225135D+02
   aniso      0.948234D+02      0.140514D+02      0.156343D+02
   xx         0.100585D+03      0.149051D+02      0.165842D+02
   yx         0.678214D+01      0.100501D+01      0.111822D+01
   yy         0.122204D+03      0.181088D+02      0.201488D+02
   zx        -0.194025D+02     -0.287515D+01     -0.319904D+01
   zy         0.236648D+02      0.350676D+01      0.390180D+01
   zz         0.186850D+03      0.276883D+02      0.308074D+02

 ----------------------------------------------------------------------
 1\1\GINC-NODE7\Freq\UM062X\6-31+G(d,p)\C3H5N3O3(1-,2)\GONGKE2021\09-Ju
 l-2023\0\\#N Geom=AllCheck Guess=TCheck SCRF=Check GenChk UM062X/6-31+
 G(d,p) Freq\\TS\\-1,2\O,2.6615198831,-1.37905124,0.0785408894\H,3.0915
 048352,-1.2306567589,-0.8003713937\H,2.2049935058,-2.3711929563,0.0170
 235987\N,-0.5576432395,0.3362499198,0.0369069564\N,-0.0042927207,-0.85
 70287064,0.0424809349\C,-1.0101642396,-1.7176539468,-0.0333190513\C,-2
 .1930575992,-0.9641195493,-0.0754892775\N,-1.8724698249,0.3341204399,-
 0.0346479344\H,-0.8238543344,-2.7824920488,-0.052396228\H,-3.224358751
 2,-1.2792335113,-0.1373778541\H,1.8928183972,-0.7181022109,0.130316501
 3\C,0.3777243812,1.5820606397,0.0691866853\O,1.5593603115,1.2144907774
 ,0.0977779864\O,-0.2192116044,2.6423291517,0.0579201864\\Version=ES64L
 -G16RevA.03\State=2-A\HF=-507.0188233\S2=0.751092\S2-1=0.\S2A=0.750001
 \RMSD=0.000e+00\RMSF=1.848e-05\ZeroPoint=0.0914102\Thermal=0.1000275\D
 ipole=-0.945128,-0.7585546,-0.2007829\DipoleDeriv=-0.2215206,0.2974538
 ,-0.2884619,0.2006969,-0.6899952,-0.6514003,-0.5784496,-0.9136748,0.13
 95778,-0.1089336,-0.400484,-0.0387341,0.0283431,0.0002124,-0.0478367,0
 .497333,0.7823885,-0.0423712,-0.264579,0.1073487,0.3194922,0.0120424,0
 .329024,0.6694164,0.1012953,0.0580326,-0.2730847,-0.3342506,-0.635425,
 -0.0336889,-0.4799307,-0.6795653,-0.0730032,0.017899,-0.0211443,0.1592
 848,-0.6353989,0.1360139,-0.0315016,0.1632723,-0.1016791,0.0254961,-0.
 0250367,-0.0631731,-0.0522488,-0.1670181,-0.1937249,0.0455484,-0.11120
 4,-0.0793046,0.0148779,-0.0517242,-0.0661636,-0.4632376,0.3462156,0.11
 26091,-0.02693,-0.1345755,-0.2093806,0.0012814,0.0793745,0.0437692,0.0
 595375,-0.1783557,0.4502204,0.0467009,0.2663094,-0.1499671,-0.0225652,
 -0.0186447,0.0451559,-0.3035446,0.1507848,0.0505355,-0.0322885,-0.0244
 285,-0.0321739,0.0010531,-0.0115699,0.003056,0.0954333,-0.0786725,-0.0
 564874,-0.0131873,-0.0443085,0.0572391,-0.0053283,-0.0142922,-0.005881
 2,0.1614141,0.6574085,-0.463854,0.0143531,-0.3347033,0.7051538,0.06319
 22,0.0196045,0.1680779,0.0741006,1.9871647,-0.2690627,0.1578584,0.1174
 305,2.7406313,0.0560467,0.0597801,0.0236371,0.286434,-1.4193876,0.3961
 215,-0.0923644,0.1266655,-1.1308525,-0.0123902,-0.0656944,-0.0587536,-
 0.3927983,-0.7334569,0.468735,-0.0267962,0.2143903,-1.7593424,-0.01883
 98,-0.0098745,0.0046733,-0.4484968\Polar=157.7716776,37.7413005,156.83
 56743,-6.5242203,-15.4071353,95.0319003\Quadrupole=3.7671379,-14.01129
 64,10.2441585,6.6760413,-1.9032797,-0.3287876\PG=C01 [X(C3H5N3O3)]\NIm
 ag=1\\0.36011484,-0.13715047,0.27127165,-0.15581655,-0.00271721,0.3807
 3115,-0.07503753,0.01138173,0.12361699,0.09622274,-0.01533266,-0.05292
 266,0.04443456,0.01402453,0.04403485,0.14561304,0.00532851,-0.31682270
 ,-0.15185428,-0.04218809,0.30945319,-0.04176399,-0.02007219,-0.0011119
 7,-0.01121006,-0.00711128,0.01053911,0.03642353,0.00202560,-0.04394783
 ,-0.03851562,-0.01836115,-0.00148705,0.03685485,0.01048380,0.06581905,
 0.00525287,-0.02428586,-0.03201334,0.00423708,0.02022805,0.01035278,-0
 .00748182,0.00458441,0.02360040,-0.00065618,0.00277846,0.00075572,0.00
 017138,-0.00036217,-0.00076546,-0.00070256,-0.00101749,0.00003322,0.71
 206466,-0.00288916,0.00251275,0.00278711,0.00199740,0.00034378,-0.0028
 9168,0.00021211,-0.00249042,-0.00001030,0.02086318,0.73343724,-0.00012
 713,0.00122740,0.00084611,0.00054553,0.00028937,-0.00022556,-0.0005930
 8,-0.00092800,0.00025672,0.02745803,0.00960839,0.14108445,-0.02065067,
 0.00364921,0.00349305,0.00013788,0.00100543,-0.00288874,-0.00080617,-0
 .00136730,-0.00018391,-0.15121758,0.05794638,-0.00171903,0.63404114,-0
 .00134881,0.00127520,-0.00152250,-0.00014874,-0.00004089,0.00118149,0.
 00181305,0.00178109,0.00019341,0.12088596,-0.27700131,0.00363033,0.043
 13289,0.58949977,-0.00055045,-0.00134065,0.00291820,-0.00075865,0.0009
 1220,-0.00042321,0.00044267,-0.00033720,0.00195178,-0.00029734,-0.0009
 1471,-0.08359261,0.02663823,0.01251108,0.11305753,-0.00065886,0.000668
 96,-0.00009364,0.00025057,0.00008812,-0.00012180,-0.00230940,0.0011034
 6,0.00022569,-0.02312379,-0.07086771,-0.00469462,-0.29261657,-0.146406
 94,-0.01408253,0.62249009,0.00403163,-0.00039363,-0.00207222,-0.000491
 81,-0.00045071,0.00159295,-0.00071379,-0.00040332,-0.00000536,-0.00479
 018,-0.13028385,-0.00351969,-0.13717725,-0.22289519,-0.01055843,-0.020
 91190,0.92733161,0.00031451,0.00009901,0.00205381,-0.00060573,-0.00055
 898,-0.00046200,-0.00001031,0.00062301,-0.00347818,-0.00179316,-0.0067
 2716,0.01109789,-0.01461758,-0.01225453,-0.07605606,0.02567873,0.01763
 847,0.15268107,-0.00249638,0.00089454,0.00202961,0.00057137,0.00003824
 ,-0.00150265,0.00065518,-0.00035076,-0.00040449,-0.08323706,-0.0348424
 3,-0.00556084,-0.08389929,-0.06127842,-0.00662730,-0.26374065,0.116310
 00,-0.00785600,0.88440777,0.00003179,0.00007403,0.00025821,-0.00000715
 ,-0.00012542,-0.00031729,0.00071463,0.00050079,0.00030570,-0.10540720,
 -0.07036064,-0.00760272,0.03671857,0.04014254,0.00261574,0.07680285,-0
 .17335019,0.00225065,0.09715777,0.63510897,-0.00041681,0.00101931,-0.0
 0067381,0.00081595,0.00028294,-0.00031580,-0.00020386,-0.00117816,0.00
 183602,-0.00752943,-0.00414433,0.01537932,-0.00550377,-0.00297345,0.01
 969387,-0.00869624,0.00513099,-0.07910221,0.04205559,0.01406848,0.1454
 8859,-0.00231169,0.00247112,0.00020270,0.00014862,0.00059845,-0.000106
 10,-0.00085082,-0.00287585,0.00007281,-0.31404014,0.04876071,-0.010507
 10,-0.10232362,0.06138144,-0.00628956,0.02756967,-0.01012248,-0.000378
 91,-0.11876362,-0.05188954,-0.00335097,0.52699960,0.00017695,0.0006266
 0,0.00134575,0.00024190,-0.00038021,-0.00072760,0.00039501,0.00001404,
 -0.00046914,-0.02257099,-0.10852161,-0.00082872,0.01318307,-0.06021889
 ,-0.00138004,0.08669101,-0.06507859,0.00300628,-0.04522846,-0.36273402
 ,-0.00751499,-0.00787568,0.59444172,0.00001101,-0.00061576,-0.00012165
 ,-0.00038370,-0.00024214,0.00014303,0.00026162,0.00077621,-0.00080990,
 -0.01333902,0.00312342,-0.08546253,-0.00615329,0.00139068,0.03116070,0
 .00225510,-0.00245408,0.02362359,-0.00356461,-0.00769194,-0.07590595,0
 .02179454,0.00820026,0.11503701,-0.00105947,-0.00017097,0.00113146,0.0
 0038059,-0.00005457,-0.00086113,0.00046431,0.00021912,-0.00021060,-0.0
 0587515,-0.00687789,-0.00070643,0.00983481,-0.02667769,0.00015375,-0.0
 6762310,0.06214656,-0.00031532,0.00733649,0.01827997,0.00085039,-0.004
 06877,0.00476005,-0.00049585,0.05895781,-0.00039389,-0.00090777,-0.000
 13909,0.00002568,-0.00006156,0.00003915,0.00043047,0.00054134,0.000083
 27,-0.00220050,-0.00108767,-0.00034639,0.00346560,-0.01727999,-0.00012
 294,0.05191981,-0.34976413,-0.00579759,-0.00291093,-0.00060407,-0.0000
 6756,-0.00028302,0.00010390,-0.00025957,-0.05089951,0.36954681,-0.0000
 0715,-0.00059260,0.00033898,-0.00031586,-0.00007818,0.00007729,0.00022
 360,0.00061784,-0.00054062,-0.00085993,-0.00042329,0.00939864,0.001051
 34,-0.00155548,-0.00645202,-0.00065935,-0.00561232,-0.03251099,0.00036
 354,0.00109515,-0.00095055,-0.00049706,0.00008902,0.00621788,0.0005980
 7,0.00650093,0.02553702,-0.00029246,0.00037407,0.00015298,0.00008114,0
 .00004303,-0.00013060,-0.00006717,-0.00030159,-0.00000176,0.00085887,0
 .00075307,-0.00037274,-0.00420620,0.00044487,-0.00061771,-0.00685926,-
 0.01133867,-0.00043163,-0.33874317,-0.08103720,-0.01837298,-0.00198954
 ,-0.00114032,0.00031494,-0.00048547,0.00044705,0.00005162,0.35091241,0
 .00025315,-0.00012533,-0.00002867,-0.00002436,-0.00004653,0.00002869,0
 .00002107,0.00011854,-0.00001142,-0.00404241,-0.00875282,-0.00046631,0
 .00615117,-0.00175585,0.00010792,0.01230575,0.01236479,0.00107045,-0.0
 7326140,-0.07915129,-0.00517635,-0.03165609,-0.00436081,-0.00167419,-0
 .00047904,-0.00043209,-0.00000593,0.09190354,0.08034922,-0.00004522,-0
 .00001261,-0.00005882,0.00002626,-0.00000686,0.00000642,0.00001666,0.0
 0002283,0.00005148,-0.00056075,-0.00032717,0.00895235,-0.00047424,-0.0
 0012493,0.00716211,0.00003474,-0.00026103,-0.00264801,-0.01830162,-0.0
 0564538,-0.02963404,-0.00008660,0.00001647,-0.00847422,0.00002210,0.00
 006322,-0.00124946,0.01945563,0.00621690,0.02501999,-0.21520356,0.1279
 4141,0.02606737,-0.01159295,0.00751487,0.00191919,0.02161393,0.0121991
 9,-0.00155203,-0.00581535,0.00534081,0.00023699,0.00317191,0.01157265,
 0.00157850,0.00143304,-0.00683939,-0.00038557,0.00359837,-0.00094253,0
 .00049305,0.00681213,-0.00054782,0.00004465,0.00063346,-0.00017077,-0.
 00004475,0.00079280,-0.00059797,0.00001635,0.19815352,0.14815092,-0.15
 723251,-0.00077182,-0.00612267,0.01097561,-0.00208936,0.01050259,-0.02
 598473,-0.00067889,-0.00110218,-0.00090684,-0.00013317,0.00396255,-0.0
 0353585,0.00023444,-0.00357432,-0.00061669,-0.00008547,-0.00058639,-0.
 00209373,-0.00029188,0.00290617,-0.00213197,0.00027139,-0.00036302,0.0
 0006711,0.00005579,-0.00007036,-0.00015504,-0.00000916,-0.15845487,0.1
 6406373,0.00509946,0.02169823,-0.03834004,0.02566497,-0.02450035,-0.00
 207951,-0.00153455,-0.00161638,-0.00203353,-0.00013258,-0.00014214,0.0
 0011906,0.00006406,0.00032328,-0.00608920,-0.00034159,-0.00007915,-0.0
 0057679,-0.00023726,0.00004349,0.00109028,0.00013294,-0.00031286,0.000
 33622,-0.00024172,0.00010157,-0.00055125,-0.00001334,-0.00000893,0.000
 17760,-0.02852430,0.00434206,0.05405342,0.00088048,-0.01491473,-0.0077
 6106,-0.00502472,0.00157924,0.00736625,0.00219444,0.00504644,0.0003924
 4,-0.05872884,0.01270552,-0.00099693,0.00815733,-0.01005200,0.00044996
 ,0.01013193,0.01689270,0.00025587,-0.00492977,0.01607332,0.00041335,-0
 .02507270,-0.01529559,-0.00127934,0.00274636,0.00108409,0.00011324,0.0
 0033580,0.00078585,-0.00001721,0.00268539,0.02991735,0.00130349,0.8286
 0371,-0.00133714,-0.00021116,-0.00026304,0.00015370,0.00048628,0.00028
 589,-0.00082768,-0.00180760,0.00009733,0.02317921,-0.05630389,0.000022
 97,-0.00760099,-0.03692293,-0.00083162,0.01721967,0.00475142,0.0012166
 3,0.00897063,0.01967866,0.00108435,-0.01512252,0.00992983,-0.00111141,
 0.00088717,0.00061608,-0.00000030,0.00109440,0.00277554,0.00019881,0.0
 0922121,-0.00065147,0.00008521,-0.43599727,0.73346275,-0.00028741,-0.0
 0092393,0.00045803,-0.00012087,0.00020246,0.00007861,0.00028054,0.0006
 6595,-0.00004866,-0.00019037,0.00174975,-0.04499643,0.00056872,-0.0011
 9864,-0.01025695,0.00064364,0.00038226,0.00479397,-0.00079234,0.000896
 80,0.00495276,-0.00089186,-0.00128571,-0.01324962,-0.00004428,-0.00003
 570,0.00153732,-0.00009141,-0.00006059,0.00183445,0.00013942,0.0006644
 9,-0.00050239,0.01374499,-0.00924521,0.22055655,-0.00049044,0.01647285
 ,0.00512075,0.00344102,-0.00155000,-0.00509633,-0.00261789,-0.00463017
 ,-0.00026108,-0.08142670,-0.02252034,-0.00268328,-0.00042035,0.0068679
 1,0.00007817,-0.00600088,-0.00412524,-0.00000117,-0.00352045,-0.007148
 57,-0.00069333,0.00668725,-0.01116228,0.00051038,-0.00094099,-0.000299
 89,-0.00001121,-0.00041564,-0.00149272,-0.00010915,-0.00583549,-0.0160
 0956,-0.00084683,-0.52426091,0.14986910,-0.01020345,0.67100594,0.00289
 596,-0.01548458,-0.00187619,-0.00182594,-0.00042375,0.00201180,0.00281
 835,0.00474001,-0.00004259,-0.02902654,0.00081794,-0.00085592,-0.01169
 685,-0.01118231,-0.00048576,-0.00103210,0.00440159,-0.00001047,-0.0041
 1623,-0.00025630,-0.00010177,-0.00218391,-0.00284376,-0.00010947,0.000
 38143,0.00000213,-0.00000306,-0.00061180,-0.00020538,-0.00007615,-0.00
 304115,0.01294424,-0.00015548,0.13510405,-0.14522513,0.00325290,-0.167
 09695,0.17718976,0.00093857,0.00092197,0.00085985,-0.00092946,0.001323
 64,0.00026423,-0.00083180,-0.00145123,0.00087712,-0.00255197,-0.000814
 37,0.01203585,-0.00000141,0.00036563,0.00337497,-0.00023235,-0.0001501
 5,0.00131422,0.00023316,-0.00021058,-0.00173832,-0.00010809,-0.0001478
 5,0.00577061,0.00008799,-0.00002587,-0.00014364,0.00005070,-0.00000858
 ,-0.00088770,0.00008768,-0.00146193,-0.00644539,-0.01123699,0.00364739
 ,-0.08259817,0.01617365,-0.00323807,0.03747437,-0.00037408,0.00567602,
 0.00221260,0.00145996,-0.00048125,-0.00211049,-0.00102333,-0.00217329,
 -0.00011840,0.01172845,-0.01058167,-0.00027936,0.00079738,-0.00018617,
 -0.00011773,0.00105721,-0.00287017,0.00014627,0.00276121,0.00065327,0.
 00013905,0.00120364,-0.00162683,0.00002357,-0.00030088,-0.00021419,-0.
 00000608,0.00007790,0.00013347,0.00002305,-0.00044720,-0.00915621,-0.0
 0039275,-0.23771852,0.25029052,-0.00275532,-0.05520446,0.07943169,-0.0
 0167970,0.27598270,0.00088613,-0.00453476,-0.00091928,-0.00084312,0.00
 009827,0.00089069,0.00133385,0.00260610,0.00001139,0.00281287,-0.08140
 265,-0.00009753,-0.01137249,-0.00186539,-0.00041003,-0.00400666,-0.005
 61310,-0.00047029,-0.00079615,-0.00682932,-0.00013759,0.00589121,0.001
 15377,0.00039661,-0.00115162,-0.00074008,-0.00008758,-0.00056009,-0.00
 062294,-0.00005494,-0.00319563,0.00525815,0.00022147,0.25707103,-0.530
 57838,0.00493517,0.06282586,-0.02447446,0.00125001,-0.30889519,0.64754
 479,0.00002126,0.00019419,-0.00017578,0.00006177,-0.00009863,-0.000046
 78,0.00000320,-0.00011851,-0.00000208,-0.00022697,-0.00087351,0.015106
 75,-0.00027343,0.00003361,0.00355087,0.00008423,-0.00003222,-0.0007303
 2,0.00016521,-0.00006632,-0.00012015,0.00001327,0.00000914,0.00173483,
 0.00003157,0.00000658,-0.00070862,0.00000629,0.00001702,-0.00025215,-0
 .00007654,-0.00004647,0.00084150,-0.00274805,0.00481299,-0.08255948,-0
 .00197711,0.00169023,0.02984197,0.00491530,-0.00552809,0.03351944\\-0.
 00003175,-0.00007112,-0.00000451,0.00000381,0.00000981,0.00000036,0.00
 003450,0.00007250,-0.00000465,-0.00000382,-0.00000331,-0.00000592,0.00
 000677,0.00000557,-0.00000927,0.00000202,-0.00000271,0.00000905,0.0000
 0097,-0.00000429,0.00000089,-0.00000168,-0.00000443,0.00000036,0.00000
 425,-0.00000174,-0.00000010,0.00000140,-0.00000626,0.00000059,-0.00000
 169,-0.00000992,0.00002600,-0.00000108,0.00000263,-0.00000014,-0.00000
 756,0.00001435,-0.00001291,-0.00000614,-0.00000107,0.00000025\\\@


 K N O W I N G  IS A BARRIER WHICH PREVENTS LEARNING

                     -- TEACHING OF THE BENE GESSERIT
 Job cpu time:       0 days  0 hours 56 minutes 42.3 seconds.
 Elapsed time:       0 days  0 hours  2 minutes 22.5 seconds.
 File lengths (MBytes):  RWF=    127 Int=      0 D2E=      0 Chk=      6 Scr=      1
 Normal termination of Gaussian 16 at Sun Jul  9 23:01:02 2023.
