 Entering Gaussian System, Link 0=/opt/soft/g16b/g16/g16
 Initial command:
 /opt/soft/g16b/g16/l1.exe "/scratch/gongke2021/1-H-Tz-RC/Gau-29537.inp" -scrdir="/scratch/gongke2021/1-H-Tz-RC/"
 Entering Link 1 = /opt/soft/g16b/g16/l1.exe PID=     29538.
  
 Copyright (c) 1988,1990,1992,1993,1995,1998,2003,2009,2016,
            Gaussian, Inc.  All Rights Reserved.
  
 This is part of the Gaussian(R) 16 program.  It is based on
 the Gaussian(R) 09 system (copyright 2009, Gaussian, Inc.),
 the Gaussian(R) 03 system (copyright 2003, Gaussian, Inc.),
 the Gaussian(R) 98 system (copyright 1998, Gaussian, Inc.),
 the Gaussian(R) 94 system (copyright 1995, Gaussian, Inc.),
 the Gaussian 92(TM) system (copyright 1992, Gaussian, Inc.),
 the Gaussian 90(TM) system (copyright 1990, Gaussian, Inc.),
 the Gaussian 88(TM) system (copyright 1988, Gaussian, Inc.),
 the Gaussian 86(TM) system (copyright 1986, Carnegie Mellon
 University), and the Gaussian 82(TM) system (copyright 1983,
 Carnegie Mellon University). Gaussian is a federally registered
 trademark of Gaussian, Inc.
  
 This software contains proprietary and confidential information,
 including trade secrets, belonging to Gaussian, Inc.
  
 This software is provided under written license and may be
 used, copied, transmitted, or stored only in accord with that
 written license.
  
 The following legend is applicable only to US Government
 contracts under FAR:
  
                    RESTRICTED RIGHTS LEGEND
  
 Use, reproduction and disclosure by the US Government is
 subject to restrictions as set forth in subparagraphs (a)
 and (c) of the Commercial Computer Software - Restricted
 Rights clause in FAR 52.227-19.
  
 Gaussian, Inc.
 340 Quinnipiac St., Bldg. 40, Wallingford CT 06492
  
  
 ---------------------------------------------------------------
 Warning -- This program may not be used in any manner that
 competes with the business of Gaussian, Inc. or will provide
 assistance to any competitor of Gaussian, Inc.  The licensee
 of this program is prohibited from giving any competitor of
 Gaussian, Inc. access to this program.  By using this program,
 the user acknowledges that Gaussian, Inc. is engaged in the
 business of creating and licensing software in the field of
 computational chemistry and represents and warrants to the
 licensee that it is not a competitor of Gaussian, Inc. and that
 it will not use this program in any manner prohibited above.
 ---------------------------------------------------------------
  

 Cite this work as:
 Gaussian 16, Revision A.03,
 M. J. Frisch, G. W. Trucks, H. B. Schlegel, G. E. Scuseria, 
 M. A. Robb, J. R. Cheeseman, G. Scalmani, V. Barone, 
 G. A. Petersson, H. Nakatsuji, X. Li, M. Caricato, A. V. Marenich, 
 J. Bloino, B. G. Janesko, R. Gomperts, B. Mennucci, H. P. Hratchian, 
 J. V. Ortiz, A. F. Izmaylov, J. L. Sonnenberg, D. Williams-Young, 
 F. Ding, F. Lipparini, F. Egidi, J. Goings, B. Peng, A. Petrone, 
 T. Henderson, D. Ranasinghe, V. G. Zakrzewski, J. Gao, N. Rega, 
 G. Zheng, W. Liang, M. Hada, M. Ehara, K. Toyota, R. Fukuda, 
 J. Hasegawa, M. Ishida, T. Nakajima, Y. Honda, O. Kitao, H. Nakai, 
 T. Vreven, K. Throssell, J. A. Montgomery, Jr., J. E. Peralta, 
 F. Ogliaro, M. J. Bearpark, J. J. Heyd, E. N. Brothers, K. N. Kudin, 
 V. N. Staroverov, T. A. Keith, R. Kobayashi, J. Normand, 
 K. Raghavachari, A. P. Rendell, J. C. Burant, S. S. Iyengar, 
 J. Tomasi, M. Cossi, J. M. Millam, M. Klene, C. Adamo, R. Cammi, 
 J. W. Ochterski, R. L. Martin, K. Morokuma, O. Farkas, 
 J. B. Foresman, and D. J. Fox, Gaussian, Inc., Wallingford CT, 2016.
 
 ******************************************
 Gaussian 16:  ES64L-G16RevA.03 25-Dec-2016
                10-Mar-2023 
 ******************************************
 %mem=10GB
 %nprocshared=20
 Will use up to   20 processors via shared memory.
 ----------------------------
 # opt freq 6-31+g(d,p) m062x
 ----------------------------
 1/18=20,19=15,26=3,38=1/1,3;
 2/9=110,12=2,17=6,18=5,40=1/2;
 3/5=1,6=6,7=111,11=2,25=1,30=1,71=1,74=-55/1,2,3;
 4//1;
 5/5=2,38=5/2;
 6/7=2,8=2,9=2,10=2,28=1/1;
 7//1,2,3,16;
 1/18=20,19=15,26=3/3(2);
 2/9=110/2;
 99//99;
 2/9=110/2;
 3/5=1,6=6,7=111,11=2,25=1,30=1,71=1,74=-55/1,2,3;
 4/5=5,16=3,69=1/1;
 5/5=2,38=5/2;
 7//1,2,3,16;
 1/18=20,19=15,26=3/3(-5);
 2/9=110/2;
 6/7=2,8=2,9=2,10=2,19=2,28=1/1;
 99/9=1/99;
 ----------
 "Sketch 2"
 ----------
 Symbolic Z-matrix:
 Charge =  0 Multiplicity = 1
 N                    -3.27597   0.57796  -0.00019 
 N                    -2.44747  -0.66051   0.00016 
 C                    -1.01452  -0.19638   0.00039 
 C                    -1.00746   1.33133   0.0004 
 N                    -2.436     1.80882   0.00043 
 H                    -0.09409  -0.86904   0.00068 
 H                    -0.08081   1.99529   0.00088 
 H                    -2.93444  -1.65799   0.00016 
 C                    -5.42723  -0.53471  -0.26093 
 O                    -4.75807  -1.83339   0.12084 
 O                    -6.09527   0.76431  -0.64352 
 
 Add virtual bond connecting atoms O10        and H8         Dist= 3.47D+00.

 GradGradGradGradGradGradGradGradGradGradGradGradGradGradGradGradGradGrad
 Berny optimization.
 Initialization pass.
                           ----------------------------
                           !    Initial Parameters    !
                           ! (Angstroms and Degrees)  !
 --------------------------                            --------------------------
 ! Name  Definition              Value          Derivative Info.                !
 --------------------------------------------------------------------------------
 ! R1    R(1,2)                  1.49           estimate D2E/DX2                !
 ! R2    R(1,5)                  1.4902         estimate D2E/DX2                !
 ! R3    R(2,3)                  1.5062         estimate D2E/DX2                !
 ! R4    R(2,8)                  1.11           estimate D2E/DX2                !
 ! R5    R(3,4)                  1.5277         estimate D2E/DX2                !
 ! R6    R(3,6)                  1.14           estimate D2E/DX2                !
 ! R7    R(4,5)                  1.5062         estimate D2E/DX2                !
 ! R8    R(4,7)                  1.14           estimate D2E/DX2                !
 ! R9    R(8,10)                 1.836          estimate D2E/DX2                !
 ! R10   R(9,10)                 1.51           estimate D2E/DX2                !
 ! R11   R(9,11)                 1.51           estimate D2E/DX2                !
 ! A1    A(2,1,5)              111.9081         estimate D2E/DX2                !
 ! A2    A(1,2,3)              105.8343         estimate D2E/DX2                !
 ! A3    A(1,2,8)              120.197          estimate D2E/DX2                !
 ! A4    A(3,2,8)              133.9687         estimate D2E/DX2                !
 ! A5    A(2,3,4)              108.2118         estimate D2E/DX2                !
 ! A6    A(2,3,6)              125.8934         estimate D2E/DX2                !
 ! A7    A(4,3,6)              125.8948         estimate D2E/DX2                !
 ! A8    A(3,4,5)              108.2174         estimate D2E/DX2                !
 ! A9    A(3,4,7)              125.8871         estimate D2E/DX2                !
 ! A10   A(5,4,7)              125.8955         estimate D2E/DX2                !
 ! A11   A(1,5,4)              105.8284         estimate D2E/DX2                !
 ! A12   A(2,8,10)             121.4397         estimate D2E/DX2                !
 ! A13   A(8,10,9)             109.9611         estimate D2E/DX2                !
 ! A14   L(10,9,11,1,-1)       179.9601         estimate D2E/DX2                !
 ! A15   L(10,9,11,1,-2)       179.9628         estimate D2E/DX2                !
 ! D1    D(5,1,2,3)             -0.0261         estimate D2E/DX2                !
 ! D2    D(5,1,2,8)            179.9764         estimate D2E/DX2                !
 ! D3    D(2,1,5,4)              0.0328         estimate D2E/DX2                !
 ! D4    D(1,2,3,4)              0.0088         estimate D2E/DX2                !
 ! D5    D(1,2,3,6)           -179.9996         estimate D2E/DX2                !
 ! D6    D(8,2,3,4)           -179.9942         estimate D2E/DX2                !
 ! D7    D(8,2,3,6)             -0.0026         estimate D2E/DX2                !
 ! D8    D(1,2,8,10)            -4.434          estimate D2E/DX2                !
 ! D9    D(3,2,8,10)           175.5694         estimate D2E/DX2                !
 ! D10   D(2,3,4,5)              0.0108         estimate D2E/DX2                !
 ! D11   D(2,3,4,7)            179.9791         estimate D2E/DX2                !
 ! D12   D(6,3,4,5)           -179.9808         estimate D2E/DX2                !
 ! D13   D(6,3,4,7)             -0.0125         estimate D2E/DX2                !
 ! D14   D(3,4,5,1)             -0.0259         estimate D2E/DX2                !
 ! D15   D(7,4,5,1)           -179.9942         estimate D2E/DX2                !
 ! D16   D(2,8,10,9)            19.3748         estimate D2E/DX2                !
 --------------------------------------------------------------------------------
 Trust Radius=3.00D-01 FncErr=1.00D-07 GrdErr=1.00D-06 EigMax=2.50D+02 EigMin=1.00D-04
 Number of steps in this run=     52 maximum allowed number of steps=    100.
 GradGradGradGradGradGradGradGradGradGradGradGradGradGradGradGradGradGrad

                          Input orientation:                          
 ---------------------------------------------------------------------
 Center     Atomic      Atomic             Coordinates (Angstroms)
 Number     Number       Type             X           Y           Z
 ---------------------------------------------------------------------
      1          7           0       -3.275970    0.577959   -0.000194
      2          7           0       -2.447470   -0.660512    0.000159
      3          6           0       -1.014520   -0.196383    0.000393
      4          6           0       -1.007460    1.331330    0.000395
      5          7           0       -2.436000    1.808820    0.000435
      6          1           0       -0.094095   -0.869036    0.000677
      7          1           0       -0.080812    1.995290    0.000883
      8          1           0       -2.934440   -1.657990    0.000159
      9          6           0       -5.427230   -0.534705   -0.260926
     10          8           0       -4.758070   -1.833390    0.120836
     11          8           0       -6.095270    0.764310   -0.643524
 ---------------------------------------------------------------------
                    Distance matrix (angstroms):
                    1          2          3          4          5
     1  N    0.000000
     2  N    1.490041   0.000000
     3  C    2.390348   1.506241   0.000000
     4  C    2.390336   2.457857   1.527729   0.000000
     5  N    1.490157   2.469359   2.457935   1.506228   0.000000
     6  H    3.495444   2.362596   1.140020   2.382404   3.557448
     7  H    3.495406   3.557296   2.382276   1.139964   2.362558
     8  H    2.261882   1.110001   2.412962   3.556583   3.502458
     9  C    2.435964   2.993821   4.433369   4.804658   3.808921
    10  O    2.832997   2.594047   4.087599   4.908873   4.321134
    11  O    2.897767   3.968739   5.210718   5.159647   3.859526
                    6          7          8          9         10
     6  H    0.000000
     7  H    2.864357   0.000000
     8  H    2.947883   4.635693   0.000000
     9  C    5.350004   5.920608   2.746623   0.000000
    10  O    4.764146   6.045653   1.836016   1.510000   0.000000
    11  O    6.252753   6.172866   4.033945   1.510000   3.019999
                   11
    11  O    0.000000
 Stoichiometry    C3H3N3O2
 Framework group  C1[X(C3H3N3O2)]
 Deg. of freedom    27
 Full point group                 C1      NOp   1
 Largest Abelian subgroup         C1      NOp   1
 Largest concise Abelian subgroup C1      NOp   1
                         Standard orientation:                         
 ---------------------------------------------------------------------
 Center     Atomic      Atomic             Coordinates (Angstroms)
 Number     Number       Type             X           Y           Z
 ---------------------------------------------------------------------
      1          7           0        0.158769   -0.425297   -0.141420
      2          7           0        0.627347    0.973979    0.065183
      3          6           0        2.128459    0.894818    0.160867
      4          6           0        2.540134   -0.568433    0.007970
      5          7           0        1.292836   -1.391111   -0.182216
      6          1           0        2.835395    1.774948    0.319798
      7          1           0        3.607306   -0.968481    0.032934
      8          1           0       -0.105338    1.806198    0.117016
      9          6           0       -2.223202    0.060322    0.014507
     10          8           0       -1.897220    1.523592   -0.166264
     11          8           0       -2.548077   -1.403081    0.196184
 ---------------------------------------------------------------------
 Rotational constants (GHZ):           3.7521000           1.2479343           0.9444668
 Standard basis: 6-31+G(d,p) (6D, 7F)
 There are   167 symmetry adapted cartesian basis functions of A   symmetry.
 There are   167 symmetry adapted basis functions of A   symmetry.
   167 basis functions,   277 primitive gaussians,   167 cartesian basis functions
    29 alpha electrons       29 beta electrons
       nuclear repulsion energy       307.6525167748 Hartrees.
 NAtoms=   11 NActive=   11 NUniq=   11 SFac= 1.00D+00 NAtFMM=   60 NAOKFM=F Big=F
 Integral buffers will be    131072 words long.
 Raffenetti 2 integral format.
 Two-electron integral symmetry is turned on.
 One-electron integrals computed using PRISM.
 NBasis=   167 RedAO= T EigKep=  8.66D-05  NBF=   167
 NBsUse=   167 1.00D-06 EigRej= -1.00D+00 NBFU=   167
 ExpMin= 4.38D-02 ExpMax= 5.48D+03 ExpMxC= 8.25D+02 IAcc=3 IRadAn=         5 AccDes= 0.00D+00
 Harris functional with IExCor= 1009 and IRadAn=       5 diagonalized for initial guess.
 HarFok:  IExCor= 1009 AccDes= 0.00D+00 IRadAn=         5 IDoV= 1 UseB2=F ITyADJ=14
 ICtDFT=  3500011 ScaDFX=  1.000000  1.000000  1.000000  1.000000
 FoFCou: FMM=F IPFlag=           0 FMFlag=      100000 FMFlg1=           0
         NFxFlg=           0 DoJE=T BraDBF=F KetDBF=T FulRan=T
         wScrn=  0.000000 ICntrl=       500 IOpCl=  0 I1Cent=   200000004 NGrid=           0
         NMat0=    1 NMatS0=      1 NMatT0=    0 NMatD0=    1 NMtDS0=    0 NMtDT0=    0
 Petite list used in FoFCou.
 Keep R1 ints in memory in canonical form, NReq=118249495.
 Requested convergence on RMS density matrix=1.00D-08 within 128 cycles.
 Requested convergence on MAX density matrix=1.00D-06.
 Requested convergence on             energy=1.00D-06.
 No special actions if energy rises.
 SCF Done:  E(RM062X) =  -430.294404589     A.U. after   17 cycles
            NFock= 17  Conv=0.67D-08     -V/T= 2.0156

 **********************************************************************

            Population analysis using the SCF density.

 **********************************************************************

 Orbital symmetries:
       Occupied  (A) (A) (A) (A) (A) (A) (A) (A) (A) (A) (A) (A)
                 (A) (A) (A) (A) (A) (A) (A) (A) (A) (A) (A) (A)
                 (A) (A) (A) (A) (A)
       Virtual   (A) (A) (A) (A) (A) (A) (A) (A) (A) (A) (A) (A)
                 (A) (A) (A) (A) (A) (A) (A) (A) (A) (A) (A) (A)
                 (A) (A) (A) (A) (A) (A) (A) (A) (A) (A) (A) (A)
                 (A) (A) (A) (A) (A) (A) (A) (A) (A) (A) (A) (A)
                 (A) (A) (A) (A) (A) (A) (A) (A) (A) (A) (A) (A)
                 (A) (A) (A) (A) (A) (A) (A) (A) (A) (A) (A) (A)
                 (A) (A) (A) (A) (A) (A) (A) (A) (A) (A) (A) (A)
                 (A) (A) (A) (A) (A) (A) (A) (A) (A) (A) (A) (A)
                 (A) (A) (A) (A) (A) (A) (A) (A) (A) (A) (A) (A)
                 (A) (A) (A) (A) (A) (A) (A) (A) (A) (A) (A) (A)
                 (A) (A) (A) (A) (A) (A) (A) (A) (A) (A) (A) (A)
                 (A) (A) (A) (A) (A) (A)
 The electronic state is 1-A.
 Alpha  occ. eigenvalues --  -19.77090 -19.77004 -14.88898 -14.87797 -14.85129
 Alpha  occ. eigenvalues --  -10.85743 -10.66018 -10.63895  -1.15294  -1.11997
 Alpha  occ. eigenvalues --   -1.11461  -0.96919  -0.86896  -0.73483  -0.69740
 Alpha  occ. eigenvalues --   -0.68218  -0.62178  -0.55208  -0.52575  -0.51513
 Alpha  occ. eigenvalues --   -0.50650  -0.49866  -0.48986  -0.42851  -0.42412
 Alpha  occ. eigenvalues --   -0.39817  -0.38816  -0.35890  -0.31914
 Alpha virt. eigenvalues --   -0.09085  -0.08827  -0.06903  -0.03408   0.00651
 Alpha virt. eigenvalues --    0.01673   0.02544   0.03481   0.04951   0.05435
 Alpha virt. eigenvalues --    0.05781   0.07524   0.08035   0.08417   0.10170
 Alpha virt. eigenvalues --    0.10612   0.10813   0.14135   0.14966   0.16131
 Alpha virt. eigenvalues --    0.17081   0.18090   0.18444   0.18988   0.20398
 Alpha virt. eigenvalues --    0.20414   0.22384   0.23223   0.24156   0.25077
 Alpha virt. eigenvalues --    0.25351   0.25572   0.27072   0.28114   0.29407
 Alpha virt. eigenvalues --    0.29920   0.31721   0.32517   0.32822   0.34888
 Alpha virt. eigenvalues --    0.35155   0.36591   0.37813   0.38779   0.40981
 Alpha virt. eigenvalues --    0.43619   0.65354   0.66319   0.70358   0.73500
 Alpha virt. eigenvalues --    0.76183   0.80439   0.81229   0.84150   0.89665
 Alpha virt. eigenvalues --    0.92748   0.93095   0.94705   0.96108   0.97128
 Alpha virt. eigenvalues --    0.98630   1.01397   1.03513   1.05535   1.07556
 Alpha virt. eigenvalues --    1.10654   1.12213   1.15089   1.21240   1.24352
 Alpha virt. eigenvalues --    1.26044   1.27881   1.29510   1.31067   1.31923
 Alpha virt. eigenvalues --    1.34804   1.35346   1.35977   1.37286   1.38600
 Alpha virt. eigenvalues --    1.42556   1.47543   1.48706   1.50968   1.54876
 Alpha virt. eigenvalues --    1.55534   1.57657   1.59561   1.67909   1.73607
 Alpha virt. eigenvalues --    1.75457   1.77516   1.79820   1.80976   1.83026
 Alpha virt. eigenvalues --    1.86081   1.86432   1.88508   1.90726   1.90952
 Alpha virt. eigenvalues --    1.91736   1.94811   1.96969   1.99368   2.05724
 Alpha virt. eigenvalues --    2.07625   2.08584   2.14898   2.23223   2.33496
 Alpha virt. eigenvalues --    2.35898   2.37682   2.41568   2.42157   2.43278
 Alpha virt. eigenvalues --    2.47008   2.48323   2.48921   2.56558   2.60468
 Alpha virt. eigenvalues --    2.62501   2.69487   2.73849   2.82049   2.87636
 Alpha virt. eigenvalues --    3.00684   3.03691   3.09678   3.26595   3.48080
 Alpha virt. eigenvalues --    3.87998   4.05138   4.14089   4.18944   4.30061
 Alpha virt. eigenvalues --    4.31290   4.34724   4.53399
          Condensed to atoms (all electrons):
               1          2          3          4          5          6
     1  N    6.687446   0.172978  -0.085038   0.043403   0.249895   0.002442
     2  N    0.172978   6.659203   0.284148  -0.139764   0.040200  -0.029841
     3  C   -0.085038   0.284148   5.446316   0.264608  -0.047561   0.347970
     4  C    0.043403  -0.139764   0.264608   5.344320   0.304642   0.006514
     5  N    0.249895   0.040200  -0.047561   0.304642   6.571405  -0.000605
     6  H    0.002442  -0.029841   0.347970   0.006514  -0.000605   0.468804
     7  H    0.005263  -0.003616   0.000176   0.346830  -0.023664   0.000934
     8  H    0.015889   0.261689  -0.002714   0.000630  -0.002035   0.000353
     9  C    0.001851   0.029204  -0.014051   0.000151  -0.009606   0.000049
    10  O   -0.022418   0.001204   0.009476  -0.005471   0.008852  -0.000136
    11  O   -0.010819  -0.001819  -0.000474  -0.001030  -0.009176   0.000003
               7          8          9         10         11
     1  N    0.005263   0.015889   0.001851  -0.022418  -0.010819
     2  N   -0.003616   0.261689   0.029204   0.001204  -0.001819
     3  C    0.000176  -0.002714  -0.014051   0.009476  -0.000474
     4  C    0.346830   0.000630   0.000151  -0.005471  -0.001030
     5  N   -0.023664  -0.002035  -0.009606   0.008852  -0.009176
     6  H    0.000934   0.000353   0.000049  -0.000136   0.000003
     7  H    0.469856  -0.000013   0.000079   0.000004   0.000008
     8  H   -0.000013   0.306681  -0.000735   0.007758   0.000452
     9  C    0.000079  -0.000735   4.722938   0.285491   0.351493
    10  O    0.000004   0.007758   0.285491   8.149000  -0.039055
    11  O    0.000008   0.000452   0.351493  -0.039055   7.984045
 Mulliken charges:
               1
     1  N   -0.060889
     2  N   -0.273584
     3  C   -0.202855
     4  C   -0.164832
     5  N   -0.082347
     6  H    0.203514
     7  H    0.204143
     8  H    0.412045
     9  C    0.633137
    10  O   -0.394704
    11  O   -0.273627
 Sum of Mulliken charges =  -0.00000
 Mulliken charges with hydrogens summed into heavy atoms:
               1
     1  N   -0.060889
     2  N    0.138461
     3  C    0.000658
     4  C    0.039311
     5  N   -0.082347
     9  C    0.633137
    10  O   -0.394704
    11  O   -0.273627
 Electronic spatial extent (au):  <R**2>=           1111.2345
 Charge=             -0.0000 electrons
 Dipole moment (field-independent basis, Debye):
    X=              2.6284    Y=              3.6655    Z=              0.6627  Tot=              4.5589
 Quadrupole moment (field-independent basis, Debye-Ang):
   XX=            -37.6985   YY=            -48.0786   ZZ=            -49.1971
   XY=              1.6085   XZ=              0.9568   YZ=              0.9541
 Traceless Quadrupole moment (field-independent basis, Debye-Ang):
   XX=              7.2929   YY=             -3.0872   ZZ=             -4.2057
   XY=              1.6085   XZ=              0.9568   YZ=              0.9541
 Octapole moment (field-independent basis, Debye-Ang**2):
  XXX=             31.1215  YYY=             18.6741  ZZZ=             -0.2461  XYY=              9.4255
  XXY=              3.9668  XXZ=              2.0503  XZZ=             -9.3502  YZZ=              0.3880
  YYZ=              2.6843  XYZ=             -0.3357
 Hexadecapole moment (field-independent basis, Debye-Ang**3):
 XXXX=           -922.4848 YYYY=           -348.3781 ZZZZ=            -58.0832 XXXY=            -15.5522
 XXXZ=             10.3243 YYYX=             26.8992 YYYZ=             -0.1619 ZZZX=             -1.5578
 ZZZY=             -1.7496 XXYY=           -237.9509 XXZZ=           -197.7185 YYZZ=            -73.1277
 XXYZ=              6.6926 YYXZ=              3.0453 ZZXY=              1.0184
 N-N= 3.076525167748D+02 E-N=-1.618600714077D+03  KE= 4.236772205369D+02
 Calling FoFJK, ICntrl=      2127 FMM=F ISym2X=0 I1Cent= 0 IOpClX= 0 NMat=1 NMatS=1 NMatT=0.
 ***** Axes restored to original set *****
 -------------------------------------------------------------------
 Center     Atomic                   Forces (Hartrees/Bohr)
 Number     Number              X              Y              Z
 -------------------------------------------------------------------
      1        7           0.097132586    0.011767407    0.001509582
      2        7           0.059020362    0.096939864   -0.000470732
      3        6          -0.054306840    0.046411794   -0.000078067
      4        6          -0.075056261   -0.072613696    0.000154639
      5        7           0.029470767   -0.138727990   -0.001048689
      6        1          -0.034801513    0.015719694   -0.000012298
      7        1          -0.034343397   -0.017942835    0.000132899
      8        1           0.025668375    0.058487447    0.000404695
      9        6           0.008593792    0.028450255   -0.002610846
     10        8          -0.120810653    0.192517331   -0.060035109
     11        8           0.099432782   -0.221009270    0.062053925
 -------------------------------------------------------------------
 Cartesian Forces:  Max     0.221009270 RMS     0.074743124

 GradGradGradGradGradGradGradGradGradGradGradGradGradGradGradGradGradGrad
 Berny optimization.
 FormGI is forming the generalized inverse of G from B-inverse, IUseBI=4.
 Internal  Forces:  Max     0.249842594 RMS     0.067165825
 Search for a local minimum.
 Step number   1 out of a maximum of   52
 All quantities printed in internal units (Hartrees-Bohrs-Radians)
 Mixed Optimization -- RFO/linear search
 Second derivative matrix not updated -- first step.
 ITU=  0
     Eigenvalues ---    0.00230   0.00230   0.00237   0.00237   0.00249
     Eigenvalues ---    0.00263   0.00329   0.00336   0.00367   0.05723
     Eigenvalues ---    0.16000   0.16000   0.16000   0.16000   0.22156
     Eigenvalues ---    0.23876   0.25000   0.29012   0.29618   0.29623
     Eigenvalues ---    0.30478   0.31350   0.31351   0.31562   0.32600
     Eigenvalues ---    0.32651   0.33181
 RFO step:  Lambda=-3.07488069D-01 EMin= 2.30000000D-03
 Linear search not attempted -- first point.
 Maximum step size (   0.300) exceeded in Quadratic search.
    -- Step size scaled by   0.423
 Iteration  1 RMS(Cart)=  0.05548835 RMS(Int)=  0.00084138
 Iteration  2 RMS(Cart)=  0.00170220 RMS(Int)=  0.00001087
 Iteration  3 RMS(Cart)=  0.00000267 RMS(Int)=  0.00001059
 Iteration  4 RMS(Cart)=  0.00000000 RMS(Int)=  0.00001059
 Variable       Old X    -DE/DX   Delta X   Delta X   Delta X     New X
                                 (Linear)    (Quad)   (Total)
    R1        2.81577  -0.10169   0.00000  -0.06751  -0.06749   2.74828
    R2        2.81599  -0.12741   0.00000  -0.08436  -0.08436   2.73163
    R3        2.84638  -0.11811   0.00000  -0.07988  -0.07987   2.76651
    R4        2.09760  -0.05817   0.00000  -0.03884  -0.03884   2.05876
    R5        2.88699  -0.11809   0.00000  -0.08215  -0.08216   2.80483
    R6        2.15433  -0.03737   0.00000  -0.02619  -0.02619   2.12814
    R7        2.84636  -0.09639   0.00000  -0.06498  -0.06500   2.78136
    R8        2.15422  -0.03837   0.00000  -0.02688  -0.02688   2.12734
    R9        3.46957   0.01266   0.00000   0.01469   0.01469   3.48425
   R10        2.85349  -0.22851   0.00000  -0.15565  -0.15565   2.69784
   R11        2.85349  -0.24984   0.00000  -0.17017  -0.17017   2.68331
    A1        1.95316  -0.02222   0.00000  -0.01835  -0.01833   1.93484
    A2        1.84716   0.02901   0.00000   0.02271   0.02274   1.86990
    A3        2.09783  -0.02464   0.00000  -0.02053  -0.02054   2.07729
    A4        2.33819  -0.00437   0.00000  -0.00218  -0.00220   2.33600
    A5        1.88865  -0.02225   0.00000  -0.01713  -0.01713   1.87153
    A6        2.19725   0.00268   0.00000   0.00092   0.00092   2.19818
    A7        2.19728   0.01957   0.00000   0.01621   0.01621   2.21348
    A8        1.88875   0.00757   0.00000   0.00702   0.00699   1.89574
    A9        2.19714   0.00205   0.00000   0.00177   0.00179   2.19893
   A10        2.19729  -0.00962   0.00000  -0.00879  -0.00878   2.18851
   A11        1.84705   0.00789   0.00000   0.00575   0.00572   1.85277
   A12        2.11952   0.00922   0.00000   0.00700   0.00700   2.12652
   A13        1.91918   0.01378   0.00000   0.01246   0.01246   1.93165
   A14        3.14090   0.03629   0.00000   0.04953   0.04953   3.19043
   A15        3.14094   0.00009   0.00000   0.00013   0.00013   3.14107
    D1       -0.00046   0.00050   0.00000   0.00068   0.00068   0.00022
    D2        3.14118   0.00037   0.00000   0.00050   0.00050  -3.14150
    D3        0.00057  -0.00054   0.00000  -0.00074  -0.00073  -0.00016
    D4        0.00015  -0.00025   0.00000  -0.00034  -0.00035  -0.00019
    D5       -3.14159  -0.00017   0.00000  -0.00023  -0.00023   3.14137
    D6       -3.14149  -0.00010   0.00000  -0.00013  -0.00013   3.14156
    D7       -0.00005  -0.00002   0.00000  -0.00002  -0.00002  -0.00007
    D8       -0.07739   0.00072   0.00000   0.00098   0.00098  -0.07641
    D9        3.06426   0.00054   0.00000   0.00074   0.00074   3.06501
   D10        0.00019  -0.00007   0.00000  -0.00009  -0.00009   0.00010
   D11        3.14123   0.00003   0.00000   0.00005   0.00005   3.14128
   D12       -3.14126  -0.00014   0.00000  -0.00020  -0.00020  -3.14146
   D13       -0.00022  -0.00005   0.00000  -0.00006  -0.00006  -0.00028
   D14       -0.00045   0.00035   0.00000   0.00048   0.00048   0.00003
   D15       -3.14149   0.00025   0.00000   0.00034   0.00034  -3.14115
   D16        0.33815   0.00100   0.00000   0.00136   0.00136   0.33951
         Item               Value     Threshold  Converged?
 Maximum Force            0.249843     0.000450     NO 
 RMS     Force            0.067166     0.000300     NO 
 Maximum Displacement     0.197143     0.001800     NO 
 RMS     Displacement     0.055446     0.001200     NO 
 Predicted change in Energy=-1.163914D-01
 GradGradGradGradGradGradGradGradGradGradGradGradGradGradGradGradGradGrad

                          Input orientation:                          
 ---------------------------------------------------------------------
 Center     Atomic      Atomic             Coordinates (Angstroms)
 Number     Number       Type             X           Y           Z
 ---------------------------------------------------------------------
      1          7           0       -3.248048    0.587533   -0.006196
      2          7           0       -2.432832   -0.616829   -0.005273
      3          6           0       -1.032510   -0.189878    0.000911
      4          6           0       -1.025410    1.294357    0.003402
      5          7           0       -2.417944    1.770924   -0.001113
      6          1           0       -0.134277   -0.869153    0.003329
      7          1           0       -0.111399    1.951509    0.008352
      8          1           0       -2.925498   -1.588509   -0.008838
      9          6           0       -5.395784   -0.524242   -0.256758
     10          8           0       -4.758756   -1.750005    0.103579
     11          8           0       -6.088878    0.659986   -0.622102
 ---------------------------------------------------------------------
                    Distance matrix (angstroms):
                    1          2          3          4          5
     1  N    0.000000
     2  N    1.454326   0.000000
     3  C    2.347983   1.463976   0.000000
     4  C    2.332340   2.373509   1.484255   0.000000
     5  N    1.445515   2.387803   2.400870   1.471831   0.000000
     6  H    3.437672   2.312378   1.126162   2.339849   3.490725
     7  H    3.420410   3.462022   2.331103   1.125740   2.313623
     8  H    2.199819   1.089447   2.353650   3.452738   3.397567
     9  C    2.431377   2.975047   4.383646   4.740796   3.768377
    10  O    2.785386   2.589568   4.040971   4.818303   4.229338
    11  O    2.907732   3.921404   5.165004   5.141243   3.885301
                    6          7          8          9         10
     6  H    0.000000
     7  H    2.820759   0.000000
     8  H    2.882453   4.522298   0.000000
     9  C    5.279210   5.841605   2.701192   0.000000
    10  O    4.708689   5.942071   1.843788   1.427635   0.000000
    11  O    6.179538   6.147825   3.929223   1.419947   2.846734
                   11
    11  O    0.000000
 Stoichiometry    C3H3N3O2
 Framework group  C1[X(C3H3N3O2)]
 Deg. of freedom    27
 Full point group                 C1      NOp   1
 Largest Abelian subgroup         C1      NOp   1
 Largest concise Abelian subgroup C1      NOp   1
                         Standard orientation:                         
 ---------------------------------------------------------------------
 Center     Atomic      Atomic             Coordinates (Angstroms)
 Number     Number       Type             X           Y           Z
 ---------------------------------------------------------------------
      1          7           0        0.181366   -0.433270   -0.132658
      2          7           0        0.648694    0.930091    0.062069
      3          6           0        2.108890    0.876789    0.152691
      4          6           0        2.506700   -0.545883    0.008600
      5          7           0        1.292013   -1.357725   -0.169547
      6          1           0        2.794455    1.757370    0.303750
      7          1           0        3.559509   -0.943877    0.030552
      8          1           0       -0.081431    1.737236    0.110333
      9          6           0       -2.195396    0.058631    0.010961
     10          8           0       -1.879985    1.439724   -0.165788
     11          8           0       -2.576040   -1.297428    0.191139
 ---------------------------------------------------------------------
 Rotational constants (GHZ):           4.1230286           1.2589311           0.9722646
 Standard basis: 6-31+G(d,p) (6D, 7F)
 There are   167 symmetry adapted cartesian basis functions of A   symmetry.
 There are   167 symmetry adapted basis functions of A   symmetry.
   167 basis functions,   277 primitive gaussians,   167 cartesian basis functions
    29 alpha electrons       29 beta electrons
       nuclear repulsion energy       315.1551576297 Hartrees.
 NAtoms=   11 NActive=   11 NUniq=   11 SFac= 1.00D+00 NAtFMM=   60 NAOKFM=F Big=F
 Integral buffers will be    131072 words long.
 Raffenetti 2 integral format.
 Two-electron integral symmetry is turned on.
 One-electron integrals computed using PRISM.
 NBasis=   167 RedAO= T EigKep=  7.01D-05  NBF=   167
 NBsUse=   167 1.00D-06 EigRej= -1.00D+00 NBFU=   167
 Initial guess from the checkpoint file:  "/scratch/gongke2021/1-H-Tz-RC/Gau-29538.chk"
 B after Tr=    -0.000000    0.000000   -0.000000
         Rot=    0.999993    0.002852    0.000504    0.002240 Ang=   0.42 deg.
 ExpMin= 4.38D-02 ExpMax= 5.48D+03 ExpMxC= 8.25D+02 IAcc=2 IRadAn=         4 AccDes= 0.00D+00
 Harris functional with IExCor= 1009 and IRadAn=       4 diagonalized for initial guess.
 HarFok:  IExCor= 1009 AccDes= 0.00D+00 IRadAn=         4 IDoV= 1 UseB2=F ITyADJ=14
 ICtDFT=  3500011 ScaDFX=  1.000000  1.000000  1.000000  1.000000
 FoFCou: FMM=F IPFlag=           0 FMFlag=      100000 FMFlg1=           0
         NFxFlg=           0 DoJE=T BraDBF=F KetDBF=T FulRan=T
         wScrn=  0.000000 ICntrl=       500 IOpCl=  0 I1Cent=   200000004 NGrid=           0
         NMat0=    1 NMatS0=      1 NMatT0=    0 NMatD0=    1 NMtDS0=    0 NMtDT0=    0
 Petite list used in FoFCou.
 Keep R1 ints in memory in canonical form, NReq=118249495.
 Requested convergence on RMS density matrix=1.00D-08 within 128 cycles.
 Requested convergence on MAX density matrix=1.00D-06.
 Requested convergence on             energy=1.00D-06.
 No special actions if energy rises.
 SCF Done:  E(RM062X) =  -430.421184237     A.U. after   15 cycles
            NFock= 15  Conv=0.44D-08     -V/T= 2.0146
 Calling FoFJK, ICntrl=      2127 FMM=F ISym2X=0 I1Cent= 0 IOpClX= 0 NMat=1 NMatS=1 NMatT=0.
 ***** Axes restored to original set *****
 -------------------------------------------------------------------
 Center     Atomic                   Forces (Hartrees/Bohr)
 Number     Number              X              Y              Z
 -------------------------------------------------------------------
      1        7           0.089994399    0.014919151    0.001493144
      2        7           0.046702089    0.080805616   -0.000093227
      3        6          -0.046443851    0.038276877   -0.000205160
      4        6          -0.062743892   -0.057472494   -0.000187825
      5        7           0.020116388   -0.122866699   -0.000918157
      6        1          -0.028526661    0.012446829   -0.000101443
      7        1          -0.028249614   -0.013423777   -0.000019878
      8        1           0.024245856    0.048898632    0.000754815
      9        6          -0.009305091    0.022886469   -0.005126931
     10        8          -0.119922175    0.191449383   -0.059623633
     11        8           0.114132551   -0.215919988    0.064028296
 -------------------------------------------------------------------
 Cartesian Forces:  Max     0.215919988 RMS     0.071201353

 GradGradGradGradGradGradGradGradGradGradGradGradGradGradGradGradGradGrad
 Berny optimization.
 Using GEDIIS/GDIIS optimizer.
 FormGI is forming the generalized inverse of G from B-inverse, IUseBI=4.
 Internal  Forces:  Max     0.252265519 RMS     0.063359991
 Search for a local minimum.
 Step number   2 out of a maximum of   52
 All quantities printed in internal units (Hartrees-Bohrs-Radians)
 Mixed Optimization -- RFO/linear search
 Update second derivatives using D2CorX and points    1    2
 DE= -1.27D-01 DEPred=-1.16D-01 R= 1.09D+00
 TightC=F SS=  1.41D+00  RLast= 3.00D-01 DXNew= 5.0454D-01 9.0003D-01
 Trust test= 1.09D+00 RLast= 3.00D-01 DXMaxT set to 5.05D-01
 ITU=  1  0
 Use linear search instead of GDIIS.
 Linear search step of   0.600 exceeds DXMaxT=   0.505 but not scaled.
 Quartic linear search produced a step of  2.00000.
 Iteration  1 RMS(Cart)=  0.09392612 RMS(Int)=  0.03004619
 Iteration  2 RMS(Cart)=  0.03687745 RMS(Int)=  0.00017089
 Iteration  3 RMS(Cart)=  0.00051660 RMS(Int)=  0.00006398
 Iteration  4 RMS(Cart)=  0.00000024 RMS(Int)=  0.00006398
 Variable       Old X    -DE/DX   Delta X   Delta X   Delta X     New X
                                 (Linear)    (Quad)   (Total)
    R1        2.74828  -0.08664  -0.13498   0.00000  -0.13487   2.61341
    R2        2.73163  -0.11314  -0.16872   0.00000  -0.16873   2.56290
    R3        2.76651  -0.09751  -0.15974   0.00000  -0.15966   2.60685
    R4        2.05876  -0.04632  -0.07768   0.00000  -0.07768   1.98107
    R5        2.80483  -0.09612  -0.16431   0.00000  -0.16438   2.64046
    R6        2.12814  -0.03026  -0.05237   0.00000  -0.05237   2.07577
    R7        2.78136  -0.08180  -0.13000   0.00000  -0.13012   2.65124
    R8        2.12734  -0.03077  -0.05376   0.00000  -0.05376   2.07358
    R9        3.48425   0.01510   0.02937   0.00000   0.02937   3.51363
   R10        2.69784  -0.22739  -0.31129   0.00000  -0.31129   2.38655
   R11        2.68331  -0.25227  -0.34035   0.00000  -0.34035   2.34296
    A1        1.93484  -0.01600  -0.03665   0.00000  -0.03651   1.89832
    A2        1.86990   0.02230   0.04548   0.00000   0.04566   1.91555
    A3        2.07729  -0.01579  -0.04108   0.00000  -0.04117   2.03612
    A4        2.33600  -0.00651  -0.00440   0.00000  -0.00449   2.33151
    A5        1.87153  -0.01851  -0.03425   0.00000  -0.03424   1.83729
    A6        2.19818   0.00151   0.00184   0.00000   0.00183   2.20001
    A7        2.21348   0.01699   0.03241   0.00000   0.03240   2.24589
    A8        1.89574   0.00405   0.01398   0.00000   0.01382   1.90956
    A9        2.19893   0.00393   0.00357   0.00000   0.00365   2.20258
   A10        2.18851  -0.00798  -0.01755   0.00000  -0.01747   2.17104
   A11        1.85277   0.00815   0.01144   0.00000   0.01127   1.86405
   A12        2.12652   0.01790   0.01399   0.00000   0.01399   2.14051
   A13        1.93165   0.01754   0.02493   0.00000   0.02493   1.95658
   A14        3.19043   0.02846   0.09907   0.00000   0.09907   3.28950
   A15        3.14107   0.00003   0.00025   0.00000   0.00025   3.14133
    D1        0.00022   0.00038   0.00135   0.00000   0.00136   0.00158
    D2       -3.14150   0.00027   0.00100   0.00000   0.00101  -3.14050
    D3       -0.00016  -0.00041  -0.00146   0.00000  -0.00141  -0.00157
    D4       -0.00019  -0.00018  -0.00069   0.00000  -0.00070  -0.00090
    D5        3.14137  -0.00013  -0.00047   0.00000  -0.00048   3.14089
    D6        3.14156  -0.00006  -0.00027   0.00000  -0.00027   3.14129
    D7       -0.00007  -0.00001  -0.00005   0.00000  -0.00004  -0.00011
    D8       -0.07641   0.00058   0.00195   0.00000   0.00195  -0.07446
    D9        3.06501   0.00045   0.00149   0.00000   0.00149   3.06650
   D10        0.00010  -0.00006  -0.00018   0.00000  -0.00018  -0.00008
   D11        3.14128   0.00002   0.00010   0.00000   0.00011   3.14139
   D12       -3.14146  -0.00012  -0.00040   0.00000  -0.00041   3.14132
   D13       -0.00028  -0.00003  -0.00012   0.00000  -0.00012  -0.00040
   D14        0.00003   0.00029   0.00097   0.00000   0.00099   0.00103
   D15       -3.14115   0.00020   0.00068   0.00000   0.00070  -3.14045
   D16        0.33951   0.00142   0.00272   0.00000   0.00272   0.34223
         Item               Value     Threshold  Converged?
 Maximum Force            0.252266     0.000450     NO 
 RMS     Force            0.063360     0.000300     NO 
 Maximum Displacement     0.382639     0.001800     NO 
 RMS     Displacement     0.110846     0.001200     NO 
 Predicted change in Energy=-2.278761D-01
 GradGradGradGradGradGradGradGradGradGradGradGradGradGradGradGradGradGrad

                          Input orientation:                          
 ---------------------------------------------------------------------
 Center     Atomic      Atomic             Coordinates (Angstroms)
 Number     Number       Type             X           Y           Z
 ---------------------------------------------------------------------
      1          7           0       -3.193812    0.605083   -0.018504
      2          7           0       -2.406705   -0.532028   -0.015798
      3          6           0       -1.073941   -0.176472    0.001732
      4          6           0       -1.065915    1.220759    0.008547
      5          7           0       -2.386359    1.694663   -0.004950
      6          1           0       -0.220454   -0.867922    0.008368
      7          1           0       -0.176786    1.863647    0.022371
      8          1           0       -2.909237   -1.452009   -0.026415
      9          6           0       -5.331918   -0.503341   -0.249646
     10          8           0       -4.761432   -1.584191    0.068537
     11          8           0       -6.044777    0.457502   -0.574949
 ---------------------------------------------------------------------
                    Distance matrix (angstroms):
                    1          2          3          4          5
     1  N    0.000000
     2  N    1.382956   0.000000
     3  C    2.259445   1.379488   0.000000
     4  C    2.215340   2.206937   1.397270   0.000000
     5  N    1.356226   2.226811   2.285527   1.402976   0.000000
     6  H    3.318331   2.212036   1.098448   2.253307   3.355319
     7  H    3.269265   3.273110   2.228765   1.097290   2.216194
     8  H    2.076698   1.048340   2.235195   3.246959   3.189891
     9  C    2.419406   2.934685   4.277896   4.608466   3.683397
    10  O    2.694055   2.580484   3.947623   4.639848   4.049353
    11  O    2.908507   3.811481   5.044174   5.070710   3.903779
                    6          7          8          9         10
     6  H    0.000000
     7  H    2.731953   0.000000
     8  H    2.751712   4.296770   0.000000
     9  C    5.130940   5.679085   2.611357   0.000000
    10  O    4.597515   5.736610   1.859332   1.262906   0.000000
    11  O    6.001645   6.063609   3.711972   1.239843   2.495909
                   11
    11  O    0.000000
 Stoichiometry    C3H3N3O2
 Framework group  C1[X(C3H3N3O2)]
 Deg. of freedom    27
 Full point group                 C1      NOp   1
 Largest Abelian subgroup         C1      NOp   1
 Largest concise Abelian subgroup C1      NOp   1
                         Standard orientation:                         
 ---------------------------------------------------------------------
 Center     Atomic      Atomic             Coordinates (Angstroms)
 Number     Number       Type             X           Y           Z
 ---------------------------------------------------------------------
      1          7           0        0.224640   -0.447593   -0.113921
      2          7           0        0.681465    0.846772    0.054893
      3          6           0        2.058682    0.848524    0.133999
      4          6           0        2.436129   -0.491002    0.009228
      5          7           0        1.290249   -1.286024   -0.143215
      6          1           0        2.697410    1.732172    0.267343
      7          1           0        3.462274   -0.879344    0.025405
      8          1           0       -0.045805    1.600707    0.095848
      9          6           0       -2.141087    0.044765    0.006269
     10          8           0       -1.855824    1.263305   -0.163195
     11          8           0       -2.595514   -1.095722    0.179460
 ---------------------------------------------------------------------
 Rotational constants (GHZ):           5.0354701           1.2915480           1.0352476
 Standard basis: 6-31+G(d,p) (6D, 7F)
 There are   167 symmetry adapted cartesian basis functions of A   symmetry.
 There are   167 symmetry adapted basis functions of A   symmetry.
   167 basis functions,   277 primitive gaussians,   167 cartesian basis functions
    29 alpha electrons       29 beta electrons
       nuclear repulsion energy       332.3318091789 Hartrees.
 NAtoms=   11 NActive=   11 NUniq=   11 SFac= 1.00D+00 NAtFMM=   60 NAOKFM=F Big=F
 Integral buffers will be    131072 words long.
 Raffenetti 2 integral format.
 Two-electron integral symmetry is turned on.
 One-electron integrals computed using PRISM.
 NBasis=   167 RedAO= T EigKep=  4.36D-05  NBF=   167
 NBsUse=   167 1.00D-06 EigRej= -1.00D+00 NBFU=   167
 Initial guess from the checkpoint file:  "/scratch/gongke2021/1-H-Tz-RC/Gau-29538.chk"
 B after Tr=     0.000000    0.000000    0.000000
         Rot=    0.999976    0.006626    0.000739    0.001848 Ang=   0.79 deg.
 ExpMin= 4.38D-02 ExpMax= 5.48D+03 ExpMxC= 8.25D+02 IAcc=2 IRadAn=         4 AccDes= 0.00D+00
 Harris functional with IExCor= 1009 and IRadAn=       4 diagonalized for initial guess.
 HarFok:  IExCor= 1009 AccDes= 0.00D+00 IRadAn=         4 IDoV= 1 UseB2=F ITyADJ=14
 ICtDFT=  3500011 ScaDFX=  1.000000  1.000000  1.000000  1.000000
 FoFCou: FMM=F IPFlag=           0 FMFlag=      100000 FMFlg1=           0
         NFxFlg=           0 DoJE=T BraDBF=F KetDBF=T FulRan=T
         wScrn=  0.000000 ICntrl=       500 IOpCl=  0 I1Cent=   200000004 NGrid=           0
         NMat0=    1 NMatS0=      1 NMatT0=    0 NMatD0=    1 NMtDS0=    0 NMtDT0=    0
 Petite list used in FoFCou.
 Keep R1 ints in memory in canonical form, NReq=118249495.
 Requested convergence on RMS density matrix=1.00D-08 within 128 cycles.
 Requested convergence on MAX density matrix=1.00D-06.
 Requested convergence on             energy=1.00D-06.
 No special actions if energy rises.
 SCF Done:  E(RM062X) =  -430.619968818     A.U. after   15 cycles
            NFock= 15  Conv=0.23D-08     -V/T= 2.0111
 Calling FoFJK, ICntrl=      2127 FMM=F ISym2X=0 I1Cent= 0 IOpClX= 0 NMat=1 NMatS=1 NMatT=0.
 ***** Axes restored to original set *****
 -------------------------------------------------------------------
 Center     Atomic                   Forces (Hartrees/Bohr)
 Number     Number              X              Y              Z
 -------------------------------------------------------------------
      1        7           0.055577822    0.013979378    0.001122605
      2        7           0.009662995    0.031956470   -0.000035228
      3        6          -0.014926329    0.007503850   -0.000286322
      4        6          -0.025236882   -0.008804833   -0.000239987
      5        7           0.003919278   -0.065967754   -0.000627507
      6        1          -0.014602234    0.004159240   -0.000170663
      7        1          -0.013923164   -0.003080442   -0.000100076
      8        1           0.017993193    0.024405862    0.001289212
      9        6          -0.026314016   -0.005861868   -0.002637323
     10        8          -0.074190426    0.116050593   -0.036440690
     11        8           0.082039764   -0.114340495    0.038125981
 -------------------------------------------------------------------
 Cartesian Forces:  Max     0.116050593 RMS     0.040229567

 GradGradGradGradGradGradGradGradGradGradGradGradGradGradGradGradGradGrad
 Berny optimization.
 Using GEDIIS/GDIIS optimizer.
 FormGI is forming the generalized inverse of G from B-inverse, IUseBI=4.
 Internal  Forces:  Max     0.145792092 RMS     0.035148140
 Search for a local minimum.
 Step number   3 out of a maximum of   52
 All quantities printed in internal units (Hartrees-Bohrs-Radians)
 Mixed Optimization -- RFO/linear search
 Update second derivatives using D2CorX and points    2    3
 ITU=  0  1  0
 Use linear search instead of GDIIS.
     Eigenvalues ---    0.00230   0.00230   0.00237   0.00243   0.00250
     Eigenvalues ---    0.00264   0.00328   0.00337   0.00368   0.05702
     Eigenvalues ---    0.15806   0.16000   0.16000   0.16035   0.22208
     Eigenvalues ---    0.23856   0.24092   0.27899   0.29619   0.29649
     Eigenvalues ---    0.29975   0.31154   0.31441   0.32073   0.32585
     Eigenvalues ---    0.33132   0.36091
 RFO step:  Lambda=-4.05480389D-02 EMin= 2.29997441D-03
 Quartic linear search produced a step of  0.51687.
 Maximum step size (   0.505) exceeded in Quadratic search.
    -- Step size scaled by   0.732
 Iteration  1 RMS(Cart)=  0.14035325 RMS(Int)=  0.03251495
 Iteration  2 RMS(Cart)=  0.07011919 RMS(Int)=  0.00572186
 Iteration  3 RMS(Cart)=  0.00505771 RMS(Int)=  0.00012060
 Iteration  4 RMS(Cart)=  0.00001883 RMS(Int)=  0.00012022
 Iteration  5 RMS(Cart)=  0.00000000 RMS(Int)=  0.00012022
 Variable       Old X    -DE/DX   Delta X   Delta X   Delta X     New X
                                 (Linear)    (Quad)   (Total)
    R1        2.61341  -0.04240  -0.06971  -0.00584  -0.07543   2.53798
    R2        2.56290  -0.05905  -0.08721  -0.02101  -0.10800   2.45489
    R3        2.60685  -0.03561  -0.08252   0.03536  -0.04730   2.55955
    R4        1.98107  -0.01753  -0.04015   0.01425  -0.02590   1.95517
    R5        2.64046  -0.02836  -0.08496   0.06274  -0.02242   2.61804
    R6        2.07577  -0.01397  -0.02707   0.00301  -0.02406   2.05171
    R7        2.65124  -0.03973  -0.06725  -0.00309  -0.07032   2.58092
    R8        2.07358  -0.01309  -0.02779   0.00687  -0.02092   2.05266
    R9        3.51363   0.01864   0.01518   0.11291   0.12809   3.64172
   R10        2.38655  -0.13701  -0.16090  -0.10372  -0.26462   2.12192
   R11        2.34296  -0.14579  -0.17592  -0.09703  -0.27295   2.07002
    A1        1.89832  -0.00059  -0.01887   0.03025   0.01176   1.91008
    A2        1.91555   0.00522   0.02360  -0.02692  -0.00339   1.91217
    A3        2.03612   0.00284  -0.02128   0.06302   0.04177   2.07789
    A4        2.33151  -0.00806  -0.00232  -0.03610  -0.03839   2.29312
    A5        1.83729  -0.00874  -0.01770   0.00808  -0.00997   1.82731
    A6        2.20001  -0.00181   0.00095  -0.01465  -0.01352   2.18649
    A7        2.24589   0.01055   0.01675   0.00657   0.02350   2.26939
    A8        1.90956  -0.00416   0.00714  -0.02701  -0.02008   1.88948
    A9        2.20258   0.00796   0.00189   0.02860   0.03060   2.23318
   A10        2.17104  -0.00380  -0.00903  -0.00159  -0.01052   2.16053
   A11        1.86405   0.00826   0.00583   0.01560   0.02168   1.88573
   A12        2.14051   0.03087   0.00723   0.08945   0.09668   2.23719
   A13        1.95658   0.02159   0.01289   0.07165   0.08453   2.04111
   A14        3.28950   0.00528   0.05121  -0.43992  -0.38872   2.90078
   A15        3.14133  -0.00003   0.00013  -0.00188  -0.00175   3.13958
    D1        0.00158   0.00014   0.00070  -0.00426  -0.00357  -0.00199
    D2       -3.14050   0.00013   0.00052  -0.00230  -0.00173   3.14096
    D3       -0.00157  -0.00018  -0.00073   0.00355   0.00287   0.00130
    D4       -0.00090  -0.00003  -0.00036   0.00308   0.00270   0.00180
    D5        3.14089  -0.00003  -0.00025   0.00187   0.00161  -3.14069
    D6        3.14129  -0.00003  -0.00014   0.00063   0.00051  -3.14138
    D7       -0.00011  -0.00003  -0.00002  -0.00059  -0.00057  -0.00068
    D8       -0.07446   0.00023   0.00101  -0.00545  -0.00445  -0.07892
    D9        3.06650   0.00023   0.00077  -0.00289  -0.00211   3.06439
   D10       -0.00008  -0.00007  -0.00009  -0.00083  -0.00093  -0.00101
   D11        3.14139  -0.00002   0.00006  -0.00109  -0.00104   3.14035
   D12        3.14132  -0.00008  -0.00021   0.00042   0.00022   3.14154
   D13       -0.00040  -0.00002  -0.00006   0.00016   0.00011  -0.00028
   D14        0.00103   0.00016   0.00051  -0.00171  -0.00118  -0.00016
   D15       -3.14045   0.00010   0.00036  -0.00146  -0.00109  -3.14153
   D16        0.34223   0.00153   0.00140   0.01803   0.01944   0.36167
         Item               Value     Threshold  Converged?
 Maximum Force            0.145792     0.000450     NO 
 RMS     Force            0.035148     0.000300     NO 
 Maximum Displacement     0.371554     0.001800     NO 
 RMS     Displacement     0.139116     0.001200     NO 
 Predicted change in Energy=-7.747772D-02
 GradGradGradGradGradGradGradGradGradGradGradGradGradGradGradGradGradGrad

                          Input orientation:                          
 ---------------------------------------------------------------------
 Center     Atomic      Atomic             Coordinates (Angstroms)
 Number     Number       Type             X           Y           Z
 ---------------------------------------------------------------------
      1          7           0       -3.109913    0.737931   -0.034643
      2          7           0       -2.428354   -0.419296   -0.027120
      3          6           0       -1.098838   -0.162321    0.002888
      4          6           0       -1.008229    1.220058    0.015670
      5          7           0       -2.274145    1.732106   -0.008259
      6          1           0       -0.315100   -0.913590    0.014271
      7          1           0       -0.110068    1.830444    0.040438
      8          1           0       -2.952420   -1.311204   -0.045003
      9          6           0       -5.505479   -0.699959   -0.255005
     10          8           0       -4.860121   -1.573656    0.029617
     11          8           0       -5.908669    0.285180   -0.513561
 ---------------------------------------------------------------------
                    Distance matrix (angstroms):
                    1          2          3          4          5
     1  N    0.000000
     2  N    1.343039   0.000000
     3  C    2.203699   1.354456   0.000000
     4  C    2.156862   2.169347   1.385405   0.000000
     5  N    1.299073   2.157005   2.229423   1.365763   0.000000
     6  H    3.246674   2.170687   1.085716   2.243409   3.292123
     7  H    3.193477   3.231153   2.224902   1.086222   2.166857
     8  H    2.055205   1.034633   2.181283   3.192311   3.118196
     9  C    2.802645   3.098290   4.446802   4.897447   4.051832
    10  O    2.900136   2.692444   4.017441   4.758372   4.197234
    11  O    2.875305   3.584063   4.858133   5.016811   3.944451
                    6          7          8          9         10
     6  H    0.000000
     7  H    2.751808   0.000000
     8  H    2.667783   4.237478   0.000000
     9  C    5.201747   5.966631   2.633597   0.000000
    10  O    4.592726   5.843888   1.927115   1.122873   0.000000
    11  O    5.744882   6.026486   3.392256   1.095405   2.202219
                   11
    11  O    0.000000
 Stoichiometry    C3H3N3O2
 Framework group  C1[X(C3H3N3O2)]
 Deg. of freedom    27
 Full point group                 C1      NOp   1
 Largest Abelian subgroup         C1      NOp   1
 Largest concise Abelian subgroup C1      NOp   1
                         Standard orientation:                         
 ---------------------------------------------------------------------
 Center     Atomic      Atomic             Coordinates (Angstroms)
 Number     Number       Type             X           Y           Z
 ---------------------------------------------------------------------
      1          7           0        0.363733   -0.544838   -0.094508
      2          7           0        0.637142    0.763138    0.040402
      3          6           0        1.977957    0.941099    0.111792
      4          6           0        2.507804   -0.334941    0.010156
      5          7           0        1.474152   -1.218720   -0.115565
      6          1           0        2.478391    1.898104    0.223527
      7          1           0        3.553984   -0.626858    0.023248
      8          1           0       -0.145355    1.439191    0.073790
      9          6           0       -2.375307    0.039498    0.010521
     10          8           0       -2.027805    1.094648   -0.153020
     11          8           0       -2.456561   -1.042327    0.162060
 ---------------------------------------------------------------------
 Rotational constants (GHZ):           5.6773971           1.2314912           1.0174143
 Standard basis: 6-31+G(d,p) (6D, 7F)
 There are   167 symmetry adapted cartesian basis functions of A   symmetry.
 There are   167 symmetry adapted basis functions of A   symmetry.
   167 basis functions,   277 primitive gaussians,   167 cartesian basis functions
    29 alpha electrons       29 beta electrons
       nuclear repulsion energy       339.6936809737 Hartrees.
 NAtoms=   11 NActive=   11 NUniq=   11 SFac= 1.00D+00 NAtFMM=   60 NAOKFM=F Big=F
 Integral buffers will be    131072 words long.
 Raffenetti 2 integral format.
 Two-electron integral symmetry is turned on.
 One-electron integrals computed using PRISM.
 NBasis=   167 RedAO= T EigKep=  3.80D-05  NBF=   167
 NBsUse=   167 1.00D-06 EigRej= -1.00D+00 NBFU=   167
 Initial guess from the checkpoint file:  "/scratch/gongke2021/1-H-Tz-RC/Gau-29538.chk"
 B after Tr=    -0.000000   -0.000000   -0.000000
         Rot=    0.999660    0.007536    0.000004   -0.024954 Ang=   2.99 deg.
 ExpMin= 4.38D-02 ExpMax= 5.48D+03 ExpMxC= 8.25D+02 IAcc=2 IRadAn=         4 AccDes= 0.00D+00
 Harris functional with IExCor= 1009 and IRadAn=       4 diagonalized for initial guess.
 HarFok:  IExCor= 1009 AccDes= 0.00D+00 IRadAn=         4 IDoV= 1 UseB2=F ITyADJ=14
 ICtDFT=  3500011 ScaDFX=  1.000000  1.000000  1.000000  1.000000
 FoFCou: FMM=F IPFlag=           0 FMFlag=      100000 FMFlg1=           0
         NFxFlg=           0 DoJE=T BraDBF=F KetDBF=T FulRan=T
         wScrn=  0.000000 ICntrl=       500 IOpCl=  0 I1Cent=   200000004 NGrid=           0
         NMat0=    1 NMatS0=      1 NMatT0=    0 NMatD0=    1 NMtDS0=    0 NMtDT0=    0
 Petite list used in FoFCou.
 Keep R1 ints in memory in canonical form, NReq=118249495.
 Requested convergence on RMS density matrix=1.00D-08 within 128 cycles.
 Requested convergence on MAX density matrix=1.00D-06.
 Requested convergence on             energy=1.00D-06.
 No special actions if energy rises.
 SCF Done:  E(RM062X) =  -430.636086124     A.U. after   14 cycles
            NFock= 14  Conv=0.84D-08     -V/T= 2.0070
 Calling FoFJK, ICntrl=      2127 FMM=F ISym2X=0 I1Cent= 0 IOpClX= 0 NMat=1 NMatS=1 NMatT=0.
 ***** Axes restored to original set *****
 -------------------------------------------------------------------
 Center     Atomic                   Forces (Hartrees/Bohr)
 Number     Number              X              Y              Z
 -------------------------------------------------------------------
      1        7          -0.007492754   -0.000266539    0.000832344
      2        7           0.009500907    0.004138504   -0.000416457
      3        6           0.008514893    0.003307280    0.000154777
      4        6          -0.001219769   -0.010209644   -0.000100392
      5        7           0.003254948   -0.014541059   -0.000241075
      6        1          -0.006589628    0.000874089   -0.000111452
      7        1          -0.006419096   -0.000811506   -0.000135113
      8        1           0.012380880    0.017694468    0.001296535
      9        6           0.032242054   -0.028893518    0.012789122
     10        8           0.049641116   -0.118108986    0.031150097
     11        8          -0.093813552    0.146816911   -0.045218385
 -------------------------------------------------------------------
 Cartesian Forces:  Max     0.146816911 RMS     0.040057931

 GradGradGradGradGradGradGradGradGradGradGradGradGradGradGradGradGradGrad
 Berny optimization.
 Using GEDIIS/GDIIS optimizer.
 FormGI is forming the generalized inverse of G from B-inverse, IUseBI=4.
 Internal  Forces:  Max     0.177233016 RMS     0.036505583
 Search for a local minimum.
 Step number   4 out of a maximum of   52
 All quantities printed in internal units (Hartrees-Bohrs-Radians)
 Mixed Optimization -- RFO/linear search
 Update second derivatives using D2CorX and points    3    4
 DE= -1.61D-02 DEPred=-7.75D-02 R= 2.08D-01
 Trust test= 2.08D-01 RLast= 6.02D-01 DXMaxT set to 5.05D-01
 ITU=  0  0  1  0
 Use linear search instead of GDIIS.
     Eigenvalues ---    0.00230   0.00230   0.00237   0.00250   0.00263
     Eigenvalues ---    0.00327   0.00338   0.00370   0.00371   0.05718
     Eigenvalues ---    0.15494   0.16000   0.16002   0.16104   0.22409
     Eigenvalues ---    0.23554   0.24373   0.29203   0.29618   0.29808
     Eigenvalues ---    0.30034   0.31159   0.31647   0.32563   0.33129
     Eigenvalues ---    0.34283   1.00101
 RFO step:  Lambda=-3.62646733D-02 EMin= 2.29913329D-03
 Quartic linear search produced a step of -0.37992.
 Maximum step size (   0.505) exceeded in Quadratic search.
    -- Step size scaled by   0.898
 Iteration  1 RMS(Cart)=  0.18956940 RMS(Int)=  0.05237907
 Iteration  2 RMS(Cart)=  0.09185626 RMS(Int)=  0.02079459
 Iteration  3 RMS(Cart)=  0.03630422 RMS(Int)=  0.00231959
 Iteration  4 RMS(Cart)=  0.00233414 RMS(Int)=  0.00002727
 Iteration  5 RMS(Cart)=  0.00000494 RMS(Int)=  0.00002712
 Iteration  6 RMS(Cart)=  0.00000000 RMS(Int)=  0.00002712
 Variable       Old X    -DE/DX   Delta X   Delta X   Delta X     New X
                                 (Linear)    (Quad)   (Total)
    R1        2.53798  -0.00702   0.02866  -0.08047  -0.05185   2.48612
    R2        2.45489  -0.00868   0.04103  -0.11287  -0.07187   2.38302
    R3        2.55955  -0.00488   0.01797  -0.05382  -0.03584   2.52371
    R4        1.95517  -0.01531   0.00984  -0.04774  -0.03790   1.91727
    R5        2.61804  -0.01396   0.00852  -0.04879  -0.04023   2.57781
    R6        2.05171  -0.00537   0.00914  -0.03240  -0.02326   2.02845
    R7        2.58092  -0.00339   0.02672  -0.07063  -0.04390   2.53702
    R8        2.05266  -0.00577   0.00795  -0.03027  -0.02232   2.03034
    R9        3.64172   0.01179  -0.04866   0.25646   0.20780   3.84952
   R10        2.12192   0.13535   0.10054  -0.03455   0.06598   2.18790
   R11        2.07002   0.17723   0.10370   0.02261   0.12630   2.19632
    A1        1.91008  -0.01276  -0.00447  -0.01937  -0.02393   1.88616
    A2        1.91217   0.01153   0.00129   0.02507   0.02634   1.93851
    A3        2.07789  -0.00626  -0.01587   0.02382   0.00796   2.08585
    A4        2.29312  -0.00527   0.01458  -0.04889  -0.03430   2.25883
    A5        1.82731  -0.00632   0.00379  -0.02570  -0.02185   1.80547
    A6        2.18649  -0.00086   0.00514  -0.02038  -0.01527   2.17122
    A7        2.26939   0.00718  -0.00893   0.04607   0.03711   2.30650
    A8        1.88948   0.00028   0.00763  -0.01528  -0.00759   1.88189
    A9        2.23318   0.00288  -0.01162   0.03927   0.02761   2.26079
   A10        2.16053  -0.00316   0.00400  -0.02399  -0.02002   2.14050
   A11        1.88573   0.00727  -0.00824   0.03527   0.02702   1.91275
   A12        2.23719   0.01546  -0.03673   0.12262   0.08588   2.32307
   A13        2.04111   0.02120  -0.03212   0.15218   0.12006   2.16117
   A14        2.90078   0.06502   0.14768   0.32301   0.47069   3.37147
   A15        3.13958   0.00014   0.00066  -0.00121  -0.00054   3.13903
    D1       -0.00199   0.00024   0.00136  -0.00150  -0.00013  -0.00213
    D2        3.14096  -0.00005   0.00066  -0.00256  -0.00197   3.13900
    D3        0.00130  -0.00018  -0.00109   0.00089  -0.00023   0.00107
    D4        0.00180  -0.00019  -0.00102   0.00144   0.00042   0.00222
    D5       -3.14069  -0.00015  -0.00061   0.00019  -0.00040  -3.14108
    D6       -3.14138   0.00015  -0.00019   0.00276   0.00254  -3.13884
    D7       -0.00068   0.00019   0.00022   0.00151   0.00172   0.00104
    D8       -0.07892   0.00109   0.00169   0.01020   0.01188  -0.06704
    D9        3.06439   0.00072   0.00080   0.00878   0.00959   3.07398
   D10       -0.00101   0.00010   0.00035  -0.00087  -0.00051  -0.00152
   D11        3.14035   0.00005   0.00039  -0.00118  -0.00079   3.13957
   D12        3.14154   0.00006  -0.00008   0.00051   0.00044  -3.14121
   D13       -0.00028   0.00001  -0.00004   0.00020   0.00016  -0.00012
   D14       -0.00016   0.00005   0.00045   0.00002   0.00048   0.00032
   D15       -3.14153   0.00009   0.00041   0.00030   0.00072  -3.14081
   D16        0.36167   0.00260  -0.00738   0.08373   0.07635   0.43802
         Item               Value     Threshold  Converged?
 Maximum Force            0.177233     0.000450     NO 
 RMS     Force            0.036506     0.000300     NO 
 Maximum Displacement     1.433451     0.001800     NO 
 RMS     Displacement     0.301845     0.001200     NO 
 Predicted change in Energy=-4.874516D-02
 GradGradGradGradGradGradGradGradGradGradGradGradGradGradGradGradGradGrad

                          Input orientation:                          
 ---------------------------------------------------------------------
 Center     Atomic      Atomic             Coordinates (Angstroms)
 Number     Number       Type             X           Y           Z
 ---------------------------------------------------------------------
      1          7           0       -2.936454    0.879507    0.011989
      2          7           0       -2.338078   -0.291806   -0.015799
      3          6           0       -1.009922   -0.152891   -0.000487
      4          6           0       -0.832874    1.199019    0.041982
      5          7           0       -2.046754    1.772486    0.047284
      6          1           0       -0.314413   -0.970305   -0.017943
      7          1           0        0.077475    1.769035    0.068551
      8          1           0       -2.897073   -1.138029   -0.043973
      9          6           0       -5.702847   -0.710763   -0.291070
     10          8           0       -4.903177   -1.484154    0.029664
     11          8           0       -6.667219   -0.146405   -0.610906
 ---------------------------------------------------------------------
                    Distance matrix (angstroms):
                    1          2          3          4          5
     1  N    0.000000
     2  N    1.315600   0.000000
     3  C    2.185756   1.335488   0.000000
     4  C    2.127919   2.119325   1.364116   0.000000
     5  N    1.261041   2.085702   2.187323   1.342534   0.000000
     6  H    3.209019   2.134381   1.073407   2.231224   3.244713
     7  H    3.142965   3.176330   2.209298   1.074411   2.124339
     8  H    2.018697   1.014576   2.129255   3.119312   3.033557
     9  C    3.205267   3.401908   4.734893   5.241645   4.432609
    10  O    3.074932   2.829045   4.114682   4.875135   4.331878
    11  O    3.919069   4.372272   5.690138   6.022958   5.046192
                    6          7          8          9         10
     6  H    0.000000
     7  H    2.768581   0.000000
     8  H    2.588231   4.160724   0.000000
     9  C    5.401591   6.300068   2.848856   0.000000
    10  O    4.617690   5.949088   2.037076   1.157789   0.000000
    11  O    6.433394   7.044251   3.939382   1.162243   2.304722
                   11
    11  O    0.000000
 Stoichiometry    C3H3N3O2
 Framework group  C1[X(C3H3N3O2)]
 Deg. of freedom    27
 Full point group                 C1      NOp   1
 Largest Abelian subgroup         C1      NOp   1
 Largest concise Abelian subgroup C1      NOp   1
                         Standard orientation:                         
 ---------------------------------------------------------------------
 Center     Atomic      Atomic             Coordinates (Angstroms)
 Number     Number       Type             X           Y           Z
 ---------------------------------------------------------------------
      1          7           0        0.605969   -0.632028   -0.117925
      2          7           0        0.819497    0.657330    0.032951
      3          6           0        2.124741    0.918352    0.141278
      4          6           0        2.703691   -0.312855    0.042492
      5          7           0        1.723322   -1.216606   -0.114065
      6          1           0        2.538025    1.900333    0.272089
      7          1           0        3.742664   -0.584611    0.074757
      8          1           0        0.031067    1.295590    0.052109
      9          6           0       -2.525833    0.040511   -0.002849
     10          8           0       -1.973973    1.039001   -0.200191
     11          8           0       -3.297135   -0.807531    0.188790
 ---------------------------------------------------------------------
 Rotational constants (GHZ):           6.4032480           0.9481451           0.8311286
 Standard basis: 6-31+G(d,p) (6D, 7F)
 There are   167 symmetry adapted cartesian basis functions of A   symmetry.
 There are   167 symmetry adapted basis functions of A   symmetry.
   167 basis functions,   277 primitive gaussians,   167 cartesian basis functions
    29 alpha electrons       29 beta electrons
       nuclear repulsion energy       327.8625069058 Hartrees.
 NAtoms=   11 NActive=   11 NUniq=   11 SFac= 1.00D+00 NAtFMM=   60 NAOKFM=F Big=F
 Integral buffers will be    131072 words long.
 Raffenetti 2 integral format.
 Two-electron integral symmetry is turned on.
 One-electron integrals computed using PRISM.
 NBasis=   167 RedAO= T EigKep=  3.74D-05  NBF=   167
 NBsUse=   167 1.00D-06 EigRej= -1.00D+00 NBFU=   167
 Initial guess from the checkpoint file:  "/scratch/gongke2021/1-H-Tz-RC/Gau-29538.chk"
 B after Tr=     0.000000    0.000000   -0.000000
         Rot=    0.999776    0.009632    0.005876    0.017903 Ang=   2.43 deg.
 ExpMin= 4.38D-02 ExpMax= 5.48D+03 ExpMxC= 8.25D+02 IAcc=2 IRadAn=         4 AccDes= 0.00D+00
 Harris functional with IExCor= 1009 and IRadAn=       4 diagonalized for initial guess.
 HarFok:  IExCor= 1009 AccDes= 0.00D+00 IRadAn=         4 IDoV= 1 UseB2=F ITyADJ=14
 ICtDFT=  3500011 ScaDFX=  1.000000  1.000000  1.000000  1.000000
 FoFCou: FMM=F IPFlag=           0 FMFlag=      100000 FMFlg1=           0
         NFxFlg=           0 DoJE=T BraDBF=F KetDBF=T FulRan=T
         wScrn=  0.000000 ICntrl=       500 IOpCl=  0 I1Cent=   200000004 NGrid=           0
         NMat0=    1 NMatS0=      1 NMatT0=    0 NMatD0=    1 NMtDS0=    0 NMtDT0=    0
 Petite list used in FoFCou.
 Keep R1 ints in memory in canonical form, NReq=118249495.
 Requested convergence on RMS density matrix=1.00D-08 within 128 cycles.
 Requested convergence on MAX density matrix=1.00D-06.
 Requested convergence on             energy=1.00D-06.
 No special actions if energy rises.
 SCF Done:  E(RM062X) =  -430.655435232     A.U. after   15 cycles
            NFock= 15  Conv=0.62D-08     -V/T= 2.0074
 Calling FoFJK, ICntrl=      2127 FMM=F ISym2X=0 I1Cent= 0 IOpClX= 0 NMat=1 NMatS=1 NMatT=0.
 ***** Axes restored to original set *****
 -------------------------------------------------------------------
 Center     Atomic                   Forces (Hartrees/Bohr)
 Number     Number              X              Y              Z
 -------------------------------------------------------------------
      1        7          -0.043037209   -0.011670971   -0.000854408
      2        7          -0.003041691   -0.026014413   -0.001324892
      3        6           0.015993902   -0.006853446    0.000162175
      4        6           0.016649087    0.001007273    0.000212095
      5        7           0.011145821    0.041011642    0.001064953
      6        1           0.000563528   -0.003768903   -0.000074196
      7        1           0.001809752    0.002229555    0.000067020
      8        1           0.001451250    0.003485192    0.000836668
      9        6          -0.039763113   -0.007838962   -0.006620678
     10        8           0.026320044   -0.004754676    0.006220406
     11        8           0.011908628    0.013167708    0.000310856
 -------------------------------------------------------------------
 Cartesian Forces:  Max     0.043037209 RMS     0.015431899

 GradGradGradGradGradGradGradGradGradGradGradGradGradGradGradGradGradGrad
 Berny optimization.
 Using GEDIIS/GDIIS optimizer.
 FormGI is forming the generalized inverse of G from B-inverse, IUseBI=4.
 Internal  Forces:  Max     0.039929708 RMS     0.011366773
 Search for a local minimum.
 Step number   5 out of a maximum of   52
 All quantities printed in internal units (Hartrees-Bohrs-Radians)
 Mixed Optimization -- RFO/linear search
 Update second derivatives using D2CorX and points    4    5
 DE= -1.93D-02 DEPred=-4.87D-02 R= 3.97D-01
 Trust test= 3.97D-01 RLast= 5.78D-01 DXMaxT set to 5.05D-01
 ITU=  0  0  0  1  0
 Use linear search instead of GDIIS.
     Eigenvalues ---    0.00230   0.00231   0.00237   0.00250   0.00263
     Eigenvalues ---    0.00325   0.00340   0.00372   0.00820   0.05739
     Eigenvalues ---    0.15553   0.16000   0.16014   0.16135   0.22328
     Eigenvalues ---    0.23707   0.24673   0.29327   0.29619   0.29735
     Eigenvalues ---    0.30172   0.31404   0.31686   0.32424   0.33085
     Eigenvalues ---    0.39405   0.76490
 RFO step:  Lambda=-4.06028082D-02 EMin= 2.30001694D-03
 Quartic linear search produced a step of -0.31366.
 Maximum step size (   0.505) exceeded in Quadratic search.
    -- Step size scaled by   0.643
 Iteration  1 RMS(Cart)=  0.10251736 RMS(Int)=  0.06261428
 Iteration  2 RMS(Cart)=  0.06658392 RMS(Int)=  0.03239761
 Iteration  3 RMS(Cart)=  0.06647310 RMS(Int)=  0.00673258
 Iteration  4 RMS(Cart)=  0.00632785 RMS(Int)=  0.00005901
 Iteration  5 RMS(Cart)=  0.00004076 RMS(Int)=  0.00005514
 Iteration  6 RMS(Cart)=  0.00000000 RMS(Int)=  0.00005514
 Variable       Old X    -DE/DX   Delta X   Delta X   Delta X     New X
                                 (Linear)    (Quad)   (Total)
    R1        2.48612   0.02150   0.01626   0.00321   0.01956   2.50568
    R2        2.38302   0.03993   0.02254   0.02395   0.04656   2.42958
    R3        2.52371   0.01842   0.01124  -0.01044   0.00080   2.52450
    R4        1.91727  -0.00336   0.01189  -0.03591  -0.02402   1.89325
    R5        2.57781   0.01606   0.01262  -0.03152  -0.01900   2.55881
    R6        2.02845   0.00324   0.00730  -0.01058  -0.00328   2.02516
    R7        2.53702   0.02089   0.01377   0.00736   0.02108   2.55810
    R8        2.03034   0.00272   0.00700  -0.01276  -0.00576   2.02459
    R9        3.84952   0.00141  -0.06518   0.05219  -0.01298   3.83653
   R10        2.18790   0.02454  -0.02070   0.16459   0.14389   2.33179
   R11        2.19632  -0.00357  -0.03962   0.16770   0.12808   2.32441
    A1        1.88616  -0.00462   0.00750  -0.03842  -0.03073   1.85543
    A2        1.93851   0.00244  -0.00826   0.03548   0.02726   1.96577
    A3        2.08585  -0.00703  -0.00250  -0.04349  -0.04602   2.03983
    A4        2.25883   0.00459   0.01076   0.00802   0.01875   2.27758
    A5        1.80547   0.00310   0.00685  -0.01432  -0.00758   1.79788
    A6        2.17122  -0.00359   0.00479  -0.00920  -0.00436   2.16686
    A7        2.30650   0.00049  -0.01164   0.02353   0.01194   2.31844
    A8        1.88189   0.00357   0.00238   0.01395   0.01619   1.89808
    A9        2.26079  -0.00084  -0.00866   0.00291  -0.00568   2.25511
   A10        2.14050  -0.00273   0.00628  -0.01686  -0.01051   2.13000
   A11        1.91275  -0.00449  -0.00847   0.00332  -0.00514   1.90761
   A12        2.32307  -0.00706  -0.02694   0.00012  -0.02682   2.29625
   A13        2.16117  -0.00357  -0.03766   0.03247  -0.00519   2.15598
   A14        3.37147  -0.03819  -0.14764  -0.43149  -0.57913   2.79234
   A15        3.13903   0.00039   0.00017   0.00501   0.00518   3.14421
    D1       -0.00213   0.00009   0.00004   0.00189   0.00193  -0.00020
    D2        3.13900   0.00023   0.00062   0.00337   0.00394  -3.14025
    D3        0.00107  -0.00009   0.00007  -0.00183  -0.00174  -0.00067
    D4        0.00222  -0.00004  -0.00013  -0.00113  -0.00127   0.00095
    D5       -3.14108   0.00001   0.00012  -0.00018  -0.00008  -3.14116
    D6       -3.13884  -0.00019  -0.00080  -0.00278  -0.00361   3.14073
    D7        0.00104  -0.00014  -0.00054  -0.00183  -0.00241  -0.00138
    D8       -0.06704  -0.00068  -0.00373  -0.00847  -0.01216  -0.07920
    D9        3.07398  -0.00051  -0.00301  -0.00668  -0.00972   3.06426
   D10       -0.00152  -0.00001   0.00016   0.00007   0.00021  -0.00131
   D11        3.13957   0.00005   0.00025   0.00083   0.00109   3.14065
   D12       -3.14121  -0.00006  -0.00014  -0.00093  -0.00112   3.14086
   D13       -0.00012  -0.00001  -0.00005  -0.00017  -0.00024  -0.00036
   D14        0.00032   0.00006  -0.00015   0.00110   0.00097   0.00129
   D15       -3.14081   0.00001  -0.00023   0.00040   0.00016  -3.14065
   D16        0.43802  -0.00253  -0.02395  -0.04241  -0.06636   0.37166
         Item               Value     Threshold  Converged?
 Maximum Force            0.039930     0.000450     NO 
 RMS     Force            0.011367     0.000300     NO 
 Maximum Displacement     0.832394     0.001800     NO 
 RMS     Displacement     0.215533     0.001200     NO 
 Predicted change in Energy=-2.282504D-02
 GradGradGradGradGradGradGradGradGradGradGradGradGradGradGradGradGradGrad

                          Input orientation:                          
 ---------------------------------------------------------------------
 Center     Atomic      Atomic             Coordinates (Angstroms)
 Number     Number       Type             X           Y           Z
 ---------------------------------------------------------------------
      1          7           0       -3.051200    0.748434   -0.032141
      2          7           0       -2.341550   -0.371576   -0.021277
      3          6           0       -1.025292   -0.145811    0.012614
      4          6           0       -0.948039    1.205999    0.023838
      5          7           0       -2.202526    1.713832   -0.005157
      6          1           0       -0.282546   -0.918225    0.025988
      7          1           0       -0.080870    1.834602    0.050256
      8          1           0       -2.853717   -1.232419   -0.040453
      9          6           0       -5.710156   -0.787166   -0.273386
     10          8           0       -4.846261   -1.616055    0.025304
     11          8           0       -6.229180    0.294079   -0.546293
 ---------------------------------------------------------------------
                    Distance matrix (angstroms):
                    1          2          3          4          5
     1  N    0.000000
     2  N    1.325951   0.000000
     3  C    2.214945   1.335909   0.000000
     4  C    2.153087   2.105386   1.354062   0.000000
     5  N    1.285679   2.090099   2.201016   1.353689   0.000000
     6  H    3.232117   2.130858   1.071669   2.226031   3.258070
     7  H    3.163765   3.159590   2.194399   1.071365   2.125813
     8  H    1.990690   1.001865   2.127598   3.095419   3.017564
     9  C    3.079986   3.403496   4.737203   5.170958   4.316296
    10  O    2.969235   2.797227   4.094092   4.812497   4.251872
    11  O    3.251207   3.978996   5.252270   5.389536   4.303774
                    6          7          8          9         10
     6  H    0.000000
     7  H    2.760312   0.000000
     8  H    2.591149   4.135641   0.000000
     9  C    5.437440   6.218302   2.900302   0.000000
    10  O    4.616759   5.883588   2.030205   1.233932   0.000000
    11  O    6.095871   6.366380   3.738960   1.230022   2.426479
                   11
    11  O    0.000000
 Stoichiometry    C3H3N3O2
 Framework group  C1[X(C3H3N3O2)]
[...]
    R2        2.44533  -0.00001   0.00000  -0.00002  -0.00002   2.44532
    R3        2.55099   0.00001   0.00000   0.00001   0.00001   2.55100
    R4        1.91214  -0.00002   0.00000  -0.00004  -0.00004   1.91210
    R5        2.59888   0.00000   0.00000   0.00002   0.00002   2.59889
    R6        2.03666   0.00000   0.00000   0.00000   0.00000   2.03666
    R7        2.57085   0.00000   0.00000  -0.00000  -0.00000   2.57085
    R8        2.03732   0.00000   0.00000   0.00001   0.00001   2.03733
    R9        4.27370   0.00000   0.00000   0.00006   0.00006   4.27375
   R10        2.20857   0.00001   0.00000   0.00001   0.00001   2.20858
   R11        2.18843  -0.00002   0.00000  -0.00001  -0.00001   2.18841
    A1        1.87876  -0.00001   0.00000  -0.00001  -0.00001   1.87875
    A2        1.94431   0.00001   0.00000   0.00001   0.00001   1.94433
    A3        2.06545  -0.00001   0.00000  -0.00003  -0.00003   2.06543
    A4        2.27342   0.00000   0.00000   0.00001   0.00001   2.27343
    A5        1.80646  -0.00000   0.00000  -0.00001  -0.00001   1.80645
    A6        2.14902   0.00000   0.00000   0.00002   0.00002   2.14904
    A7        2.32771   0.00000   0.00000  -0.00001  -0.00001   2.32770
    A8        1.89407  -0.00001   0.00000  -0.00001  -0.00001   1.89406
    A9        2.26517  -0.00000   0.00000  -0.00002  -0.00002   2.26514
   A10        2.12395   0.00001   0.00000   0.00003   0.00003   2.12398
   A11        1.90117   0.00001   0.00000   0.00002   0.00002   1.90119
   A12        2.08670   0.00000   0.00000   0.00001   0.00001   2.08671
   A13        2.06111   0.00000   0.00000   0.00001   0.00001   2.06112
   A14        3.19291   0.00001   0.00000   0.00004   0.00004   3.19296
   A15        3.14159   0.00000   0.00000   0.00000   0.00000   3.14159
    D1       -0.00001   0.00000   0.00000   0.00001   0.00001   0.00000
    D2        3.14151   0.00000   0.00000   0.00008   0.00008   3.14159
    D3        0.00002  -0.00000   0.00000  -0.00002  -0.00002  -0.00000
    D4       -0.00001  -0.00000   0.00000   0.00001   0.00001  -0.00000
    D5       -3.14153  -0.00000   0.00000  -0.00006  -0.00006   3.14159
    D6       -3.14151  -0.00000   0.00000  -0.00008  -0.00008  -3.14159
    D7        0.00015  -0.00000   0.00000  -0.00015  -0.00015   0.00000
    D8       -0.00045   0.00000   0.00000   0.00045   0.00045  -0.00000
    D9        3.14105   0.00000   0.00000   0.00054   0.00054   3.14159
   D10        0.00001  -0.00000   0.00000  -0.00001  -0.00001   0.00000
   D11        3.14159   0.00000   0.00000   0.00001   0.00001   3.14159
   D12        3.14153   0.00000   0.00000   0.00006   0.00006  -3.14159
   D13       -0.00008   0.00000   0.00000   0.00008   0.00008  -0.00000
   D14       -0.00002   0.00000   0.00000   0.00002   0.00002   0.00000
   D15        3.14159   0.00000   0.00000   0.00000   0.00000  -3.14159
   D16        0.00018   0.00000   0.00000  -0.00017  -0.00017   0.00001
         Item               Value     Threshold  Converged?
 Maximum Force            0.000020     0.000450     YES
 RMS     Force            0.000006     0.000300     YES
 Maximum Displacement     0.000913     0.001800     YES
 RMS     Displacement     0.000255     0.001200     YES
 Predicted change in Energy=-2.541740D-09
 Optimization completed.
    -- Stationary point found.
                           ----------------------------
                           !   Optimized Parameters   !
                           ! (Angstroms and Degrees)  !
 --------------------------                            --------------------------
 ! Name  Definition              Value          Derivative Info.                !
 --------------------------------------------------------------------------------
 ! R1    R(1,2)                  1.3356         -DE/DX =    0.0                 !
 ! R2    R(1,5)                  1.294          -DE/DX =    0.0                 !
 ! R3    R(2,3)                  1.3499         -DE/DX =    0.0                 !
 ! R4    R(2,8)                  1.0119         -DE/DX =    0.0                 !
 ! R5    R(3,4)                  1.3753         -DE/DX =    0.0                 !
 ! R6    R(3,6)                  1.0778         -DE/DX =    0.0                 !
 ! R7    R(4,5)                  1.3604         -DE/DX =    0.0                 !
 ! R8    R(4,7)                  1.0781         -DE/DX =    0.0                 !
 ! R9    R(8,10)                 2.2615         -DE/DX =    0.0                 !
 ! R10   R(9,10)                 1.1687         -DE/DX =    0.0                 !
 ! R11   R(9,11)                 1.1581         -DE/DX =    0.0                 !
 ! A1    A(2,1,5)              107.6449         -DE/DX =    0.0                 !
 ! A2    A(1,2,3)              111.401          -DE/DX =    0.0                 !
 ! A3    A(1,2,8)              118.3418         -DE/DX =    0.0                 !
 ! A4    A(3,2,8)              130.2572         -DE/DX =    0.0                 !
 ! A5    A(2,3,4)              103.5024         -DE/DX =    0.0                 !
 ! A6    A(2,3,6)              123.1298         -DE/DX =    0.0                 !
 ! A7    A(4,3,6)              133.3678         -DE/DX =    0.0                 !
 ! A8    A(3,4,5)              108.5223         -DE/DX =    0.0                 !
 ! A9    A(3,4,7)              129.7844         -DE/DX =    0.0                 !
 ! A10   A(5,4,7)              121.6933         -DE/DX =    0.0                 !
 ! A11   A(1,5,4)              108.9293         -DE/DX =    0.0                 !
 ! A12   A(2,8,10)             119.5592         -DE/DX =    0.0                 !
 ! A13   A(8,10,9)             118.0928         -DE/DX =    0.0                 !
 ! A14   L(10,9,11,1,-1)       182.9404         -DE/DX =    0.0                 !
 ! A15   L(10,9,11,1,-2)       179.9999         -DE/DX =    0.0                 !
 ! D1    D(5,1,2,3)             -0.0004         -DE/DX =    0.0                 !
 ! D2    D(5,1,2,8)            179.9952         -DE/DX =    0.0                 !
 ! D3    D(2,1,5,4)              0.0009         -DE/DX =    0.0                 !
 ! D4    D(1,2,3,4)             -0.0003         -DE/DX =    0.0                 !
 ! D5    D(1,2,3,6)            180.0036         -DE/DX =    0.0                 !
 ! D6    D(8,2,3,4)           -179.9952         -DE/DX =    0.0                 !
 ! D7    D(8,2,3,6)              0.0087         -DE/DX =    0.0                 !
 ! D8    D(1,2,8,10)            -0.0258         -DE/DX =    0.0                 !
 ! D9    D(3,2,8,10)           179.9688         -DE/DX =    0.0                 !
 ! D10   D(2,3,4,5)              0.0008         -DE/DX =    0.0                 !
 ! D11   D(2,3,4,7)            179.9997         -DE/DX =    0.0                 !
 ! D12   D(6,3,4,5)           -180.0037         -DE/DX =    0.0                 !
 ! D13   D(6,3,4,7)             -0.0049         -DE/DX =    0.0                 !
 ! D14   D(3,4,5,1)             -0.0011         -DE/DX =    0.0                 !
 ! D15   D(7,4,5,1)           -180.0001         -DE/DX =    0.0                 !
 ! D16   D(2,8,10,9)             0.0103         -DE/DX =    0.0                 !
 --------------------------------------------------------------------------------
 GradGradGradGradGradGradGradGradGradGradGradGradGradGradGradGradGradGrad


 ----------------------------------------------------------------------

 Electric dipole moment (input orientation):
 (Debye = 10**-18 statcoulomb cm , SI units = C m)
                  (au)            (Debye)         (10**-30 SI)
   Tot        0.171294D+01      0.435387D+01      0.145229D+02
   x          0.104828D+01      0.266446D+01      0.888767D+01
   y         -0.134979D+01     -0.343083D+01     -0.114440D+02
   z          0.115526D+00      0.293638D+00      0.979470D+00

 Dipole polarizability, Alpha (input orientation).
 (esu units = cm**3 , SI units = C**2 m**2 J**-1)
 Alpha(0;0):
               (au)            (10**-24 esu)      (10**-40 SI)
   iso        0.560326D+02      0.830317D+01      0.923852D+01
   aniso      0.316819D+02      0.469477D+01      0.522364D+01
   xx         0.673560D+02      0.998113D+01      0.111055D+02
   yx        -0.419726D+01     -0.621970D+00     -0.692035D+00
   yy         0.649790D+02      0.962890D+01      0.107136D+02
   zx         0.247290D+01      0.366446D+00      0.407726D+00
   zy        -0.113273D+01     -0.167853D+00     -0.186762D+00
   zz         0.357626D+02      0.529947D+01      0.589646D+01

 ----------------------------------------------------------------------

 Dipole orientation:
     7         -3.12953440         -2.32428537         -4.44099718
     7         -3.19081425         -2.37605507         -1.91833564
     6         -1.40028045         -0.86284692         -0.91247552
     6         -0.21330752          0.14024523         -2.99551972
     7         -1.33262313         -0.80567924         -5.10778031
     1         -1.13257587         -0.63673328          1.09380802
     1          1.34053390          1.45341959         -3.10425944
     1         -4.49767819         -3.48032582         -1.06453314
     6         -7.03659571         -5.62284531         -5.64658517
     8         -7.20757139         -5.76795008         -3.44943133
     8         -6.95273294         -5.55130170         -7.83223358

 Electric dipole moment (dipole orientation):
 (Debye = 10**-18 statcoulomb cm , SI units = C m)
                  (au)            (Debye)         (10**-30 SI)
   Tot        0.171294D+01      0.435387D+01      0.145229D+02
   x          0.000000D+00      0.000000D+00      0.000000D+00
   y          0.000000D+00      0.000000D+00      0.000000D+00
   z          0.171294D+01      0.435387D+01      0.145229D+02

 Dipole polarizability, Alpha (dipole orientation).
 (esu units = cm**3 , SI units = C**2 m**2 J**-1)
 Alpha(0;0):
               (au)            (10**-24 esu)      (10**-40 SI)
   iso        0.560326D+02      0.830317D+01      0.923852D+01
   aniso      0.316819D+02      0.469477D+01      0.522364D+01
   xx         0.512385D+02      0.759276D+01      0.844809D+01
   yx         0.132579D+02      0.196462D+01      0.218593D+01
   yy         0.467502D+02      0.692766D+01      0.770806D+01
   zx         0.173813D+01      0.257564D+00      0.286579D+00
   zy         0.146347D+01      0.216863D+00      0.241293D+00
   zz         0.701090D+02      0.103891D+02      0.115594D+02

 ----------------------------------------------------------------------
 1\1\GINC-NODE1\Freq\RM062X\6-31+G(d,p)\C3H3N3O2\GONGKE2021\10-Mar-2023
 \0\\#N Geom=AllCheck Guess=TCheck SCRF=Check GenChk RM062X/6-31+G(d,p)
  Freq\\"Sketch 2"\\0,1\N,-3.0688814525,0.589206671,-0.1142205867\N,-2.
 2853615407,-0.4888262679,-0.025931015\C,-0.9827918724,-0.1452563329,0.
 0611074257\C,-1.0098253462,1.2291501565,0.0206510955\N,-2.3045046648,1
 .6329710582,-0.086691956\H,-0.1870544822,-0.8678067232,0.1403029671\H,
 -0.1973394802,1.9366342905,0.0611494699\H,-2.7217821198,-1.4017093226,
 -0.0327099685\C,-5.5900038301,-0.5722548136,-0.2674374454\O,-4.9718925
 792,-1.5614385969,-0.1941605226\O,-6.2518995319,0.3750228808,-0.342767
 0741\\Version=ES64L-G16RevA.03\State=1-A\HF=-430.6641638\RMSD=4.008e-0
 9\RMSF=8.930e-06\ZeroPoint=0.0732775\Thermal=0.080785\Dipole=1.0482783
 ,-1.3497929,0.1155259\DipoleDeriv=-0.5134662,-0.0471624,-0.0269979,-0.
 1394047,0.3057166,-0.0225369,-0.0244041,-0.0157431,-0.1328724,0.028032
 ,-0.1646983,0.0172241,-0.1993709,-0.6439074,-0.000754,0.0181838,0.0017
 826,-0.1404098,-0.0023984,0.2018541,0.0000544,-0.0155704,0.213548,-0.0
 093245,0.0061232,0.0068348,-0.0790545,-0.0195758,0.0900759,0.0037478,0
 .1559888,0.0554475,0.0071129,0.0018753,0.0022137,-0.1036431,0.0104974,
 -0.1639718,0.0220095,0.066388,-0.366552,0.0089058,0.0155932,-0.0081417
 ,-0.2228823,0.0895691,0.019562,-0.0088931,0.0369343,0.0735645,0.006333
 1,-0.0093629,0.0050259,0.2012113,0.0388615,-0.0329499,-0.0092701,-0.04
 97476,0.074526,-0.0008462,-0.0088022,0.0003997,0.1755938,0.3567201,0.0
 392189,0.0020831,0.0901611,0.30546,0.0068948,0.000652,0.0031485,0.3130
 687,1.5559534,-0.7299659,0.0943595,-0.8662238,1.8359309,-0.0997701,0.0
 98107,-0.0897225,0.5638663,-0.8023817,0.3745445,-0.047675,0.4275261,-1
 .0196248,0.0517153,-0.0491105,0.0478194,-0.303454,-0.7418114,0.413493,
 -0.0466423,0.4933191,-0.8341093,0.0522698,-0.0488547,0.0463828,-0.2714
 238\Polar=67.3560364,-4.1972637,64.979048,2.4728974,-1.1327283,35.7626
 288\Quadrupole=4.4608827,-2.8106927,-1.65019,0.2377306,0.4483996,0.050
 1245\PG=C01 [X(C3H3N3O2)]\NImag=0\\0.62555138,0.07613082,0.52173302,0.
 03523763,-0.00553753,0.12460363,-0.20099053,0.11032988,-0.01266043,0.7
 4594500,0.06142384,-0.18436561,0.00770481,0.19710918,0.92200519,-0.011
 29457,0.01133522,-0.07304592,0.04208497,-0.00828160,0.10751366,-0.0984
 5979,0.05826531,-0.01042505,-0.34143341,-0.07045242,-0.01900132,0.7715
 6345,-0.00202153,-0.03097629,0.00127856,-0.05180309,-0.13963421,-0.001
 57688,-0.16645767,0.78979604,-0.00873945,0.00575244,0.01927658,-0.0195
 2442,-0.00296326,-0.06008345,0.05273223,-0.03098034,0.12815036,-0.1092
 8400,-0.08643604,-0.00741111,-0.01200199,-0.00690627,-0.00146662,-0.11
 471381,-0.02351135,-0.00274561,0.73273780,-0.00063299,0.00238537,0.000
 53533,-0.10609632,-0.05977278,-0.00591032,0.01748717,-0.38799816,0.010
 22511,0.18477795,0.78865780,-0.00981225,-0.00583126,0.02263906,0.00130
 576,0.00144991,0.01045223,-0.00389276,0.00718362,-0.06932471,0.0391933
 3,-0.00457673,0.13786758,-0.21787923,-0.17154009,-0.00418625,-0.019384
 95,-0.04877034,-0.00196558,-0.00481087,0.11041942,-0.00482854,-0.27008
 779,0.06281398,-0.01632593,0.52918063,-0.11258715,-0.28071410,-0.00321
 229,0.01274355,-0.16055788,0.00614803,0.01517202,-0.02533388,0.0023548
 0,0.06954462,-0.14483648,0.00714831,0.03041321,0.60674145,-0.00583432,
 -0.00758659,-0.09702532,-0.00368490,0.00158395,0.02514366,-0.00216505,
 0.00942226,0.01822019,-0.01651515,0.00664869,-0.07512076,0.02959912,-0
 .01138713,0.12130438,-0.00398007,-0.00298872,-0.00073334,-0.01627446,0
 .02434485,-0.00158197,-0.22495931,0.15282966,-0.01891605,0.00898843,-0
 .00229254,0.00074247,0.00131495,-0.00384692,-0.00028865,0.23524238,-0.
 00558431,-0.00283363,-0.00013873,-0.01288777,0.01491404,-0.00148807,0.
 16339705,-0.20606416,0.01710739,0.01959896,0.00005788,0.00144724,0.003
 59801,-0.00565553,0.00061144,-0.16820855,0.19997184,-0.00066075,0.0000
 5356,0.00698290,-0.00054322,0.00127427,-0.00419708,-0.01920851,0.01632
 176,-0.02935508,0.00012981,-0.00017529,-0.00014480,-0.00049708,0.00005
 969,0.00662354,0.02054122,-0.01745667,0.02365157,-0.00611387,0.0008201
 0,-0.00108720,-0.00016637,0.00429651,-0.00056423,0.00884534,0.00531734
 ,0.00055792,-0.22812527,-0.15404150,-0.01038720,-0.01666417,-0.0211979
 6,-0.00011598,-0.00039570,-0.00056571,0.00014382,0.24185818,0.00544742
 ,0.00131473,0.00059741,0.00056116,-0.00606353,0.00037419,-0.02049821,-
 0.00545798,-0.00138740,-0.15906170,-0.19986708,-0.00705279,0.00856098,
 0.01309688,0.00007008,0.00038741,-0.00017174,-0.00002574,0.16572023,0.
 19659098,-0.00121668,0.00025462,0.00813589,-0.00045938,0.00065094,0.00
 576527,0.00128033,0.00052878,-0.00060017,-0.01024717,-0.00668159,-0.03
 065055,-0.00094830,-0.00213773,-0.00712426,0.00011707,-0.00009634,-0.0
 0210907,0.01151117,0.00747582,0.02490708,0.02018502,0.01642878,0.00188
 585,-0.14831017,-0.16105797,-0.00563651,0.00133044,-0.02447505,0.00127
 960,-0.00811352,-0.00067418,-0.00088922,-0.00102642,0.01119848,-0.0009
 9591,0.00000013,0.00057667,0.00009229,0.00066117,-0.00094064,-0.000055
 13,0.13614341,-0.01685593,-0.01984568,-0.00101545,-0.15087105,-0.38686
 798,-0.00066945,0.00200855,0.00581970,-0.00020114,0.00211207,0.0022319
 3,0.00021002,0.00592558,-0.00272610,0.00074521,-0.00027583,-0.00025902
 ,-0.00005430,-0.00026801,0.00055362,0.00001401,0.15818118,0.40177768,0
 .00281837,0.00145275,-0.01128193,-0.00591961,-0.00142040,-0.01188386,0
 .00053667,-0.00216800,-0.00657416,-0.00096829,0.00000339,0.00405306,-0
 .00084846,0.00113529,0.00809130,0.00011611,0.00000924,-0.00145392,-0.0
 0007388,-0.00003625,0.00175403,0.00433811,0.00097407,0.01819852,-0.004
 63073,0.00056670,-0.00020584,-0.00210758,0.00257103,-0.00020865,-0.000
 53267,0.00070183,-0.00007143,0.00240063,0.00065756,0.00012963,0.003406
 22,0.00010533,0.00030449,0.00000204,0.00005189,-0.00001116,0.00032250,
 -0.00004824,0.00001740,-0.00512102,0.00125167,-0.00045550,0.71086137,-
 0.00401109,0.00166440,-0.00040451,0.00018662,-0.00174190,0.00005541,0.
 00675416,-0.00040332,0.00051829,0.00055435,-0.00337117,0.00014734,-0.0
 0351675,-0.00404087,-0.00016957,0.00037743,0.00019437,0.00002634,0.000
 09816,-0.00022394,0.00001651,0.01005728,0.00186605,0.00070552,-0.85573
 723,1.42188403,-0.00007393,-0.00006382,-0.00208560,-0.00014106,0.00023
 074,-0.00028924,-0.00024110,0.00006791,0.00014659,0.00013014,0.0001543
 6,0.00042314,0.00040458,0.00009982,-0.00072918,-0.00002036,0.00000208,
 0.00013161,0.00001293,0.00000577,0.00010878,-0.00070237,0.00005632,0.0
 0052995,0.06531509,-0.09871103,0.15763327,-0.00348331,-0.00299043,-0.0
 0025317,-0.00403025,-0.00158216,-0.00029194,0.00279030,-0.00095389,0.0
 0022016,-0.00111148,-0.00169202,-0.00002720,-0.00275703,-0.00107197,-0
 .00020892,0.00007748,0.00005496,0.00000987,-0.00012554,-0.00012417,0.0
 0000576,0.00198100,-0.00132610,0.00030158,-0.32454594,0.39766306,-0.02
 958213,0.34000675,-0.00085964,-0.00709421,0.00016782,0.00063541,0.0011
 4417,0.00002976,-0.00298550,-0.00001149,-0.00021609,-0.00074607,0.0011
 5911,-0.00009094,0.00019460,0.00233338,-0.00003673,-0.00017598,-0.0000
 8781,-0.00001274,-0.00016299,0.00014556,-0.00002079,-0.00469786,-0.001
 64658,-0.00034554,0.40166132,-0.69978963,0.04713000,-0.45408275,0.7652
 7394,-0.00031357,0.00001013,0.00106345,-0.00035459,-0.00013460,0.00050
 674,0.00027498,-0.00006450,0.00021770,-0.00005278,-0.00016013,-0.00010
 868,-0.00024295,-0.00013123,0.00045792,0.00001634,0.00000439,-0.000075
 25,0.00000727,-0.00001772,-0.00015971,0.00039642,-0.00009682,-0.001578
 20,-0.02969378,0.04683475,-0.07787769,0.03500014,-0.05385443,0.0418690
 2,-0.00091487,0.00141368,-0.00016108,-0.00124528,-0.00097624,-0.000073
 59,0.00038034,-0.00004567,0.00003559,-0.00068899,-0.00030710,-0.000036
 63,-0.00129133,-0.00047322,-0.00009472,-0.00001586,-0.00003120,0.00000
 370,-0.00009627,-0.00000424,-0.00000507,0.00226997,0.00011790,0.000154
 90,-0.38005482,0.44757402,-0.03510178,-0.00880198,0.06121946,-0.005037
 49,0.39045908,-0.00044943,-0.00126802,0.00002460,0.00009243,0.00094049
 ,-0.00001628,-0.00269046,0.00026377,-0.00020979,0.00007347,0.00135359,
 -0.00003472,0.00190139,0.00169314,0.00009839,-0.00015080,-0.00006624,-
 0.00001090,-0.00001616,0.00008251,-0.00000424,-0.00459668,-0.00090362,
 -0.00031008,0.44821814,-0.71603801,0.05102785,0.06610548,-0.06142646,0
 .00761016,-0.50848738,0.77536886,-0.00011048,0.00016049,0.00073725,-0.
 00010313,-0.00009477,0.00011800,0.00010958,-0.00001317,-0.00007386,-0.
 00004656,-0.00006282,-0.00008559,-0.00016060,-0.00007755,0.00015853,0.
 00000717,-0.00000198,-0.00005442,-0.00000461,-0.00000337,-0.00002730,0
 .00028688,0.00003753,0.00014520,-0.03512025,0.05098095,-0.07799163,-0.
 00517415,0.00724968,0.03568470,0.04031616,-0.05817498,0.04138913\\0.00
 000341,-0.00000158,-0.00000456,0.00001016,0.00000772,0.00000057,-0.000
 00494,0.00000967,0.00000321,-0.00000081,-0.00001007,-0.00000137,0.0000
 0161,0.00001756,0.00000240,-0.00000164,0.00000201,-0.00000259,-0.00000
 620,0.00000284,-0.00000014,-0.00000456,-0.00001888,0.00000129,0.000011
 51,-0.00003168,0.00000301,-0.00000246,0.00000978,-0.00000065,-0.000006
 07,0.00001264,-0.00000118\\\@


 WHEN IT COMES TO CASH FLOW, IT SEEMS LIKE THE TIDE IS ALWAYS GOING OUT.
 Job cpu time:       0 days  0 hours 19 minutes  8.7 seconds.
 Elapsed time:       0 days  0 hours  0 minutes 58.1 seconds.
 File lengths (MBytes):  RWF=     39 Int=      0 D2E=      0 Chk=      3 Scr=      1
 Normal termination of Gaussian 16 at Fri Mar 10 14:47:59 2023.
