 Entering Gaussian System, Link 0=/opt/soft/g16/g16
 Initial command:
 /opt/soft/g16/l1.exe "/scratch/gongke2021/TS-2/Gau-17023.inp" -scrdir="/scratch/gongke2021/TS-2/"
 Entering Link 1 = /opt/soft/g16/l1.exe PID=     17024.
  
 Copyright (c) 1988,1990,1992,1993,1995,1998,2003,2009,2016,
            Gaussian, Inc.  All Rights Reserved.
  
 This is part of the Gaussian(R) 16 program.  It is based on
 the Gaussian(R) 09 system (copyright 2009, Gaussian, Inc.),
 the Gaussian(R) 03 system (copyright 2003, Gaussian, Inc.),
 the Gaussian(R) 98 system (copyright 1998, Gaussian, Inc.),
 the Gaussian(R) 94 system (copyright 1995, Gaussian, Inc.),
 the Gaussian 92(TM) system (copyright 1992, Gaussian, Inc.),
 the Gaussian 90(TM) system (copyright 1990, Gaussian, Inc.),
 the Gaussian 88(TM) system (copyright 1988, Gaussian, Inc.),
 the Gaussian 86(TM) system (copyright 1986, Carnegie Mellon
 University), and the Gaussian 82(TM) system (copyright 1983,
 Carnegie Mellon University). Gaussian is a federally registered
 trademark of Gaussian, Inc.
  
 This software contains proprietary and confidential information,
 including trade secrets, belonging to Gaussian, Inc.
  
 This software is provided under written license and may be
 used, copied, transmitted, or stored only in accord with that
 written license.
  
 The following legend is applicable only to US Government
 contracts under FAR:
  
                    RESTRICTED RIGHTS LEGEND
  
 Use, reproduction and disclosure by the US Government is
 subject to restrictions as set forth in subparagraphs (a)
 and (c) of the Commercial Computer Software - Restricted
 Rights clause in FAR 52.227-19.
  
 Gaussian, Inc.
 340 Quinnipiac St., Bldg. 40, Wallingford CT 06492
  
  
 ---------------------------------------------------------------
 Warning -- This program may not be used in any manner that
 competes with the business of Gaussian, Inc. or will provide
 assistance to any competitor of Gaussian, Inc.  The licensee
 of this program is prohibited from giving any competitor of
 Gaussian, Inc. access to this program.  By using this program,
 the user acknowledges that Gaussian, Inc. is engaged in the
 business of creating and licensing software in the field of
 computational chemistry and represents and warrants to the
 licensee that it is not a competitor of Gaussian, Inc. and that
 it will not use this program in any manner prohibited above.
 ---------------------------------------------------------------
  

 Cite this work as:
 Gaussian 16, Revision A.03,
 M. J. Frisch, G. W. Trucks, H. B. Schlegel, G. E. Scuseria, 
 M. A. Robb, J. R. Cheeseman, G. Scalmani, V. Barone, 
 G. A. Petersson, H. Nakatsuji, X. Li, M. Caricato, A. V. Marenich, 
 J. Bloino, B. G. Janesko, R. Gomperts, B. Mennucci, H. P. Hratchian, 
 J. V. Ortiz, A. F. Izmaylov, J. L. Sonnenberg, D. Williams-Young, 
 F. Ding, F. Lipparini, F. Egidi, J. Goings, B. Peng, A. Petrone, 
 T. Henderson, D. Ranasinghe, V. G. Zakrzewski, J. Gao, N. Rega, 
 G. Zheng, W. Liang, M. Hada, M. Ehara, K. Toyota, R. Fukuda, 
 J. Hasegawa, M. Ishida, T. Nakajima, Y. Honda, O. Kitao, H. Nakai, 
 T. Vreven, K. Throssell, J. A. Montgomery, Jr., J. E. Peralta, 
 F. Ogliaro, M. J. Bearpark, J. J. Heyd, E. N. Brothers, K. N. Kudin, 
 V. N. Staroverov, T. A. Keith, R. Kobayashi, J. Normand, 
 K. Raghavachari, A. P. Rendell, J. C. Burant, S. S. Iyengar, 
 J. Tomasi, M. Cossi, J. M. Millam, M. Klene, C. Adamo, R. Cammi, 
 J. W. Ochterski, R. L. Martin, K. Morokuma, O. Farkas, 
 J. B. Foresman, and D. J. Fox, Gaussian, Inc., Wallingford CT, 2016.
 
 ******************************************
 Gaussian 16:  ES64L-G16RevA.03 25-Dec-2016
                26-May-2023 
 ******************************************
 %mem=10GB
 %nprocshared=30
 Will use up to   30 processors via shared memory.
 ----------------------------------------------------------------------
 # opt=(calcfc,ts,noeigentest,maxcycle=600) freq 6-31+g(d,p) integral=g
 rid=ultrafine m062x
 ----------------------------------------------------------------------
 1/5=1,6=600,10=4,11=1,18=20,26=4,38=1/1,3;
 2/9=110,12=2,17=6,18=5,40=1/2;
 3/5=1,6=6,7=111,11=2,25=1,30=1,71=2,74=-55,75=-5,140=1/1,2,3;
 4//1;
 5/5=2,38=5/2;
 8/6=4,10=90,11=11/1;
 11/6=1,8=1,9=11,15=111,16=1/1,2,10;
 10/6=1,13=1/2;
 6/7=2,8=2,9=2,10=2,28=1/1;
 7/10=1,18=20,25=1/1,2,3,16;
 1/5=1,6=600,10=4,11=1,18=20,26=4/3(2);
 2/9=110/2;
 99//99;
 2/9=110/2;
 3/5=1,6=6,7=111,11=2,25=1,30=1,71=1,74=-55,75=-5/1,2,3;
 4/5=5,16=3,69=1/1;
 5/5=2,38=5/2;
 7//1,2,3,16;
 1/5=1,6=600,11=1,18=20,26=4/3(-5);
 2/9=110/2;
 6/7=2,8=2,9=2,10=2,19=2,28=1/1;
 99/9=1/99;
 ----
 test
 ----
 Symbolic Z-matrix:
 Charge =  0 Multiplicity = 1
 N                    -0.93454  -0.33177  -0.06577 
 N                    -0.60199   0.95479  -0.08319 
 C                    -1.74599   1.61545   0.08165 
 C                    -2.76287   0.66008   0.19387 
 N                    -2.21293  -0.55034   0.10354 
 H                    -1.77586   2.69395   0.11494 
 H                    -3.82544   0.78486   0.33079 
 H                     0.80064   1.46473  -0.1628 
 C                     0.11428  -1.44941  -0.17032 
 O                    -0.28451  -2.54625   0.1111 
 O                     1.20854  -0.95967  -0.5464 
 O                     3.17212   0.02059   0.4346 
 H                     2.43216  -0.63934   0.09808 
 H                     3.40935  -0.16075   1.35057 
 O                     1.78381   1.88251  -0.14891 
 H                     2.52296   1.05429   0.19862 
 H                     2.01017   2.15925  -1.04645 
 
 Add virtual bond connecting atoms H16        and O15        Dist= 2.20D+00.
 Add virtual bond connecting atoms H16        and O12        Dist= 2.35D+00.
 Add virtual bond connecting atoms H8         and N2         Dist= 2.82D+00.
 Add virtual bond connecting atoms H13        and O11        Dist= 2.68D+00.

 GradGradGradGradGradGradGradGradGradGradGradGradGradGradGradGradGradGrad
 Berny optimization.
 Initialization pass.
                           ----------------------------
                           !    Initial Parameters    !
                           ! (Angstroms and Degrees)  !
 --------------------------                            --------------------------
 ! Name  Definition              Value          Derivative Info.                !
 --------------------------------------------------------------------------------
 ! R1    R(1,2)                  1.329          calculate D2E/DX2 analytically  !
 ! R2    R(1,5)                  1.3079         calculate D2E/DX2 analytically  !
 ! R3    R(1,9)                  1.5363         calculate D2E/DX2 analytically  !
 ! R4    R(2,3)                  1.3313         calculate D2E/DX2 analytically  !
 ! R5    R(2,8)                  1.4946         calculate D2E/DX2 analytically  !
 ! R6    R(3,4)                  1.3998         calculate D2E/DX2 analytically  !
 ! R7    R(3,6)                  1.0794         calculate D2E/DX2 analytically  !
 ! R8    R(4,5)                  1.3326         calculate D2E/DX2 analytically  !
 ! R9    R(4,7)                  1.0786         calculate D2E/DX2 analytically  !
 ! R10   R(8,15)                 1.0683         calculate D2E/DX2 analytically  !
 ! R11   R(9,10)                 1.2005         calculate D2E/DX2 analytically  !
 ! R12   R(9,11)                 1.2565         calculate D2E/DX2 analytically  !
 ! R13   R(11,13)                1.4196         calculate D2E/DX2 analytically  !
 ! R14   R(12,13)                1.047          calculate D2E/DX2 analytically  !
 ! R15   R(12,14)                0.9634         calculate D2E/DX2 analytically  !
 ! R16   R(12,16)                1.2432         calculate D2E/DX2 analytically  !
 ! R17   R(15,16)                1.1632         calculate D2E/DX2 analytically  !
 ! R18   R(15,17)                0.9661         calculate D2E/DX2 analytically  !
 ! A1    A(2,1,5)              114.0831         calculate D2E/DX2 analytically  !
 ! A2    A(2,1,9)              122.1793         calculate D2E/DX2 analytically  !
 ! A3    A(5,1,9)              123.6774         calculate D2E/DX2 analytically  !
 ! A4    A(1,2,3)              105.2933         calculate D2E/DX2 analytically  !
 ! A5    A(1,2,8)              124.4612         calculate D2E/DX2 analytically  !
 ! A6    A(3,2,8)              130.0701         calculate D2E/DX2 analytically  !
 ! A7    A(2,3,4)              107.1863         calculate D2E/DX2 analytically  !
 ! A8    A(2,3,6)              121.562          calculate D2E/DX2 analytically  !
 ! A9    A(4,3,6)              131.2506         calculate D2E/DX2 analytically  !
 ! A10   A(3,4,5)              108.3442         calculate D2E/DX2 analytically  !
 ! A11   A(3,4,7)              130.307          calculate D2E/DX2 analytically  !
 ! A12   A(5,4,7)              121.3488         calculate D2E/DX2 analytically  !
 ! A13   A(1,5,4)              105.0904         calculate D2E/DX2 analytically  !
 ! A14   A(1,9,10)             114.9573         calculate D2E/DX2 analytically  !
 ! A15   A(1,9,11)             109.3525         calculate D2E/DX2 analytically  !
 ! A16   A(10,9,11)            135.6899         calculate D2E/DX2 analytically  !
 ! A17   A(9,11,13)            134.6485         calculate D2E/DX2 analytically  !
 ! A18   A(13,12,14)           111.159          calculate D2E/DX2 analytically  !
 ! A19   A(13,12,16)            95.3957         calculate D2E/DX2 analytically  !
 ! A20   A(14,12,16)           117.7453         calculate D2E/DX2 analytically  !
 ! A21   A(11,13,12)           153.8047         calculate D2E/DX2 analytically  !
 ! A22   A(8,15,16)            108.0731         calculate D2E/DX2 analytically  !
 ! A23   A(8,15,17)            108.395          calculate D2E/DX2 analytically  !
 ! A24   A(16,15,17)           109.4285         calculate D2E/DX2 analytically  !
 ! A25   L(2,8,15,11,-1)       183.6147         calculate D2E/DX2 analytically  !
 ! A26   L(12,16,15,1,-1)      170.6574         calculate D2E/DX2 analytically  !
 ! A27   L(2,8,15,11,-2)       183.3265         calculate D2E/DX2 analytically  !
 ! A28   L(12,16,15,1,-2)      186.6614         calculate D2E/DX2 analytically  !
 ! D1    D(5,1,2,3)             -0.2302         calculate D2E/DX2 analytically  !
 ! D2    D(5,1,2,8)            175.375          calculate D2E/DX2 analytically  !
 ! D3    D(9,1,2,3)           -177.5041         calculate D2E/DX2 analytically  !
 ! D4    D(9,1,2,8)             -1.8989         calculate D2E/DX2 analytically  !
 ! D5    D(2,1,5,4)              0.474          calculate D2E/DX2 analytically  !
 ! D6    D(9,1,5,4)            177.7013         calculate D2E/DX2 analytically  !
 ! D7    D(2,1,9,10)           166.4385         calculate D2E/DX2 analytically  !
 ! D8    D(2,1,9,11)           -13.7479         calculate D2E/DX2 analytically  !
 ! D9    D(5,1,9,10)           -10.5706         calculate D2E/DX2 analytically  !
 ! D10   D(5,1,9,11)           169.2431         calculate D2E/DX2 analytically  !
 ! D11   D(1,2,3,4)             -0.1055         calculate D2E/DX2 analytically  !
 ! D12   D(1,2,3,6)            179.5615         calculate D2E/DX2 analytically  !
 ! D13   D(8,2,3,4)           -175.3697         calculate D2E/DX2 analytically  !
 ! D14   D(8,2,3,6)              4.2973         calculate D2E/DX2 analytically  !
 ! D15   D(1,2,15,16)          -19.1022         calculate D2E/DX2 analytically  !
 ! D16   D(1,2,15,17)          101.0556         calculate D2E/DX2 analytically  !
 ! D17   D(3,2,15,16)          153.0989         calculate D2E/DX2 analytically  !
 ! D18   D(3,2,15,17)          -86.7433         calculate D2E/DX2 analytically  !
 ! D19   D(2,3,4,5)              0.3935         calculate D2E/DX2 analytically  !
 ! D20   D(2,3,4,7)           -179.6335         calculate D2E/DX2 analytically  !
 ! D21   D(6,3,4,5)           -179.2291         calculate D2E/DX2 analytically  !
 ! D22   D(6,3,4,7)              0.7438         calculate D2E/DX2 analytically  !
 ! D23   D(3,4,5,1)             -0.5116         calculate D2E/DX2 analytically  !
 ! D24   D(7,4,5,1)            179.5126         calculate D2E/DX2 analytically  !
 ! D25   D(1,9,11,13)          103.8366         calculate D2E/DX2 analytically  !
 ! D26   D(10,9,11,13)         -76.4052         calculate D2E/DX2 analytically  !
 ! D27   D(9,11,13,12)        -115.3339         calculate D2E/DX2 analytically  !
 ! D28   D(14,12,13,11)        132.388          calculate D2E/DX2 analytically  !
 ! D29   D(16,12,13,11)          9.842          calculate D2E/DX2 analytically  !
 ! D30   D(13,12,15,8)          22.0387         calculate D2E/DX2 analytically  !
 ! D31   D(13,12,15,17)        -92.8317         calculate D2E/DX2 analytically  !
 ! D32   D(14,12,15,8)         -93.052          calculate D2E/DX2 analytically  !
 ! D33   D(14,12,15,17)        152.0775         calculate D2E/DX2 analytically  !
 --------------------------------------------------------------------------------
 Trust Radius=3.00D-01 FncErr=1.00D-07 GrdErr=1.00D-06 EigMax=2.50D+02 EigMin=1.00D-04
 Number of steps in this run=    102 maximum allowed number of steps=    102.
 Search for a saddle point of order  1.
 GradGradGradGradGradGradGradGradGradGradGradGradGradGradGradGradGradGrad

                          Input orientation:                          
 ---------------------------------------------------------------------
 Center     Atomic      Atomic             Coordinates (Angstroms)
 Number     Number       Type             X           Y           Z
 ---------------------------------------------------------------------
      1          7           0       -0.934541   -0.331767   -0.065770
      2          7           0       -0.601985    0.954793   -0.083190
      3          6           0       -1.745988    1.615452    0.081648
      4          6           0       -2.762867    0.660082    0.193866
      5          7           0       -2.212934   -0.550341    0.103537
      6          1           0       -1.775861    2.693953    0.114943
      7          1           0       -3.825439    0.784862    0.330793
      8          1           0        0.800641    1.464726   -0.162799
      9          6           0        0.114276   -1.449414   -0.170324
     10          8           0       -0.284508   -2.546245    0.111096
     11          8           0        1.208541   -0.959670   -0.546399
     12          8           0        3.172123    0.020594    0.434599
     13          1           0        2.432159   -0.639343    0.098080
     14          1           0        3.409353   -0.160745    1.350568
     15          8           0        1.783808    1.882506   -0.148914
     16          1           0        2.522958    1.054295    0.198619
     17          1           0        2.010173    2.159255   -1.046448
 ---------------------------------------------------------------------
                    Distance matrix (angstroms):
                    1          2          3          4          5
     1  N    0.000000
     2  N    1.328960   0.000000
     3  C    2.114673   1.331309   0.000000
     4  C    2.096175   2.198414   1.399774   0.000000
     5  N    1.307948   2.212567   2.215666   1.332557   0.000000
     6  H    3.145705   2.107586   1.079428   2.262088   3.273623
     7  H    3.124326   3.254368   2.253013   1.078600   2.105845
     8  H    2.499532   1.494566   2.562770   3.670593   3.634978
     9  C    1.536256   2.510146   3.594089   3.586162   2.509828
    10  O    2.314679   3.520768   4.410954   4.053350   2.775341
    11  O    2.284309   2.675394   3.969249   4.352433   3.506631
    12  O    4.152014   3.922337   5.182274   5.974195   5.425349
    13  H    3.384689   3.432224   4.747766   5.355929   4.645949
    14  H    4.572163   4.403512   5.598444   6.333089   5.772086
    15  O    3.507041   2.560660   3.547384   4.720601   4.685768
    16  H    3.734350   3.139201   4.307259   5.300507   5.001257
    17  H    3.979731   3.033474   3.959428   5.154397   5.147719
                    6          7          8          9         10
     6  H    0.000000
     7  H    2.809269   0.000000
     8  H    2.868188   4.701751   0.000000
     9  C    4.563057   4.556804   2.993888   0.000000
    10  O    5.448286   4.866491   4.164187   1.200527   0.000000
    11  O    4.763716   5.399427   2.488218   1.256462   2.275679
    12  O    5.633079   7.039940   2.840128   3.446344   4.317594
    13  H    5.368294   6.421841   2.675260   2.469987   3.319145
    14  H    6.046694   7.367247   3.426049   3.851144   4.568535
    15  O    3.660507   5.735730   1.068340   3.726860   4.894831
    16  H    4.601665   6.355486   1.807056   3.493770   4.566554
    17  H    3.996096   6.151432   1.651113   4.169474   5.361641
                   11         12         13         14         15
    11  O    0.000000
    12  O    2.403940   0.000000
    13  H    1.419579   1.047048   0.000000
    14  H    3.013360   0.963411   1.659123   0.000000
    15  O    2.926925   2.394707   2.615547   3.010933   0.000000
    16  H    2.517697   1.243238   1.699047   1.894467   1.163209
    17  H    3.258889   2.849122   3.052895   3.617429   0.966125
                   16         17
    16  H    0.000000
    17  H    1.741860   0.000000
 Stoichiometry    C3H7N3O4
 Framework group  C1[X(C3H7N3O4)]
 Deg. of freedom    45
 Full point group                 C1      NOp   1
 Largest Abelian subgroup         C1      NOp   1
 Largest concise Abelian subgroup C1      NOp   1
                         Standard orientation:                         
 ---------------------------------------------------------------------
 Center     Atomic      Atomic             Coordinates (Angstroms)
 Number     Number       Type             X           Y           Z
 ---------------------------------------------------------------------
      1          7           0        0.934541    0.331767   -0.065770
      2          7           0        0.601985   -0.954793   -0.083190
      3          6           0        1.745988   -1.615452    0.081648
      4          6           0        2.762867   -0.660082    0.193866
      5          7           0        2.212934    0.550341    0.103537
      6          1           0        1.775861   -2.693953    0.114943
      7          1           0        3.825439   -0.784862    0.330793
      8          1           0       -0.800641   -1.464726   -0.162799
      9          6           0       -0.114276    1.449414   -0.170324
     10          8           0        0.284508    2.546245    0.111096
     11          8           0       -1.208541    0.959670   -0.546399
     12          8           0       -3.172123   -0.020594    0.434599
     13          1           0       -2.432159    0.639343    0.098080
     14          1           0       -3.409353    0.160745    1.350568
     15          8           0       -1.783808   -1.882506   -0.148914
     16          1           0       -2.522958   -1.054295    0.198619
     17          1           0       -2.010173   -2.159255   -1.046448
 ---------------------------------------------------------------------
 Rotational constants (GHZ):           1.7790090           0.9911124           0.6574574
 Standard basis: 6-31+G(d,p) (6D, 7F)
 There are   225 symmetry adapted cartesian basis functions of A   symmetry.
 There are   225 symmetry adapted basis functions of A   symmetry.
   225 basis functions,   369 primitive gaussians,   225 cartesian basis functions
    39 alpha electrons       39 beta electrons
       nuclear repulsion energy       564.3777016401 Hartrees.
 NAtoms=   17 NActive=   17 NUniq=   17 SFac= 1.00D+00 NAtFMM=   60 NAOKFM=F Big=F
 Integral buffers will be    131072 words long.
 Raffenetti 2 integral format.
 Two-electron integral symmetry is turned on.
 One-electron integrals computed using PRISM.
 NBasis=   225 RedAO= T EigKep=  2.27D-05  NBF=   225
 NBsUse=   225 1.00D-06 EigRej= -1.00D+00 NBFU=   225
 ExpMin= 4.38D-02 ExpMax= 5.48D+03 ExpMxC= 8.25D+02 IAcc=3 IRadAn=         5 AccDes= 0.00D+00
 Harris functional with IExCor= 1009 and IRadAn=       5 diagonalized for initial guess.
 HarFok:  IExCor= 1009 AccDes= 0.00D+00 IRadAn=         5 IDoV= 1 UseB2=F ITyADJ=14
 ICtDFT=  3500011 ScaDFX=  1.000000  1.000000  1.000000  1.000000
 FoFCou: FMM=F IPFlag=           0 FMFlag=      100000 FMFlg1=           0
         NFxFlg=           0 DoJE=T BraDBF=F KetDBF=T FulRan=T
         wScrn=  0.000000 ICntrl=       500 IOpCl=  0 I1Cent=   200000004 NGrid=           0
         NMat0=    1 NMatS0=      1 NMatT0=    0 NMatD0=    1 NMtDS0=    0 NMtDT0=    0
 Petite list used in FoFCou.
 Requested convergence on RMS density matrix=1.00D-08 within 128 cycles.
 Requested convergence on MAX density matrix=1.00D-06.
 Requested convergence on             energy=1.00D-06.
 No special actions if energy rises.
 SCF Done:  E(RM062X) =  -583.462975863     A.U. after   14 cycles
            NFock= 14  Conv=0.75D-08     -V/T= 2.0082
 DoSCS=F DFT=T ScalE2(SS,OS)=  1.000000  1.000000
 Range of M.O.s used for correlation:     1   225
 NBasis=   225 NAE=    39 NBE=    39 NFC=     0 NFV=     0
 NROrb=    225 NOA=    39 NOB=    39 NVA=   186 NVB=   186

 **** Warning!!: The largest alpha MO coefficient is  0.60123470D+02

 Symmetrizing basis deriv contribution to polar:
 IMax=3 JMax=2 DiffMx= 0.00D+00
 G2DrvN: will do    18 centers at a time, making    1 passes.
 Calling FoFCou, ICntrl=  3107 FMM=F I1Cent=   0 AccDes= 0.00D+00.
 End of G2Drv F.D. properties file   721 does not exist.
 End of G2Drv F.D. properties file   722 does not exist.
 End of G2Drv F.D. properties file   788 does not exist.
          IDoAtm=11111111111111111
          Differentiating once with respect to nuclear coordinates.
 Keep R1 ints in memory in canonical form, NReq=354781438.
          There are    54 degrees of freedom in the 1st order CPHF.  IDoFFX=6 NUNeed=     0.
     48 vectors produced by pass  0 Test12= 1.34D-14 1.85D-09 XBig12= 1.79D-01 8.06D-02.
 AX will form    48 AO Fock derivatives at one time.
     48 vectors produced by pass  1 Test12= 1.34D-14 1.85D-09 XBig12= 3.29D-02 7.19D-02.
     48 vectors produced by pass  2 Test12= 1.34D-14 1.85D-09 XBig12= 6.31D-04 3.48D-03.
     48 vectors produced by pass  3 Test12= 1.34D-14 1.85D-09 XBig12= 7.31D-06 3.58D-04.
     48 vectors produced by pass  4 Test12= 1.34D-14 1.85D-09 XBig12= 6.56D-08 2.44D-05.
     48 vectors produced by pass  5 Test12= 1.34D-14 1.85D-09 XBig12= 3.25D-10 1.97D-06.
     39 vectors produced by pass  6 Test12= 1.34D-14 1.85D-09 XBig12= 1.35D-12 1.80D-07.
      8 vectors produced by pass  7 Test12= 1.34D-14 1.85D-09 XBig12= 5.13D-15 9.33D-09.
 InvSVY:  IOpt=1 It=  1 EMax= 3.89D-16
 Solved reduced A of dimension   335 with    54 vectors.
 End of Minotr F.D. properties file   721 does not exist.
 End of Minotr F.D. properties file   722 does not exist.
 End of Minotr F.D. properties file   788 does not exist.

 **********************************************************************

            Population analysis using the SCF density.

 **********************************************************************

 Orbital symmetries:
       Occupied  (A) (A) (A) (A) (A) (A) (A) (A) (A) (A) (A) (A)
                 (A) (A) (A) (A) (A) (A) (A) (A) (A) (A) (A) (A)
                 (A) (A) (A) (A) (A) (A) (A) (A) (A) (A) (A) (A)
                 (A) (A) (A)
       Virtual   (A) (A) (A) (A) (A) (A) (A) (A) (A) (A) (A) (A)
                 (A) (A) (A) (A) (A) (A) (A) (A) (A) (A) (A) (A)
                 (A) (A) (A) (A) (A) (A) (A) (A) (A) (A) (A) (A)
                 (A) (A) (A) (A) (A) (A) (A) (A) (A) (A) (A) (A)
                 (A) (A) (A) (A) (A) (A) (A) (A) (A) (A) (A) (A)
                 (A) (A) (A) (A) (A) (A) (A) (A) (A) (A) (A) (A)
                 (A) (A) (A) (A) (A) (A) (A) (A) (A) (A) (A) (A)
                 (A) (A) (A) (A) (A) (A) (A) (A) (A) (A) (A) (A)
                 (A) (A) (A) (A) (A) (A) (A) (A) (A) (A) (A) (A)
                 (A) (A) (A) (A) (A) (A) (A) (A) (A) (A) (A) (A)
                 (A) (A) (A) (A) (A) (A) (A) (A) (A) (A) (A) (A)
                 (A) (A) (A) (A) (A) (A) (A) (A) (A) (A) (A) (A)
                 (A) (A) (A) (A) (A) (A) (A) (A) (A) (A) (A) (A)
                 (A) (A) (A) (A) (A) (A) (A) (A) (A) (A) (A) (A)
                 (A) (A) (A) (A) (A) (A) (A) (A) (A) (A) (A) (A)
                 (A) (A) (A) (A) (A) (A)
 The electronic state is 1-A.
 Alpha  occ. eigenvalues --  -19.71444 -19.69649 -19.62690 -19.61759 -14.88833
 Alpha  occ. eigenvalues --  -14.84046 -14.81884 -10.70207 -10.60994 -10.59615
 Alpha  occ. eigenvalues --   -1.25951  -1.21809  -1.19407  -1.17466  -1.11357
 Alpha  occ. eigenvalues --   -1.02368  -0.94240  -0.74968  -0.73743  -0.70043
 Alpha  occ. eigenvalues --   -0.69468  -0.66536  -0.63673  -0.58877  -0.57721
 Alpha  occ. eigenvalues --   -0.55377  -0.53981  -0.53622  -0.51252  -0.50566
 Alpha  occ. eigenvalues --   -0.48234  -0.44973  -0.43334  -0.39236  -0.38103
 Alpha  occ. eigenvalues --   -0.37289  -0.35393  -0.35045  -0.34138
 Alpha virt. eigenvalues --   -0.00396   0.00132   0.02570   0.03005   0.04280
 Alpha virt. eigenvalues --    0.05374   0.05506   0.06245   0.07472   0.08175
 Alpha virt. eigenvalues --    0.09430   0.10026   0.10396   0.11095   0.11799
 Alpha virt. eigenvalues --    0.12886   0.14277   0.15403   0.16969   0.18405
 Alpha virt. eigenvalues --    0.19084   0.20113   0.20347   0.21031   0.21670
 Alpha virt. eigenvalues --    0.21763   0.22732   0.22942   0.23564   0.24700
 Alpha virt. eigenvalues --    0.25559   0.26511   0.27513   0.28605   0.29242
 Alpha virt. eigenvalues --    0.29880   0.30159   0.31553   0.31684   0.31872
 Alpha virt. eigenvalues --    0.32404   0.32978   0.34589   0.35081   0.35575
 Alpha virt. eigenvalues --    0.37350   0.38044   0.39045   0.40543   0.41645
 Alpha virt. eigenvalues --    0.42791   0.43959   0.47483   0.48340   0.50087
 Alpha virt. eigenvalues --    0.52783   0.54875   0.69635   0.71442   0.73399
 Alpha virt. eigenvalues --    0.75436   0.84470   0.85516   0.87604   0.90120
 Alpha virt. eigenvalues --    0.91192   0.93145   0.94338   0.94769   0.95677
 Alpha virt. eigenvalues --    0.96941   0.98774   1.00179   1.01587   1.01861
 Alpha virt. eigenvalues --    1.05110   1.05824   1.07229   1.07860   1.12621
 Alpha virt. eigenvalues --    1.13503   1.15700   1.16316   1.17306   1.20821
 Alpha virt. eigenvalues --    1.24422   1.25326   1.28705   1.29137   1.29474
 Alpha virt. eigenvalues --    1.32043   1.32582   1.34710   1.38186   1.38677
 Alpha virt. eigenvalues --    1.39111   1.40201   1.41499   1.42986   1.45037
 Alpha virt. eigenvalues --    1.45813   1.46271   1.47558   1.49442   1.51218
 Alpha virt. eigenvalues --    1.55393   1.55469   1.57529   1.59511   1.60624
 Alpha virt. eigenvalues --    1.63688   1.64345   1.66535   1.71960   1.77630
 Alpha virt. eigenvalues --    1.79002   1.80656   1.87219   1.88155   1.89558
 Alpha virt. eigenvalues --    1.91508   1.94709   1.99294   2.00454   2.03752
 Alpha virt. eigenvalues --    2.06079   2.07498   2.08844   2.14252   2.19892
 Alpha virt. eigenvalues --    2.21960   2.24024   2.24248   2.25538   2.30020
 Alpha virt. eigenvalues --    2.31188   2.33279   2.34542   2.37490   2.42345
 Alpha virt. eigenvalues --    2.42689   2.44389   2.46200   2.51500   2.51782
 Alpha virt. eigenvalues --    2.54932   2.56004   2.58550   2.61414   2.62513
 Alpha virt. eigenvalues --    2.70364   2.71536   2.74651   2.76277   2.79660
 Alpha virt. eigenvalues --    2.84365   2.87542   2.88054   2.90911   2.93344
 Alpha virt. eigenvalues --    2.96204   2.99347   3.03102   3.07667   3.11722
 Alpha virt. eigenvalues --    3.18024   3.20238   3.25684   3.27914   3.31401
 Alpha virt. eigenvalues --    3.37503   3.46416   3.59745   3.71360   3.76608
 Alpha virt. eigenvalues --    3.80485   4.06227   4.24062   4.30666   4.35732
 Alpha virt. eigenvalues --    4.38565   4.42403   4.56694   4.59398   4.68719
 Alpha virt. eigenvalues --    4.77350
          Condensed to atoms (all electrons):
               1          2          3          4          5          6
     1  N    8.728637  -0.639987   0.058469  -0.090899  -0.568071   0.018293
     2  N   -0.639987   8.129921   0.108790   0.098794  -0.630491  -0.054061
     3  C    0.058469   0.108790   5.409172   0.142417   0.062641   0.382774
     4  C   -0.090899   0.098794   0.142417   5.440199   0.206726  -0.003308
     5  N   -0.568071  -0.630491   0.062641   0.206726   8.207370  -0.010352
     6  H    0.018293  -0.054061   0.382774  -0.003308  -0.010352   0.479225
     7  H    0.007361  -0.010392  -0.009947   0.386475  -0.050524   0.000659
     8  H   -0.020227   0.120076  -0.001507  -0.002710   0.002246  -0.000496
     9  C   -0.027902   0.085736  -0.031674   0.003010  -0.055922   0.000222
    10  O   -0.026624  -0.025165   0.001681  -0.003789  -0.003337   0.000030
    11  O   -0.226646   0.105073   0.007505  -0.010244  -0.090660   0.000200
    12  O   -0.055902   0.047889   0.000652   0.000355  -0.015658   0.000014
    13  H    0.008182  -0.007637  -0.001400   0.000742   0.001440  -0.000001
    14  H    0.000967  -0.000923   0.000141  -0.000020   0.000271   0.000000
    15  O    0.018180  -0.102036  -0.000424  -0.002313   0.023249  -0.000140
    16  H    0.006409  -0.003042   0.000970  -0.000741   0.001131   0.000000
    17  H   -0.007225   0.012191  -0.000580   0.000992  -0.001357  -0.000010
               7          8          9         10         11         12
     1  N    0.007361  -0.020227  -0.027902  -0.026624  -0.226646  -0.055902
     2  N   -0.010392   0.120076   0.085736  -0.025165   0.105073   0.047889
     3  C   -0.009947  -0.001507  -0.031674   0.001681   0.007505   0.000652
     4  C    0.386475  -0.002710   0.003010  -0.003789  -0.010244   0.000355
     5  N   -0.050524   0.002246  -0.055922  -0.003337  -0.090660  -0.015658
     6  H    0.000659  -0.000496   0.000222   0.000030   0.000200   0.000014
     7  H    0.490620  -0.000020   0.000703  -0.000032   0.000047  -0.000000
     8  H   -0.000020   0.222035  -0.001901   0.000275   0.001695   0.009311
     9  C    0.000703  -0.001901   4.457603   0.485350   0.346910  -0.011465
    10  O   -0.000032   0.000275   0.485350   8.141359  -0.131088  -0.002893
    11  O    0.000047   0.001695   0.346910  -0.131088   8.711825  -0.033006
    12  O   -0.000000   0.009311  -0.011465  -0.002893  -0.033006   8.485205
    13  H   -0.000000  -0.001234   0.003433  -0.001433   0.062879   0.174131
    14  H    0.000000  -0.000235   0.000337   0.000066  -0.000846   0.278433
    15  O    0.000010   0.143661  -0.010720  -0.000633  -0.026773  -0.163793
    16  H    0.000000  -0.000816  -0.001935   0.000142   0.001482   0.128389
    17  H   -0.000000  -0.010406   0.001265  -0.000034  -0.001911   0.011071
              13         14         15         16         17
     1  N    0.008182   0.000967   0.018180   0.006409  -0.007225
     2  N   -0.007637  -0.000923  -0.102036  -0.003042   0.012191
     3  C   -0.001400   0.000141  -0.000424   0.000970  -0.000580
     4  C    0.000742  -0.000020  -0.002313  -0.000741   0.000992
     5  N    0.001440   0.000271   0.023249   0.001131  -0.001357
     6  H   -0.000001   0.000000  -0.000140   0.000000  -0.000010
     7  H   -0.000000   0.000000   0.000010   0.000000  -0.000000
     8  H   -0.001234  -0.000235   0.143661  -0.000816  -0.010406
     9  C    0.003433   0.000337  -0.010720  -0.001935   0.001265
    10  O   -0.001433   0.000066  -0.000633   0.000142  -0.000034
    11  O    0.062879  -0.000846  -0.026773   0.001482  -0.001911
    12  O    0.174131   0.278433  -0.163793   0.128389   0.011071
    13  H    0.223301  -0.009469   0.012262  -0.005743  -0.000375
    14  H   -0.009469   0.309761   0.009785  -0.012097  -0.000177
    15  O    0.012262   0.009785   8.530447   0.131498   0.274483
    16  H   -0.005743  -0.012097   0.131498   0.201227  -0.010837
    17  H   -0.000375  -0.000177   0.274483  -0.010837   0.299384
 Mulliken charges:
               1
     1  N   -0.183016
     2  N   -0.234734
     3  C   -0.129677
     4  C   -0.165686
     5  N   -0.078700
     6  H    0.186949
     7  H    0.185042
     8  H    0.540255
     9  C    0.756951
    10  O   -0.433876
    11  O   -0.716444
    12  O   -0.852733
    13  H    0.540921
    14  H    0.424007
    15  O   -0.836743
    16  H    0.563960
    17  H    0.433525
 Sum of Mulliken charges =  -0.00000
 Mulliken charges with hydrogens summed into heavy atoms:
               1
     1  N   -0.183016
     2  N   -0.234734
     3  C    0.057272
     4  C    0.019356
     5  N   -0.078700
     9  C    0.756951
    10  O   -0.433876
    11  O   -0.716444
    12  O    0.112194
    15  O    0.700998
 APT charges:
               1
     1  N   -0.824568
     2  N   -0.343981
     3  C   -0.418152
     4  C   -0.421155
     5  N    0.117948
     6  H    0.652004
     7  H    0.856976
     8  H    0.290305
     9  C    0.182297
    10  O   -0.048231
    11  O   -0.511480
    12  O   -0.802667
    13  H    0.197850
    14  H    0.759859
    15  O   -0.867792
    16  H    0.440470
    17  H    0.740318
 Sum of APT charges =  -0.00000
 APT charges with hydrogens summed into heavy atoms:
               1
     1  N   -0.824568
     2  N   -0.343981
     3  C    0.233852
     4  C    0.435820
     5  N    0.117948
     9  C    0.182297
    10  O   -0.048231
    11  O   -0.511480
    12  O    0.155042
    15  O    0.603301
 Electronic spatial extent (au):  <R**2>=           1638.2818
 Charge=              0.0000 electrons
 Dipole moment (field-independent basis, Debye):
    X=             -1.8214    Y=             -7.0699    Z=              0.8843  Tot=              7.3541
 Quadrupole moment (field-independent basis, Debye-Ang):
   XX=            -48.6312   YY=            -65.1855   ZZ=            -55.0349
   XY=             -4.0132   XZ=             -3.9832   YZ=              3.9291
 Traceless Quadrupole moment (field-independent basis, Debye-Ang):
   XX=              7.6526   YY=             -8.9016   ZZ=              1.2490
   XY=             -4.0132   XZ=             -3.9832   YZ=              3.9291
 Octapole moment (field-independent basis, Debye-Ang**2):
  XXX=            -20.9983  YYY=            -47.2700  ZZZ=              2.5394  XYY=            -12.4459
  XXY=            -21.5336  XXZ=             19.4350  XZZ=            -25.1139  YZZ=             -2.6913
  YYZ=            -10.3723  XYZ=            -13.5195
 Hexadecapole moment (field-independent basis, Debye-Ang**3):
 XXXX=          -1128.3404 YYYY=           -745.5068 ZZZZ=            -75.9623 XXXY=            -22.8243
 XXXZ=            -54.2983 YYYX=             -9.8613 YYYZ=             18.1981 ZZZX=            -20.0000
 ZZZY=             10.6492 XXYY=           -306.7359 XXZZ=           -183.8333 YYZZ=           -121.2203
 XXYZ=             21.3289 YYXZ=             15.0588 ZZXY=             17.1513
 N-N= 5.643777016401D+02 E-N=-2.495768148637D+03  KE= 5.787302176844D+02
  Exact polarizability:   0.000   0.000   0.000   0.000   0.000   0.000
 Approx polarizability: 106.877   2.458 108.571   5.603   3.919  63.291
 Calling FoFJK, ICntrl=    100147 FMM=F ISym2X=0 I1Cent= 0 IOpClX= 0 NMat=1 NMatS=1 NMatT=0.
 ***** Axes restored to original set *****
 -------------------------------------------------------------------
 Center     Atomic                   Forces (Hartrees/Bohr)
 Number     Number              X              Y              Z
 -------------------------------------------------------------------
      1        7          -0.000022193    0.000018122    0.000084880
      2        7           0.000022504    0.000009165   -0.000061513
      3        6          -0.000016067    0.000024058    0.000011175
      4        6          -0.000007571    0.000002700   -0.000021341
      5        7           0.000004554   -0.000013214   -0.000023796
      6        1           0.000001826   -0.000013103   -0.000003654
      7        1           0.000004755   -0.000004730    0.000006850
      8        1           0.000017460    0.000011729    0.000061472
      9        6           0.000018515   -0.000033697    0.000001662
     10        8          -0.000001845    0.000023799   -0.000009808
     11        8          -0.000031823   -0.000005976   -0.000002170
     12        8          -0.000103896   -0.000013252    0.000117623
     13        1           0.000048804    0.000017224   -0.000037279
     14        1           0.000052166   -0.000000785   -0.000041098
     15        8          -0.000039807   -0.000072913   -0.000080828
     16        1           0.000046596   -0.000014389    0.000005578
     17        1           0.000006023    0.000065264   -0.000007752
 -------------------------------------------------------------------
 Cartesian Forces:  Max     0.000117623 RMS     0.000038559
 FormGI is forming the generalized inverse of G from B-inverse, IUseBI=4.

 GradGradGradGradGradGradGradGradGradGradGradGradGradGradGradGradGradGrad
 Berny optimization.
 Internal  Forces:  Max     0.000048363 RMS     0.000016861
 Search for a saddle point.
 Step number   1 out of a maximum of  102
 All quantities printed in internal units (Hartrees-Bohrs-Radians)
 Swapping is turned off.
 Second derivative matrix not updated -- analytic derivatives used.
 ITU=  0
     Eigenvalues ---   -0.01025   0.00108   0.00236   0.00303   0.00502
     Eigenvalues ---    0.00764   0.00872   0.01429   0.01501   0.01975
     Eigenvalues ---    0.02544   0.02695   0.03183   0.03653   0.04230
     Eigenvalues ---    0.04514   0.04979   0.05469   0.06311   0.06674
     Eigenvalues ---    0.07052   0.07391   0.08385   0.10277   0.10417
     Eigenvalues ---    0.10814   0.11837   0.22174   0.23343   0.26130
     Eigenvalues ---    0.26739   0.28685   0.31358   0.33104   0.37278
     Eigenvalues ---    0.38291   0.39049   0.42418   0.46429   0.52460
     Eigenvalues ---    0.54573   0.55581   0.61828   0.64045   0.95168
 Eigenvectors required to have negative eigenvalues:
                          R16       R17       R13       R5        R10
   1                    0.53931  -0.45624   0.41625  -0.41136   0.18119
                          R14       A20       A21       R3        A17
   1                   -0.16652   0.11724  -0.10441   0.09247   0.09193
 RFO step:  Lambda0=3.691272728D-09 Lambda=-1.19640168D-06.
 Linear search not attempted -- option 19 set.
 Iteration  1 RMS(Cart)=  0.00348564 RMS(Int)=  0.00000787
 Iteration  2 RMS(Cart)=  0.00000860 RMS(Int)=  0.00000109
 Iteration  3 RMS(Cart)=  0.00000000 RMS(Int)=  0.00000109
 Variable       Old X    -DE/DX   Delta X   Delta X   Delta X     New X
                                 (Linear)    (Quad)   (Total)
    R1        2.51137   0.00001   0.00000  -0.00003  -0.00003   2.51134
    R2        2.47166  -0.00001   0.00000  -0.00009  -0.00009   2.47157
    R3        2.90310   0.00001   0.00000   0.00037   0.00037   2.90348
    R4        2.51581   0.00002   0.00000   0.00009   0.00009   2.51590
    R5        2.82432   0.00000   0.00000  -0.00085  -0.00085   2.82347
    R6        2.64519   0.00001   0.00000  -0.00004  -0.00004   2.64515
    R7        2.03982  -0.00001   0.00000  -0.00004  -0.00004   2.03979
    R8        2.51817   0.00000   0.00000   0.00006   0.00006   2.51823
    R9        2.03826  -0.00000   0.00000  -0.00001  -0.00001   2.03825
   R10        2.01887  -0.00002   0.00000   0.00032   0.00032   2.01919
   R11        2.26867  -0.00002   0.00000  -0.00001  -0.00001   2.26866
   R12        2.37437  -0.00001   0.00000  -0.00020  -0.00020   2.37417
   R13        2.68261   0.00002   0.00000   0.00121   0.00121   2.68383
   R14        1.97863  -0.00002   0.00000  -0.00060  -0.00060   1.97803
   R15        1.82058  -0.00003   0.00000  -0.00013  -0.00013   1.82045
   R16        2.34938  -0.00000   0.00000   0.00047   0.00047   2.34985
   R17        2.19815   0.00004   0.00000  -0.00066  -0.00066   2.19748
   R18        1.82571   0.00003   0.00000  -0.00006  -0.00006   1.82566
    A1        1.99113   0.00002   0.00000   0.00005   0.00005   1.99117
    A2        2.13243  -0.00000   0.00000   0.00004   0.00004   2.13247
    A3        2.15858  -0.00001   0.00000   0.00001   0.00001   2.15859
    A4        1.83772  -0.00001   0.00000  -0.00003  -0.00003   1.83769
    A5        2.17226  -0.00000   0.00000  -0.00042  -0.00042   2.17184
    A6        2.27015   0.00001   0.00000   0.00032   0.00032   2.27047
    A7        1.87075  -0.00000   0.00000  -0.00002  -0.00002   1.87074
    A8        2.12166   0.00000   0.00000   0.00002   0.00002   2.12168
    A9        2.29075   0.00000   0.00000  -0.00000  -0.00000   2.29075
   A10        1.89096   0.00000   0.00000  -0.00000  -0.00000   1.89096
   A11        2.27429   0.00000   0.00000   0.00005   0.00005   2.27433
   A12        2.11794  -0.00001   0.00000  -0.00004  -0.00004   2.11789
   A13        1.83417  -0.00000   0.00000  -0.00000  -0.00000   1.83417
   A14        2.00638  -0.00001   0.00000  -0.00013  -0.00013   2.00625
   A15        1.90856  -0.00000   0.00000  -0.00017  -0.00017   1.90839
   A16        2.36824   0.00001   0.00000   0.00030   0.00030   2.36853
   A17        2.35006   0.00000   0.00000   0.00132   0.00132   2.35138
   A18        1.94009   0.00003   0.00000   0.00107   0.00106   1.94115
   A19        1.66497   0.00000   0.00000   0.00067   0.00067   1.66564
   A20        2.05504   0.00005   0.00000   0.00221   0.00221   2.05725
   A21        2.68440   0.00000   0.00000  -0.00083  -0.00083   2.68357
   A22        1.88623   0.00001   0.00000   0.00143   0.00143   1.88766
   A23        1.89185   0.00002   0.00000   0.00125   0.00125   1.89310
   A24        1.90989   0.00003   0.00000   0.00191   0.00191   1.91180
   A25        3.20468  -0.00001   0.00000   0.00042   0.00042   3.20510
   A26        2.97853  -0.00003   0.00000  -0.00037  -0.00037   2.97816
   A27        3.19965  -0.00003   0.00000  -0.00054  -0.00054   3.19911
   A28        3.25786   0.00000   0.00000  -0.00071  -0.00071   3.25715
    D1       -0.00402   0.00001   0.00000   0.00049   0.00049  -0.00352
    D2        3.06087   0.00000   0.00000  -0.00108  -0.00108   3.05980
    D3       -3.09803  -0.00000   0.00000  -0.00178  -0.00178  -3.09981
    D4       -0.03314  -0.00001   0.00000  -0.00335  -0.00335  -0.03649
    D5        0.00827  -0.00001   0.00000  -0.00042  -0.00042   0.00786
    D6        3.10147   0.00001   0.00000   0.00190   0.00190   3.10337
    D7        2.90490   0.00002   0.00000   0.00035   0.00035   2.90525
    D8       -0.23995   0.00001   0.00000   0.00022   0.00022  -0.23972
    D9       -0.18449  -0.00000   0.00000  -0.00214  -0.00214  -0.18663
   D10        2.95385  -0.00001   0.00000  -0.00227  -0.00227   2.95158
   D11       -0.00184  -0.00001   0.00000  -0.00035  -0.00035  -0.00219
   D12        3.13394  -0.00001   0.00000  -0.00028  -0.00028   3.13366
   D13       -3.06078   0.00000   0.00000   0.00139   0.00139  -3.05939
   D14        0.07500   0.00001   0.00000   0.00146   0.00146   0.07646
   D15       -0.33340  -0.00002   0.00000   0.00653   0.00653  -0.32687
   D16        1.76375   0.00003   0.00000   0.01051   0.01051   1.77426
   D17        2.67208  -0.00001   0.00000   0.00476   0.00476   2.67684
   D18       -1.51396   0.00003   0.00000   0.00873   0.00873  -1.50522
   D19        0.00687   0.00001   0.00000   0.00012   0.00012   0.00699
   D20       -3.13520  -0.00000   0.00000  -0.00007  -0.00007  -3.13527
   D21       -3.12814   0.00000   0.00000   0.00004   0.00004  -3.12810
   D22        0.01298  -0.00001   0.00000  -0.00015  -0.00015   0.01283
   D23       -0.00893   0.00000   0.00000   0.00017   0.00017  -0.00876
   D24        3.13309   0.00001   0.00000   0.00034   0.00034   3.13342
   D25        1.81229   0.00001   0.00000   0.00242   0.00242   1.81471
   D26       -1.33352  -0.00000   0.00000   0.00225   0.00225  -1.33127
   D27       -2.01296   0.00001   0.00000   0.00136   0.00136  -2.01159
   D28        2.31061   0.00003   0.00000   0.00270   0.00270   2.31331
   D29        0.17178  -0.00003   0.00000  -0.00053  -0.00053   0.17124
   D30        0.38465   0.00004   0.00000  -0.00328  -0.00328   0.38137
   D31       -1.62022   0.00000   0.00000  -0.00639  -0.00639  -1.62661
   D32       -1.62406  -0.00000   0.00000  -0.00565  -0.00565  -1.62972
   D33        2.65425  -0.00004   0.00000  -0.00876  -0.00876   2.64549
         Item               Value     Threshold  Converged?
 Maximum Force            0.000048     0.000450     YES
 RMS     Force            0.000017     0.000300     YES
 Maximum Displacement     0.013592     0.001800     NO 
 RMS     Displacement     0.003486     0.001200     NO 
 Predicted change in Energy=-5.963549D-07
 GradGradGradGradGradGradGradGradGradGradGradGradGradGradGradGradGradGrad

                          Input orientation:                          
 ---------------------------------------------------------------------
 Center     Atomic      Atomic             Coordinates (Angstroms)
 Number     Number       Type             X           Y           Z
 ---------------------------------------------------------------------
      1          7           0       -0.935146   -0.331746   -0.063829
      2          7           0       -0.602683    0.954794   -0.083193
      3          6           0       -1.746950    1.615640    0.079454
      4          6           0       -2.763858    0.660364    0.191939
      5          7           0       -2.213695   -0.550173    0.104100
      6          1           0       -1.776958    2.694167    0.111099
      7          1           0       -3.826581    0.785204    0.327586
      8          1           0        0.799873    1.463963   -0.160470
      9          6           0        0.113741   -1.449654   -0.167786
     10          8           0       -0.285034   -2.546121    0.115051
     11          8           0        1.207578   -0.960190   -0.545111
     12          8           0        3.173803    0.019622    0.431269
     13          1           0        2.433666   -0.640436    0.096363
     14          1           0        3.416546   -0.163437    1.345376
     15          8           0        1.783175    1.881822   -0.145409
     16          1           0        2.523571    1.053654    0.198376
     17          1           0        2.008861    2.165519   -1.040911
 ---------------------------------------------------------------------
                    Distance matrix (angstroms):
                    1          2          3          4          5
     1  N    0.000000
     2  N    1.328944   0.000000
     3  C    2.114679   1.331360   0.000000
     4  C    2.096161   2.198424   1.399753   0.000000
     5  N    1.307898   2.212547   2.215672   1.332590   0.000000
     6  H    3.145695   2.107627   1.079409   2.262048   3.273612
     7  H    3.124289   3.254384   2.253011   1.078593   2.105844
     8  H    2.498840   1.494118   2.562592   3.670170   3.634327
     9  C    1.536453   2.510337   3.594346   3.586385   2.509969
    10  O    2.314757   3.520882   4.411204   4.053644   2.775547
    11  O    2.284259   2.675365   3.969158   4.352212   3.506380
    12  O    4.153557   3.924418   5.185061   5.976926   5.427415
    13  H    3.386716   3.434591   4.750549   5.358682   4.648244
    14  H    4.577270   4.409699   5.606190   6.340856   5.778403
    15  O    3.506538   2.560384   3.547281   4.720305   4.685277
    16  H    3.735078   3.140465   4.308982   5.302040   5.002283
    17  H    3.982236   3.033684   3.957740   5.154053   5.149370
                    6          7          8          9         10
     6  H    0.000000
     7  H    2.809263   0.000000
     8  H    2.868312   4.701382   0.000000
     9  C    4.563307   4.556986   2.993325   0.000000
    10  O    5.448529   4.866770   4.163376   1.200524   0.000000
    11  O    4.763654   5.399144   2.488109   1.256356   2.275715
    12  O    5.636110   7.042885   2.841094   3.446972   4.318168
    13  H    5.371141   6.424687   2.676516   2.471166   3.320137
    14  H    6.054901   7.375547   3.429719   3.853898   4.570839
    15  O    3.660635   5.735473   1.068511   3.726425   4.894078
    16  H    4.603635   6.357137   1.807832   3.493981   4.566572
    17  H    3.992371   6.150645   1.651971   4.174123   5.366354
                   11         12         13         14         15
    11  O    0.000000
    12  O    2.404035   0.000000
    13  H    1.420219   1.046728   0.000000
    14  H    3.014680   0.963342   1.659402   0.000000
    15  O    2.927133   2.394617   2.615986   3.012212   0.000000
    16  H    2.517970   1.243488   1.699538   1.895870   1.162857
    17  H    3.264648   2.851188   3.057325   3.619389   0.966096
                   16         17
    16  H    0.000000
    17  H    1.742699   0.000000
 Stoichiometry    C3H7N3O4
 Framework group  C1[X(C3H7N3O4)]
 Deg. of freedom    45
 Full point group                 C1      NOp   1
 Largest Abelian subgroup         C1      NOp   1
 Largest concise Abelian subgroup C1      NOp   1
                         Standard orientation:                         
 ---------------------------------------------------------------------
 Center     Atomic      Atomic             Coordinates (Angstroms)
 Number     Number       Type             X           Y           Z
 ---------------------------------------------------------------------
      1          7           0        0.934636    0.331995   -0.064532
      2          7           0        0.602797   -0.954720   -0.082982
      3          6           0        1.747363   -1.614891    0.080303
      4          6           0        2.763795   -0.659040    0.192209
      5          7           0        2.213057    0.551165    0.103399
      6          1           0        1.777888   -2.693380    0.112753
      7          1           0        3.826560   -0.783265    0.328085
      8          1           0       -0.799503   -1.464624   -0.160061
      9          6           0       -0.114778    1.449318   -0.169455
     10          8           0        0.283430    2.546188    0.112618
     11          8           0       -1.208330    0.959045   -0.546557
     12          8           0       -3.174206   -0.020991    0.430297
     13          1           0       -2.434346    0.639176    0.094997
     14          1           0       -3.417156    0.162630    1.344237
     15          8           0       -1.782604   -1.882947   -0.144816
     16          1           0       -2.523445   -1.054881    0.198257
     17          1           0       -2.008038   -2.167419   -1.040136
 ---------------------------------------------------------------------
 Rotational constants (GHZ):           1.7797405           0.9906863           0.6571613
 Standard basis: 6-31+G(d,p) (6D, 7F)
 There are   225 symmetry adapted cartesian basis functions of A   symmetry.
 There are   225 symmetry adapted basis functions of A   symmetry.
   225 basis functions,   369 primitive gaussians,   225 cartesian basis functions
    39 alpha electrons       39 beta electrons
       nuclear repulsion energy       564.3460410978 Hartrees.
 NAtoms=   17 NActive=   17 NUniq=   17 SFac= 1.00D+00 NAtFMM=   60 NAOKFM=F Big=F
 Integral buffers will be    131072 words long.
 Raffenetti 2 integral format.
 Two-electron integral symmetry is turned on.
 One-electron integrals computed using PRISM.
 NBasis=   225 RedAO= T EigKep=  2.27D-05  NBF=   225
 NBsUse=   225 1.00D-06 EigRej= -1.00D+00 NBFU=   225
 Initial guess from the checkpoint file:  "/scratch/gongke2021/TS-2/Gau-17024.chk"
 B after Tr=    -0.000000    0.000000    0.000000
         Rot=    1.000000    0.000101    0.000076   -0.000190 Ang=   0.03 deg.
 Requested convergence on RMS density matrix=1.00D-08 within 128 cycles.
 Requested convergence on MAX density matrix=1.00D-06.
 Requested convergence on             energy=1.00D-06.
 No special actions if energy rises.
 SCF Done:  E(RM062X) =  -583.462976382     A.U. after    9 cycles
            NFock=  9  Conv=0.95D-08     -V/T= 2.0082
 Calling FoFJK, ICntrl=      2127 FMM=F ISym2X=0 I1Cent= 0 IOpClX= 0 NMat=1 NMatS=1 NMatT=0.
 ***** Axes restored to original set *****
 -------------------------------------------------------------------
 Center     Atomic                   Forces (Hartrees/Bohr)
 Number     Number              X              Y              Z
 -------------------------------------------------------------------
      1        7          -0.000000044    0.000000698    0.000000350
      2        7          -0.000000076    0.000000138   -0.000000693
      3        6           0.000000909    0.000000967   -0.000001523
      4        6          -0.000000757    0.000000814   -0.000000731
      5        7          -0.000000324    0.000000709   -0.000000164
      6        1           0.000000618    0.000000284   -0.000002573
      7        1           0.000000154    0.000001394   -0.000001322
      8        1           0.000000161   -0.000000366   -0.000000588
      9        6          -0.000001317   -0.000000320    0.000001446
     10        8          -0.000000517    0.000000164    0.000002223
     11        8           0.000000178   -0.000000675    0.000001542
     12        8          -0.000000656   -0.000000272    0.000001100
     13        1          -0.000000247   -0.000000904    0.000001325
     14        1          -0.000000209    0.000000286    0.000001594
     15        8           0.000000815   -0.000001336   -0.000000762
     16        1           0.000000632   -0.000000615    0.000000039
     17        1           0.000000678   -0.000000968   -0.000001263
 -------------------------------------------------------------------
 Cartesian Forces:  Max     0.000002573 RMS     0.000000937

 GradGradGradGradGradGradGradGradGradGradGradGradGradGradGradGradGradGrad
 Berny optimization.
 FormGI is forming the generalized inverse of G from B-inverse, IUseBI=4.
 Internal  Forces:  Max     0.000000511 RMS     0.000000203
 Search for a saddle point.
 Step number   2 out of a maximum of  102
 All quantities printed in internal units (Hartrees-Bohrs-Radians)
 Swapping is turned off.
 Update second derivatives using D2CorX and points    1    2
 ITU=  0  0
     Eigenvalues ---   -0.01025   0.00108   0.00236   0.00303   0.00502
     Eigenvalues ---    0.00764   0.00872   0.01429   0.01501   0.01975
     Eigenvalues ---    0.02543   0.02695   0.03183   0.03653   0.04229
     Eigenvalues ---    0.04514   0.04979   0.05469   0.06311   0.06674
     Eigenvalues ---    0.07052   0.07391   0.08385   0.10277   0.10417
     Eigenvalues ---    0.10814   0.11837   0.22174   0.23343   0.26130
     Eigenvalues ---    0.26739   0.28685   0.31358   0.33104   0.37278
     Eigenvalues ---    0.38291   0.39049   0.42418   0.46429   0.52460
     Eigenvalues ---    0.54573   0.55581   0.61827   0.64045   0.95168
 Eigenvectors required to have negative eigenvalues:
                          R16       R17       R13       R5        R10
   1                    0.53930  -0.45622   0.41625  -0.41134   0.18118
                          R14       A20       A21       R3        A17
   1                   -0.16649   0.11728  -0.10436   0.09245   0.09191
 RFO step:  Lambda0=1.919607702D-12 Lambda= 0.00000000D+00.
 Linear search not attempted -- option 19 set.
 Iteration  1 RMS(Cart)=  0.00001913 RMS(Int)=  0.00000000
 Iteration  2 RMS(Cart)=  0.00000000 RMS(Int)=  0.00000000
 Variable       Old X    -DE/DX   Delta X   Delta X   Delta X     New X
                                 (Linear)    (Quad)   (Total)
    R1        2.51134  -0.00000   0.00000  -0.00000  -0.00000   2.51134
    R2        2.47157   0.00000   0.00000   0.00000   0.00000   2.47157
    R3        2.90348   0.00000   0.00000   0.00000   0.00000   2.90348
    R4        2.51590  -0.00000   0.00000  -0.00000  -0.00000   2.51590
    R5        2.82347   0.00000   0.00000  -0.00000  -0.00000   2.82347
    R6        2.64515   0.00000   0.00000   0.00000   0.00000   2.64515
    R7        2.03979  -0.00000   0.00000  -0.00000  -0.00000   2.03979
    R8        2.51823   0.00000   0.00000   0.00000   0.00000   2.51823
    R9        2.03825  -0.00000   0.00000  -0.00000  -0.00000   2.03825
   R10        2.01919   0.00000   0.00000   0.00000   0.00000   2.01919
   R11        2.26866  -0.00000   0.00000  -0.00000  -0.00000   2.26866
   R12        2.37417   0.00000   0.00000  -0.00000  -0.00000   2.37417
   R13        2.68383   0.00000   0.00000   0.00001   0.00001   2.68384
   R14        1.97803   0.00000   0.00000  -0.00000  -0.00000   1.97803
   R15        1.82045   0.00000   0.00000   0.00000   0.00000   1.82045
   R16        2.34985  -0.00000   0.00000   0.00000   0.00000   2.34985
   R17        2.19748   0.00000   0.00000  -0.00000  -0.00000   2.19748
   R18        1.82566   0.00000   0.00000   0.00000   0.00000   1.82566
    A1        1.99117   0.00000   0.00000   0.00000   0.00000   1.99117
    A2        2.13247  -0.00000   0.00000  -0.00000  -0.00000   2.13247
    A3        2.15859  -0.00000   0.00000   0.00000   0.00000   2.15859
    A4        1.83769   0.00000   0.00000   0.00000   0.00000   1.83769
    A5        2.17184  -0.00000   0.00000  -0.00000  -0.00000   2.17183
    A6        2.27047   0.00000   0.00000   0.00000   0.00000   2.27047
    A7        1.87074   0.00000   0.00000   0.00000   0.00000   1.87074
    A8        2.12168  -0.00000   0.00000   0.00000   0.00000   2.12168
    A9        2.29075  -0.00000   0.00000  -0.00000  -0.00000   2.29075
   A10        1.89096  -0.00000   0.00000  -0.00000  -0.00000   1.89096
   A11        2.27433   0.00000   0.00000   0.00000   0.00000   2.27433
   A12        2.11789   0.00000   0.00000   0.00000   0.00000   2.11789
   A13        1.83417   0.00000   0.00000   0.00000   0.00000   1.83417
   A14        2.00625   0.00000   0.00000   0.00000   0.00000   2.00625
   A15        1.90839   0.00000   0.00000  -0.00000  -0.00000   1.90839
   A16        2.36853  -0.00000   0.00000   0.00000   0.00000   2.36853
   A17        2.35138   0.00000   0.00000   0.00004   0.00004   2.35142
   A18        1.94115   0.00000   0.00000   0.00001   0.00001   1.94116
   A19        1.66564  -0.00000   0.00000   0.00000   0.00000   1.66564
   A20        2.05725  -0.00000   0.00000  -0.00000  -0.00000   2.05725
   A21        2.68357  -0.00000   0.00000  -0.00002  -0.00002   2.68356
   A22        1.88766   0.00000   0.00000   0.00001   0.00001   1.88767
   A23        1.89310  -0.00000   0.00000   0.00000   0.00000   1.89310
   A24        1.91180   0.00000   0.00000   0.00001   0.00001   1.91181
   A25        3.20510  -0.00000   0.00000   0.00001   0.00001   3.20510
   A26        2.97816  -0.00000   0.00000  -0.00000  -0.00000   2.97815
   A27        3.19911  -0.00000   0.00000  -0.00001  -0.00001   3.19910
   A28        3.25715  -0.00000   0.00000  -0.00002  -0.00002   3.25713
    D1       -0.00352   0.00000   0.00000   0.00000   0.00000  -0.00352
    D2        3.05980   0.00000   0.00000   0.00001   0.00001   3.05980
    D3       -3.09981   0.00000   0.00000   0.00000   0.00000  -3.09981
    D4       -0.03649   0.00000   0.00000   0.00001   0.00001  -0.03648
    D5        0.00786  -0.00000   0.00000  -0.00000  -0.00000   0.00785
    D6        3.10337  -0.00000   0.00000  -0.00000  -0.00000   3.10337
    D7        2.90525   0.00000   0.00000   0.00002   0.00002   2.90527
    D8       -0.23972   0.00000   0.00000   0.00002   0.00002  -0.23970
    D9       -0.18663   0.00000   0.00000   0.00002   0.00002  -0.18661
   D10        2.95158   0.00000   0.00000   0.00002   0.00002   2.95160
   D11       -0.00219  -0.00000   0.00000   0.00000   0.00000  -0.00219
   D12        3.13366   0.00000   0.00000   0.00000   0.00000   3.13366
   D13       -3.05939   0.00000   0.00000  -0.00001  -0.00001  -3.05940
   D14        0.07646   0.00000   0.00000  -0.00000  -0.00000   0.07646
   D15       -0.32687  -0.00000   0.00000   0.00001   0.00001  -0.32686
   D16        1.77426   0.00000   0.00000   0.00003   0.00003   1.77429
   D17        2.67684  -0.00000   0.00000   0.00002   0.00002   2.67686
   D18       -1.50522   0.00000   0.00000   0.00005   0.00005  -1.50518
   D19        0.00699  -0.00000   0.00000  -0.00000  -0.00000   0.00699
   D20       -3.13527  -0.00000   0.00000  -0.00000  -0.00000  -3.13527
   D21       -3.12810  -0.00000   0.00000  -0.00000  -0.00000  -3.12810
   D22        0.01283  -0.00000   0.00000  -0.00001  -0.00001   0.01283
   D23       -0.00876   0.00000   0.00000   0.00000   0.00000  -0.00876
   D24        3.13342   0.00000   0.00000   0.00000   0.00000   3.13342
   D25        1.81471  -0.00000   0.00000   0.00001   0.00001   1.81472
   D26       -1.33127   0.00000   0.00000   0.00001   0.00001  -1.33126
   D27       -2.01159  -0.00000   0.00000  -0.00004  -0.00004  -2.01163
   D28        2.31331   0.00000   0.00000   0.00002   0.00002   2.31332
   D29        0.17124  -0.00000   0.00000   0.00001   0.00001   0.17126
   D30        0.38137   0.00000   0.00000  -0.00002  -0.00002   0.38134
   D31       -1.62661   0.00000   0.00000  -0.00004  -0.00004  -1.62665
   D32       -1.62972  -0.00000   0.00000  -0.00003  -0.00003  -1.62974
   D33        2.64549  -0.00000   0.00000  -0.00005  -0.00005   2.64544
         Item               Value     Threshold  Converged?
 Maximum Force            0.000001     0.000450     YES
 RMS     Force            0.000000     0.000300     YES
 Maximum Displacement     0.000083     0.001800     YES
 RMS     Displacement     0.000019     0.001200     YES
 Predicted change in Energy=-3.901871D-11
 Optimization completed.
    -- Stationary point found.
                           ----------------------------
                           !   Optimized Parameters   !
                           ! (Angstroms and Degrees)  !
 --------------------------                            --------------------------
 ! Name  Definition              Value          Derivative Info.                !
 --------------------------------------------------------------------------------
 ! R1    R(1,2)                  1.3289         -DE/DX =    0.0                 !
 ! R2    R(1,5)                  1.3079         -DE/DX =    0.0                 !
 ! R3    R(1,9)                  1.5365         -DE/DX =    0.0                 !
 ! R4    R(2,3)                  1.3314         -DE/DX =    0.0                 !
 ! R5    R(2,8)                  1.4941         -DE/DX =    0.0                 !
 ! R6    R(3,4)                  1.3998         -DE/DX =    0.0                 !
 ! R7    R(3,6)                  1.0794         -DE/DX =    0.0                 !
 ! R8    R(4,5)                  1.3326         -DE/DX =    0.0                 !
 ! R9    R(4,7)                  1.0786         -DE/DX =    0.0                 !
 ! R10   R(8,15)                 1.0685         -DE/DX =    0.0                 !
 ! R11   R(9,10)                 1.2005         -DE/DX =    0.0                 !
 ! R12   R(9,11)                 1.2564         -DE/DX =    0.0                 !
 ! R13   R(11,13)                1.4202         -DE/DX =    0.0                 !
 ! R14   R(12,13)                1.0467         -DE/DX =    0.0                 !
 ! R15   R(12,14)                0.9633         -DE/DX =    0.0                 !
 ! R16   R(12,16)                1.2435         -DE/DX =    0.0                 !
 ! R17   R(15,16)                1.1629         -DE/DX =    0.0                 !
 ! R18   R(15,17)                0.9661         -DE/DX =    0.0                 !
 ! A1    A(2,1,5)              114.0859         -DE/DX =    0.0                 !
 ! A2    A(2,1,9)              122.1816         -DE/DX =    0.0                 !
 ! A3    A(5,1,9)              123.6779         -DE/DX =    0.0                 !
 ! A4    A(1,2,3)              105.2918         -DE/DX =    0.0                 !
 ! A5    A(1,2,8)              124.4371         -DE/DX =    0.0                 !
 ! A6    A(3,2,8)              130.0884         -DE/DX =    0.0                 !
 ! A7    A(2,3,4)              107.1854         -DE/DX =    0.0                 !
 ! A8    A(2,3,6)              121.5632         -DE/DX =    0.0                 !
 ! A9    A(4,3,6)              131.2504         -DE/DX =    0.0                 !
 ! A10   A(3,4,5)              108.3441         -DE/DX =    0.0                 !
 ! A11   A(3,4,7)              130.3096         -DE/DX =    0.0                 !
 ! A12   A(5,4,7)              121.3463         -DE/DX =    0.0                 !
 ! A13   A(1,5,4)              105.0903         -DE/DX =    0.0                 !
 ! A14   A(1,9,10)             114.9498         -DE/DX =    0.0                 !
 ! A15   A(1,9,11)             109.3427         -DE/DX =    0.0                 !
 ! A16   A(10,9,11)            135.707          -DE/DX =    0.0                 !
 ! A17   A(9,11,13)            134.7242         -DE/DX =    0.0                 !
 ! A18   A(13,12,14)           111.2199         -DE/DX =    0.0                 !
 ! A19   A(13,12,16)            95.4342         -DE/DX =    0.0                 !
 ! A20   A(14,12,16)           117.872          -DE/DX =    0.0                 !
 ! A21   A(11,13,12)           153.7574         -DE/DX =    0.0                 !
 ! A22   A(8,15,16)            108.1548         -DE/DX =    0.0                 !
 ! A23   A(8,15,17)            108.4665         -DE/DX =    0.0                 !
 ! A24   A(16,15,17)           109.538          -DE/DX =    0.0                 !
 ! A25   L(2,8,15,11,-1)       183.6386         -DE/DX =    0.0                 !
 ! A26   L(12,16,15,1,-1)      170.636          -DE/DX =    0.0                 !
 ! A27   L(2,8,15,11,-2)       183.2955         -DE/DX =    0.0                 !
 ! A28   L(12,16,15,1,-2)      186.6207         -DE/DX =    0.0                 !
 ! D1    D(5,1,2,3)             -0.202          -DE/DX =    0.0                 !
 ! D2    D(5,1,2,8)            175.3134         -DE/DX =    0.0                 !
 ! D3    D(9,1,2,3)           -177.6061         -DE/DX =    0.0                 !
 ! D4    D(9,1,2,8)             -2.0907         -DE/DX =    0.0                 !
 ! D5    D(2,1,5,4)              0.4501         -DE/DX =    0.0                 !
 ! D6    D(9,1,5,4)            177.8099         -DE/DX =    0.0                 !
 ! D7    D(2,1,9,10)           166.4586         -DE/DX =    0.0                 !
 ! D8    D(2,1,9,11)           -13.7352         -DE/DX =    0.0                 !
 ! D9    D(5,1,9,10)           -10.6934         -DE/DX =    0.0                 !
 ! D10   D(5,1,9,11)           169.1129         -DE/DX =    0.0                 !
 ! D11   D(1,2,3,4)             -0.1256         -DE/DX =    0.0                 !
 ! D12   D(1,2,3,6)            179.5454         -DE/DX =    0.0                 !
 ! D13   D(8,2,3,4)           -175.2903         -DE/DX =    0.0                 !
 ! D14   D(8,2,3,6)              4.3808         -DE/DX =    0.0                 !
 ! D15   D(1,2,15,16)          -18.728          -DE/DX =    0.0                 !
 ! D16   D(1,2,15,17)          101.6575         -DE/DX =    0.0                 !
 ! D17   D(3,2,15,16)          153.3715         -DE/DX =    0.0                 !
 ! D18   D(3,2,15,17)          -86.2429         -DE/DX =    0.0                 !
 ! D19   D(2,3,4,5)              0.4004         -DE/DX =    0.0                 !
 ! D20   D(2,3,4,7)           -179.6375         -DE/DX =    0.0                 !
 ! D21   D(6,3,4,5)           -179.2268         -DE/DX =    0.0                 !
 ! D22   D(6,3,4,7)              0.7353         -DE/DX =    0.0                 !
 ! D23   D(3,4,5,1)             -0.502          -DE/DX =    0.0                 !
 ! D24   D(7,4,5,1)            179.5318         -DE/DX =    0.0                 !
 ! D25   D(1,9,11,13)          103.9753         -DE/DX =    0.0                 !
 ! D26   D(10,9,11,13)         -76.2763         -DE/DX =    0.0                 !
 ! D27   D(9,11,13,12)        -115.2558         -DE/DX =    0.0                 !
 ! D28   D(14,12,13,11)        132.5428         -DE/DX =    0.0                 !
 ! D29   D(16,12,13,11)          9.8115         -DE/DX =    0.0                 !
 ! D30   D(13,12,15,8)          21.8507         -DE/DX =    0.0                 !
 ! D31   D(13,12,15,17)        -93.198          -DE/DX =    0.0                 !
 ! D32   D(14,12,15,8)         -93.3758         -DE/DX =    0.0                 !
 ! D33   D(14,12,15,17)        151.5755         -DE/DX =    0.0                 !
 --------------------------------------------------------------------------------
 GradGradGradGradGradGradGradGradGradGradGradGradGradGradGradGradGradGrad

                          Input orientation:                          
 ---------------------------------------------------------------------
 Center     Atomic      Atomic             Coordinates (Angstroms)
 Number     Number       Type             X           Y           Z
 ---------------------------------------------------------------------
      1          7           0       -0.935146   -0.331746   -0.063829
      2          7           0       -0.602683    0.954794   -0.083193
      3          6           0       -1.746950    1.615640    0.079454
      4          6           0       -2.763858    0.660364    0.191939
      5          7           0       -2.213695   -0.550173    0.104100
      6          1           0       -1.776958    2.694167    0.111099
      7          1           0       -3.826581    0.785204    0.327586
      8          1           0        0.799873    1.463963   -0.160470
      9          6           0        0.113741   -1.449654   -0.167786
     10          8           0       -0.285034   -2.546121    0.115051
     11          8           0        1.207578   -0.960190   -0.545111
     12          8           0        3.173803    0.019622    0.431269
     13          1           0        2.433666   -0.640436    0.096363
     14          1           0        3.416546   -0.163437    1.345376
     15          8           0        1.783175    1.881822   -0.145409
     16          1           0        2.523571    1.053654    0.198376
     17          1           0        2.008861    2.165519   -1.040911
 ---------------------------------------------------------------------
                    Distance matrix (angstroms):
                    1          2          3          4          5
     1  N    0.000000
     2  N    1.328944   0.000000
     3  C    2.114679   1.331360   0.000000
     4  C    2.096161   2.198424   1.399753   0.000000
     5  N    1.307898   2.212547   2.215672   1.332590   0.000000
     6  H    3.145695   2.107627   1.079409   2.262048   3.273612
     7  H    3.124289   3.254384   2.253011   1.078593   2.105844
     8  H    2.498840   1.494118   2.562592   3.670170   3.634327
     9  C    1.536453   2.510337   3.594346   3.586385   2.509969
    10  O    2.314757   3.520882   4.411204   4.053644   2.775547
    11  O    2.284259   2.675365   3.969158   4.352212   3.506380
    12  O    4.153557   3.924418   5.185061   5.976926   5.427415
    13  H    3.386716   3.434591   4.750549   5.358682   4.648244
    14  H    4.577270   4.409699   5.606190   6.340856   5.778403
    15  O    3.506538   2.560384   3.547281   4.720305   4.685277
    16  H    3.735078   3.140465   4.308982   5.302040   5.002283
    17  H    3.982236   3.033684   3.957740   5.154053   5.149370
                    6          7          8          9         10
     6  H    0.000000
     7  H    2.809263   0.000000
     8  H    2.868312   4.701382   0.000000
     9  C    4.563307   4.556986   2.993325   0.000000
    10  O    5.448529   4.866770   4.163376   1.200524   0.000000
    11  O    4.763654   5.399144   2.488109   1.256356   2.275715
    12  O    5.636110   7.042885   2.841094   3.446972   4.318168
    13  H    5.371141   6.424687   2.676516   2.471166   3.320137
    14  H    6.054901   7.375547   3.429719   3.853898   4.570839
    15  O    3.660635   5.735473   1.068511   3.726425   4.894078
    16  H    4.603635   6.357137   1.807832   3.493981   4.566572
    17  H    3.992371   6.150645   1.651971   4.174123   5.366354
                   11         12         13         14         15
    11  O    0.000000
    12  O    2.404035   0.000000
    13  H    1.420219   1.046728   0.000000
    14  H    3.014680   0.963342   1.659402   0.000000
    15  O    2.927133   2.394617   2.615986   3.012212   0.000000
    16  H    2.517970   1.243488   1.699538   1.895870   1.162857
    17  H    3.264648   2.851188   3.057325   3.619389   0.966096
                   16         17
    16  H    0.000000
    17  H    1.742699   0.000000
 Stoichiometry    C3H7N3O4
 Framework group  C1[X(C3H7N3O4)]
 Deg. of freedom    45
 Full point group                 C1      NOp   1
 Largest Abelian subgroup         C1      NOp   1
 Largest concise Abelian subgroup C1      NOp   1
                         Standard orientation:                         
 ---------------------------------------------------------------------
 Center     Atomic      Atomic             Coordinates (Angstroms)
 Number     Number       Type             X           Y           Z
 ---------------------------------------------------------------------
      1          7           0        0.934636    0.331995   -0.064532
      2          7           0        0.602797   -0.954720   -0.082982
      3          6           0        1.747363   -1.614891    0.080303
      4          6           0        2.763795   -0.659040    0.192209
      5          7           0        2.213057    0.551165    0.103399
      6          1           0        1.777888   -2.693380    0.112753
      7          1           0        3.826560   -0.783265    0.328085
      8          1           0       -0.799503   -1.464624   -0.160061
      9          6           0       -0.114778    1.449318   -0.169455
     10          8           0        0.283430    2.546188    0.112618
     11          8           0       -1.208330    0.959045   -0.546557
     12          8           0       -3.174206   -0.020991    0.430297
     13          1           0       -2.434346    0.639176    0.094997
     14          1           0       -3.417156    0.162630    1.344237
     15          8           0       -1.782604   -1.882947   -0.144816
     16          1           0       -2.523445   -1.054881    0.198257
     17          1           0       -2.008038   -2.167419   -1.040136
 ---------------------------------------------------------------------
 Rotational constants (GHZ):           1.7797405           0.9906863           0.6571613

 **********************************************************************

            Population analysis using the SCF density.

 **********************************************************************

 Orbital symmetries:
       Occupied  (A) (A) (A) (A) (A) (A) (A) (A) (A) (A) (A) (A)
                 (A) (A) (A) (A) (A) (A) (A) (A) (A) (A) (A) (A)
                 (A) (A) (A) (A) (A) (A) (A) (A) (A) (A) (A) (A)
                 (A) (A) (A)
       Virtual   (A) (A) (A) (A) (A) (A) (A) (A) (A) (A) (A) (A)
                 (A) (A) (A) (A) (A) (A) (A) (A) (A) (A) (A) (A)
                 (A) (A) (A) (A) (A) (A) (A) (A) (A) (A) (A) (A)
                 (A) (A) (A) (A) (A) (A) (A) (A) (A) (A) (A) (A)
                 (A) (A) (A) (A) (A) (A) (A) (A) (A) (A) (A) (A)
                 (A) (A) (A) (A) (A) (A) (A) (A) (A) (A) (A) (A)
                 (A) (A) (A) (A) (A) (A) (A) (A) (A) (A) (A) (A)
                 (A) (A) (A) (A) (A) (A) (A) (A) (A) (A) (A) (A)
                 (A) (A) (A) (A) (A) (A) (A) (A) (A) (A) (A) (A)
                 (A) (A) (A) (A) (A) (A) (A) (A) (A) (A) (A) (A)
                 (A) (A) (A) (A) (A) (A) (A) (A) (A) (A) (A) (A)
                 (A) (A) (A) (A) (A) (A) (A) (A) (A) (A) (A) (A)
                 (A) (A) (A) (A) (A) (A) (A) (A) (A) (A) (A) (A)
                 (A) (A) (A) (A) (A) (A) (A) (A) (A) (A) (A) (A)
                 (A) (A) (A) (A) (A) (A) (A) (A) (A) (A) (A) (A)
                 (A) (A) (A) (A) (A) (A)
 The electronic state is 1-A.
 Alpha  occ. eigenvalues --  -19.71443 -19.69644 -19.62682 -19.61750 -14.88826
 Alpha  occ. eigenvalues --  -14.84041 -14.81878 -10.70198 -10.60989 -10.59609
 Alpha  occ. eigenvalues --   -1.25945  -1.21803  -1.19400  -1.17462  -1.11351
 Alpha  occ. eigenvalues --   -1.02363  -0.94231  -0.74959  -0.73739  -0.70052
 Alpha  occ. eigenvalues --   -0.69478  -0.66542  -0.63670  -0.58867  -0.57718
 Alpha  occ. eigenvalues --   -0.55370  -0.53976  -0.53612  -0.51238  -0.50556
 Alpha  occ. eigenvalues --   -0.48220  -0.44981  -0.43332  -0.39231  -0.38096
 Alpha  occ. eigenvalues --   -0.37280  -0.35384  -0.35038  -0.34131
 Alpha virt. eigenvalues --   -0.00388   0.00131   0.02574   0.03005   0.04288
 Alpha virt. eigenvalues --    0.05377   0.05506   0.06243   0.07474   0.08183
 Alpha virt. eigenvalues --    0.09425   0.10028   0.10396   0.11107   0.11806
 Alpha virt. eigenvalues --    0.12890   0.14280   0.15403   0.16962   0.18416
 Alpha virt. eigenvalues --    0.19084   0.20118   0.20341   0.21034   0.21687
 Alpha virt. eigenvalues --    0.21774   0.22723   0.22956   0.23571   0.24703
 Alpha virt. eigenvalues --    0.25561   0.26515   0.27517   0.28603   0.29234
 Alpha virt. eigenvalues --    0.29887   0.30177   0.31556   0.31683   0.31870
 Alpha virt. eigenvalues --    0.32415   0.32981   0.34593   0.35077   0.35563
 Alpha virt. eigenvalues --    0.37349   0.38075   0.39041   0.40540   0.41660
 Alpha virt. eigenvalues --    0.42771   0.43952   0.47449   0.48329   0.50099
 Alpha virt. eigenvalues --    0.52766   0.54872   0.69643   0.71453   0.73399
 Alpha virt. eigenvalues --    0.75439   0.84479   0.85534   0.87604   0.90120
 Alpha virt. eigenvalues --    0.91196   0.93161   0.94342   0.94778   0.95686
 Alpha virt. eigenvalues --    0.96951   0.98748   1.00176   1.01568   1.01864
 Alpha virt. eigenvalues --    1.05101   1.05844   1.07261   1.07850   1.12546
 Alpha virt. eigenvalues --    1.13502   1.15704   1.16322   1.17312   1.20828
 Alpha virt. eigenvalues --    1.24398   1.25340   1.28725   1.29150   1.29493
 Alpha virt. eigenvalues --    1.32040   1.32557   1.34707   1.38178   1.38690
 Alpha virt. eigenvalues --    1.39121   1.40197   1.41495   1.42999   1.45057
 Alpha virt. eigenvalues --    1.45823   1.46284   1.47620   1.49466   1.51209
 Alpha virt. eigenvalues --    1.55408   1.55474   1.57537   1.59524   1.60623
 Alpha virt. eigenvalues --    1.63700   1.64341   1.66525   1.71958   1.77657
 Alpha virt. eigenvalues --    1.79001   1.80681   1.87224   1.88160   1.89559
 Alpha virt. eigenvalues --    1.91500   1.94719   1.99304   2.00465   2.03756
 Alpha virt. eigenvalues --    2.06078   2.07510   2.08854   2.14271   2.19899
 Alpha virt. eigenvalues --    2.21972   2.24048   2.24212   2.25542   2.30021
 Alpha virt. eigenvalues --    2.31204   2.33284   2.34533   2.37507   2.42385
 Alpha virt. eigenvalues --    2.42743   2.44400   2.46256   2.51505   2.51791
 Alpha virt. eigenvalues --    2.54953   2.55962   2.58517   2.61425   2.62473
 Alpha virt. eigenvalues --    2.70363   2.71546   2.74642   2.76278   2.79656
 Alpha virt. eigenvalues --    2.84355   2.87504   2.88022   2.90857   2.93373
 Alpha virt. eigenvalues --    2.96199   2.99355   3.03057   3.07671   3.11721
 Alpha virt. eigenvalues --    3.18038   3.20245   3.25697   3.27937   3.31414
 Alpha virt. eigenvalues --    3.37584   3.46355   3.59723   3.71310   3.76598
 Alpha virt. eigenvalues --    3.80472   4.06232   4.24068   4.30661   4.35752
 Alpha virt. eigenvalues --    4.38588   4.42405   4.56701   4.59399   4.68729
 Alpha virt. eigenvalues --    4.77328
          Condensed to atoms (all electrons):
               1          2          3          4          5          6
     1  N    8.721181  -0.639785   0.057804  -0.090079  -0.560751   0.018292
     2  N   -0.639785   8.121217   0.109870   0.097768  -0.620528  -0.054132
[...]
   xx         0.959334D+02      0.142159D+02      0.158173D+02
   yx        -0.922624D+01     -0.136719D+01     -0.152120D+01
   yy         0.527450D+02      0.781601D+01      0.869648D+01
   zx         0.167180D+01      0.247735D+00      0.275643D+00
   zy         0.726246D+01      0.107619D+01      0.119742D+01
   zz         0.862764D+02      0.127849D+02      0.142251D+02

 ----------------------------------------------------------------------
 1\1\GINC-NODE6\Freq\RM062X\6-31+G(d,p)\C3H7N3O4\GONGKE2021\26-May-2023
 \0\\#N Geom=AllCheck Guess=TCheck SCRF=Check GenChk RM062X/6-31+G(d,p)
  Freq\\test\\0,1\N,-0.9351458541,-0.3317459808,-0.0638286733\N,-0.6026
 829119,0.9547944799,-0.0831927319\C,-1.7469502327,1.6156398708,0.07945
 3537\C,-2.7638583776,0.6603640206,0.1919393679\N,-2.213694896,-0.55017
 30885,0.104099742\H,-1.77695823,2.6941673519,0.1110987252\H,-3.8265807
 903,0.7852041483,0.3275857007\H,0.7998734399,1.4639627764,-0.160469655
 9\C,0.1137409194,-1.4496538578,-0.1677859559\O,-0.2850336195,-2.546120
 5877,0.1150514856\O,1.2075782276,-0.9601898417,-0.5451110088\O,3.17380
 25153,0.0196218416,0.4312685991\H,2.4336660016,-0.6404362576,0.0963634
 868\H,3.4165455219,-0.1634367845,1.3453762219\O,1.7831749129,1.8818221
 87,-0.1454087715\H,2.5235710172,1.0536536782,0.1983756095\H,2.00886135
 62,2.1655190438,-1.0409106784\\Version=ES64L-G16RevA.03\State=1-A\HF=-
 583.4629764\RMSD=4.726e-09\RMSF=9.367e-07\ZeroPoint=0.1210062\Thermal=
 0.1307151\Dipole=0.7226302,2.7849556,0.3443876\DipoleDeriv=-0.6184358,
 0.7782896,0.1019971,0.8036347,-0.6214896,-0.0590079,0.0840843,-0.05157
 4,0.0415202,-0.950046,-0.3733679,0.0518674,-0.5681824,0.009557,0.06121
 66,0.0716274,0.0306245,-0.142473,-0.023856,0.3741762,-0.0076978,0.0131
 846,0.1481266,0.0039657,-0.0082288,-0.0472352,-0.0606455,0.2027094,0.0
 080484,-0.0402254,0.22632,-0.2715206,-0.0254621,-0.0346468,-0.0071431,
 -0.0838972,-0.0497325,-0.4731801,-0.0294294,-0.1290639,-0.1627541,0.01
 07891,-0.0210286,0.0735407,-0.1531563,0.1006389,-0.0195714,0.0076909,0
 .0079802,0.0184353,-0.0031546,0.0079771,-0.0006079,0.165043,0.0192455,
 0.0220374,0.0180696,-0.0018363,0.0914192,-0.0014382,0.0202087,-0.00572
 91,0.1626667,1.6699537,0.5155343,-0.081994,0.5608894,0.4608713,-0.0176
 676,-0.0753708,0.0019806,0.2317456,2.488598,-0.2954774,-0.4453987,-0.2
 552827,2.5607567,-0.2022449,-0.5876896,-0.3048549,0.4974167,-0.7314881
 ,-0.1244859,0.0826882,-0.0915395,-1.5243811,0.1423296,0.1263488,0.2184
 493,-0.4334738,-2.1273662,-0.3320163,0.1487882,-0.3827113,-0.9270382,0
 .0351555,0.1374071,0.0107851,-0.5875468,-1.3764768,0.06214,-0.2563902,
 -0.0398955,-1.0458064,0.0301951,-0.3813013,-0.0011671,-0.5503778,1.375
 6688,0.4012501,0.2602009,0.5062476,0.5233768,0.1887576,0.4805117,0.228
 7029,0.3912666,0.4027608,-0.0128019,0.0352065,-0.0130209,0.2877344,0.0
 281682,0.0488792,0.0065439,0.2970047,-1.5339838,0.0017599,-0.0913589,-
 0.0657637,-1.0290816,0.1904509,-0.1400925,0.1676088,-0.4628734,0.83978
 13,-0.5778653,0.2721558,-0.6338535,1.0919146,-0.3428011,0.2989025,-0.2
 992474,0.3883652,0.3120287,0.0455302,-0.0261702,0.0628932,0.3898796,-0
 .0392519,-0.0275884,-0.0206771,0.299415\Polar=97.0956321,-2.3951705,88
 .1354756,-3.1381968,-2.3618585,49.7237666\Quadrupole=5.7294187,-6.5951
 368,0.8657181,-2.9799588,2.9848768,-2.9266195\PG=C01 [X(C3H7N3O4)]\NIm
 ag=1\\0.73821150,-0.03564250,0.71031777,-0.08671118,-0.00039967,0.1409
 3693,-0.12473806,-0.01820130,0.00721246,0.67820988,-0.08861800,-0.2812
 5710,0.00843189,-0.01901776,0.56274858,0.00463158,-0.00295187,-0.07614
 296,-0.06938413,0.01412155,0.12899256,-0.04465539,0.08391237,0.0097280
 7,-0.33254659,0.11744885,0.03563849,0.61715663,0.02092075,-0.11161724,
 -0.00490584,0.11065709,-0.17898726,-0.01798474,-0.03211496,0.93018549,
 0.00849389,-0.01225214,0.01276090,0.03504083,-0.01854945,-0.07799907,-
 0.06202615,0.02264498,0.14633398,-0.10102553,0.02917105,0.01437543,-0.
 08185335,0.03316965,0.01299037,-0.22983614,-0.12487723,0.01784119,0.91
 834374,0.10236308,-0.04618126,-0.01525685,-0.06539724,0.03808968,0.008
 75292,-0.07965982,-0.20837572,0.00685134,-0.05631442,0.61270103,0.0174
 5327,-0.00521898,0.01053772,0.01214116,-0.00350725,0.01652240,0.018606
 75,0.01293863,-0.07253287,-0.09952226,0.01508855,0.15074461,-0.3192374
 6,-0.08483195,0.02961506,-0.09600461,-0.06137096,0.01438397,0.05082372
 ,0.02793881,-0.00326786,-0.15206785,0.09243435,0.01113800,0.54940812,-
 0.01673947,-0.11932335,0.00479110,-0.01923540,-0.07364282,0.00092884,-
 0.06806433,-0.07751977,0.00732021,0.09257593,-0.34309288,-0.01549995,-
 0.01501927,0.60589018,0.03138771,0.01292067,-0.08239665,0.01589175,0.0
 0442667,0.02490720,-0.00623579,-0.00538746,0.02155678,0.01132232,-0.01
 436666,-0.07406495,-0.05628653,0.00743525,0.11750896,-0.00779913,0.004
 26152,0.00218723,0.00484433,0.03095396,-0.00057384,-0.05867110,-0.0034
 6433,0.00341483,0.01142007,-0.01602223,-0.00195132,-0.00267900,-0.0063
 5857,0.00107124,0.05156536,0.00050124,0.00073030,-0.00029392,-0.001257
 20,-0.00876252,0.00015295,0.00568211,-0.36861021,-0.00939331,0.0060763
 1,-0.00411158,-0.00089715,-0.00030907,-0.00184506,-0.00021929,-0.01049
 067,0.38328081,0.00198111,-0.00027537,0.00796897,-0.00138114,-0.004173
 99,-0.00603380,0.00337580,-0.00857021,-0.03215162,-0.00131355,0.002228
 43,-0.00020187,0.00126207,0.00064682,0.00613018,-0.00387151,0.01057889
 ,0.02527106,0.00144583,0.00085795,0.00086983,-0.00161720,-0.00117612,0
 .00097100,-0.00566017,0.00656932,0.00065523,-0.36209916,0.03154615,0.0
 4222725,-0.00696598,0.00103852,-0.00007777,-0.00041152,-0.00038715,-0.
 00013449,0.37514468,0.00539010,-0.00721285,-0.00072967,-0.00591055,-0.
 00352034,0.00049505,-0.01715922,0.01062734,0.00238143,0.02389074,-0.06
 000217,-0.00354450,0.03085838,0.00103436,-0.00375030,0.00047176,-0.000
 31299,-0.00003365,-0.03852835,0.05740460,0.00133235,-0.00045419,0.0088
 5777,0.00099763,0.00017128,0.00662929,0.00045751,-0.00052933,-0.001375
 91,0.04200574,-0.00451076,-0.03651412,0.00016048,-0.00026146,-0.007872
 54,-0.00011935,0.00008940,-0.00140809,-0.04472336,0.00540745,0.0306133
 1,0.00108995,-0.01131062,0.00010630,0.00143573,0.01136321,0.00077009,-
 0.00600428,0.00982272,0.00092246,0.00336525,0.00603007,-0.00049757,0.0
 1455987,0.00705794,-0.00198056,0.00031654,-0.00008582,0.00006916,0.000
 61373,0.00107237,-0.00004439,0.14480714,-0.00896818,-0.00506438,0.0010
 1500,0.01470231,-0.02426718,0.00028372,0.00421195,0.00966643,0.0000691
 7,0.00375401,0.00086538,-0.00076179,0.00393605,-0.00084485,-0.00067922
 ,0.00052624,-0.00039017,0.00007929,0.00033630,0.00074000,-0.00010118,0
 .03185513,0.07895939,0.00035322,0.00069393,-0.00284109,-0.00164103,-0.
 00032530,-0.02168775,0.00130567,0.00009147,-0.00034280,0.00030550,-0.0
 0072962,0.00158756,-0.00071031,-0.00029117,0.00273400,-0.00007349,-0.0
 0002954,-0.00072981,0.00004325,-0.00002926,0.00041072,0.00730692,-0.01
 231016,0.07726868,-0.06790064,-0.00602219,0.00292944,0.00461706,0.0060
 6243,-0.00160858,0.01646574,-0.01422385,-0.00209458,-0.00316617,-0.019
 73410,0.00045012,-0.03618025,0.01641730,0.00300589,0.00218586,-0.00076
 041,-0.00006141,0.00018613,-0.00054874,0.00020268,0.02482503,0.0005317
 2,-0.00279128,0.67176172,-0.01279890,-0.06580089,0.00211773,0.01331002
 ,-0.02923842,-0.00185149,-0.01697905,0.00032427,0.00202598,-0.01067476
 ,0.01662895,0.00182204,0.01494804,0.01227919,-0.00192812,-0.00048444,0
 .00013895,0.00004510,-0.00060725,0.00214055,0.00024935,-0.01030590,-0.
 00657448,0.00040919,0.38424362,0.87588858,0.00003135,-0.00006140,-0.04
 590144,0.00088318,-0.00164783,-0.01148188,-0.00285900,0.00211515,0.004
 22902,0.00220227,0.00297603,0.00537163,0.00366178,-0.00186210,-0.01334
 060,0.00007298,0.00006541,0.00195119,0.00029538,-0.00003247,0.00169812
 ,-0.00499180,0.00038164,0.00095670,-0.16540058,-0.19939888,0.29283143,
 0.00914880,0.02369108,-0.00158567,-0.00056546,0.00172456,-0.00000116,-
 0.00090899,0.00353057,0.00023589,0.00274863,0.00106189,-0.00042075,0.0
 0111114,0.00234089,-0.00064146,-0.00025897,0.00032797,0.00005559,0.000
 00875,-0.00007439,-0.00004747,-0.00538924,0.00014584,0.00081415,-0.171
 65831,-0.20580781,0.05506478,0.18894493,0.01227432,-0.08372315,0.00986
 351,0.01101699,0.00173913,0.00018934,0.00450247,-0.00437122,-0.0010790
 5,0.00150160,-0.00650604,-0.00048894,-0.00793455,0.00042778,0.00142885
 ,0.00105400,-0.00028992,-0.00044289,0.00024186,-0.00039178,-0.00010814
 ,0.00340157,0.00274862,0.00028249,-0.21363817,-0.64846541,0.14642321,0
 .24317933,0.77468212,0.00090296,0.00959023,0.01477617,-0.00208947,0.00
 045836,0.00407208,0.00027844,0.00014351,-0.00060459,-0.00077547,0.0001
 7177,-0.00028106,0.00052538,-0.00045948,0.00187935,-0.00024976,0.00005
 134,-0.00068605,-0.00008918,0.00007054,-0.00021689,0.00086911,-0.00059
 013,-0.00023085,0.05444254,0.14197382,-0.11951335,-0.08008607,-0.18168
 950,0.08294916,-0.08322839,0.01036013,0.02256484,0.00441848,-0.0037496
 4,0.00049954,-0.00918177,0.00311896,0.00125597,-0.00366436,0.00838362,
 0.00006599,0.00676332,0.01104264,0.00089171,-0.00050789,0.00036867,-0.
 00002884,-0.00032396,0.00131776,-0.00026176,-0.01998088,-0.00420019,0.
 00149367,-0.40383385,-0.15288391,0.10277867,-0.03167167,-0.06004590,0.
 02895475,0.56829072,0.01793195,0.00757902,-0.00336545,0.00668153,-0.00
 370853,-0.00154323,-0.00164439,0.00367308,0.00032964,0.00311824,0.0015
 8631,-0.00034077,0.00303682,-0.00181732,-0.00045116,-0.00021746,0.0000
 9640,0.00001084,0.00025238,-0.00004330,-0.00004907,-0.00449490,0.00257
 056,0.00100519,-0.14055523,-0.15644857,0.05232503,-0.07169837,-0.03419
 545,0.02837954,0.20306362,0.19349724,0.01701277,-0.00096919,0.01064553
 ,-0.00045538,0.00053533,0.00171942,0.00129697,-0.00051308,0.00017925,0
 .00030742,-0.00075727,-0.00073852,-0.00031468,-0.00197553,0.00388011,-
 0.00001661,-0.00006251,-0.00025946,-0.00006914,-0.00016214,-0.00073325
 ,0.00076032,-0.00044234,-0.00222462,0.11356916,0.05672797,-0.11995199,
 0.02453234,0.02352067,0.01899806,-0.13122398,-0.06653603,0.10903545,-0
 .00262033,0.00236299,0.00148516,-0.00168978,-0.00152889,0.00018545,-0.
 00083340,-0.00012443,0.00002461,-0.00027916,0.00114463,0.00001433,0.00
 038168,0.00005908,0.00004092,0.00003442,0.00001677,-0.00004374,-0.0000
 7901,0.00003157,-0.00001432,0.00449042,0.00082538,-0.00001271,0.018013
 80,0.00912319,-0.01437478,-0.00477341,-0.00757958,0.00415878,-0.060542
 99,-0.02778388,-0.02143144,0.27557280,-0.00510394,0.00084326,0.0018434
 1,0.00584483,0.00191176,-0.00028605,-0.00292395,0.00136660,0.00045033,
 -0.00021824,0.00252182,-0.00003122,0.00360738,0.00198410,-0.00029587,-
 0.00038419,0.00011442,0.00001904,0.00001211,0.00026499,-0.00004072,-0.
 01801317,-0.01246465,0.00256270,0.02238598,0.00418538,-0.01226576,-0.0
 0502506,-0.00342804,0.00222641,-0.05317265,-0.00979656,-0.01416371,0.0
 6740659,0.28252387,-0.00237713,0.00088047,0.00076081,-0.00096922,-0.00
 091870,0.00040172,-0.00047812,0.00001845,0.00005280,-0.00021686,0.0005
 3526,-0.00002719,0.00005386,0.00017426,0.00011529,0.00002828,0.0000254
 6,-0.00005417,-0.00004749,0.00003308,-0.00003914,0.00280242,0.00226735
 ,-0.00128598,0.00595959,0.00296240,-0.00732434,-0.00247367,-0.00345692
 ,0.00230143,-0.03593543,-0.01482896,-0.00038249,0.21268436,-0.06248922
 ,0.58974593,0.00637888,-0.00377602,-0.00293037,-0.00222122,0.00045124,
 -0.00014265,0.00324744,-0.00080564,-0.00029492,0.00051929,-0.00327571,
 -0.00000624,-0.00315277,-0.00144841,0.00037588,0.00025090,-0.00012464,
 0.00002095,0.00007970,-0.00022210,0.00002300,0.00934365,0.00722403,-0.
 00052453,-0.04256529,-0.01359253,0.02161238,0.01066503,0.01301609,-0.0
 0669533,0.03226082,0.01110768,-0.00231305,-0.12558288,-0.07939530,-0.0
 4654041,0.10039895,0.00690657,-0.00144290,-0.00242269,-0.00205641,0.00
 047943,-0.00017179,0.00204502,-0.00084152,-0.00039241,0.00038792,-0.00
 196472,0.00007818,-0.00203293,-0.00152530,-0.00012926,0.00017656,-0.00
 008203,0.00001268,0.00004837,-0.00021403,0.00009000,0.00871057,0.00186
 428,0.00029663,-0.02243704,-0.00885075,0.00895294,0.00426460,0.0032697
 0,-0.00029289,0.02827544,0.00207836,0.00265937,-0.10145192,-0.13307304
 ,-0.03489263,0.07614834,0.15187069,0.00571749,-0.00105859,-0.00102714,
 -0.00115073,0.00005242,-0.00034473,0.00148191,-0.00048590,-0.00024618,
 0.00043319,-0.00141282,0.00003395,-0.00103280,-0.00128446,-0.00011595,
 0.00012457,-0.00006679,0.00001883,0.00005795,-0.00016361,0.00003899,0.
 00444305,0.00293168,0.00075774,-0.00946519,-0.00398867,0.01044879,0.00
 471101,0.00495114,-0.00318420,0.01099750,0.00617290,-0.02019549,-0.028
 62257,-0.00009904,-0.06261725,0.02957588,0.02300327,0.07940460,-0.0000
 8104,-0.00028090,-0.00001201,0.00015202,0.00013050,0.00016662,-0.00001
 637,0.00009039,0.00001983,0.00000006,-0.00006867,-0.00002608,-0.000015
 97,0.00001255,0.00003669,-0.00000554,0.00000839,-0.00001160,0.00000416
 ,0.00000544,-0.00001591,-0.00003929,0.00025358,-0.00054353,-0.00160982
 ,-0.00082697,-0.00077480,0.00015134,0.00015710,0.00029426,-0.00279736,
 -0.00145396,0.00067533,-0.04798363,0.00979729,-0.11172037,0.00067709,0
 .01092160,-0.02060544,0.05418947,-0.00006762,-0.00001740,0.00002316,0.
 00005654,0.00013204,-0.00005426,0.00001734,-0.00000133,-0.00002865,-0.
 00001200,0.00001503,-0.00000308,-0.00002485,0.00003048,0.00006512,0.00
 000071,-0.00000429,0.00001821,0.00000136,0.00000647,0.00000228,-0.0003
 1846,-0.00059601,0.00030294,0.00003613,0.00123686,-0.00113982,-0.00018
 279,-0.00093277,0.00055285,-0.00510211,-0.00261891,-0.00030160,0.01949
 036,-0.06514719,0.09982740,0.00401224,0.01206961,-0.02115256,-0.018184
 69,0.05159973,0.00031406,-0.00026937,-0.00016713,0.00032972,0.00023990
 ,-0.00005863,0.00007409,0.00004759,-0.00000428,0.00005572,-0.00010564,
 -0.00000988,0.00003253,0.00001199,-0.00001233,-0.00000924,-0.00000512,
 0.00002331,0.00001458,0.00000015,0.00000999,-0.00112374,-0.00019714,0.
 00018252,-0.00212390,-0.00084491,0.00082154,0.00054242,0.00070235,-0.0
 0040940,0.00259608,0.00075210,0.00126053,-0.14178934,0.08614570,-0.489
 46373,0.00084480,0.00451836,-0.00965662,0.13935305,-0.09269530,0.49825
 454,-0.00187978,0.00630101,-0.00012043,-0.05378890,-0.02585670,0.00410
 942,0.00290984,-0.00807418,-0.00063423,-0.00230578,-0.00391788,0.00026
 832,-0.00968383,-0.00513476,0.00125225,0.00021816,0.00023287,-0.000053
 01,-0.00039427,-0.00079180,0.00002289,-0.15101705,-0.05395914,-0.03493
 837,-0.01767053,0.00723417,0.00394660,0.00373232,-0.00264104,-0.000480
 92,0.01791451,0.00130402,0.00175214,-0.02167155,0.06496760,-0.02472237
 ,-0.01793421,-0.00785708,-0.00883725,-0.00182885,0.00678988,0.00371076
 ,0.38183859,-0.00162403,0.00232379,0.00007386,-0.02108478,0.00266271,-
 0.00048170,-0.00232514,-0.00411365,0.00010585,-0.00171358,0.00036370,0
 .00028776,-0.00092064,0.00042560,0.00038071,-0.00063008,0.00016036,0.0
 0004902,-0.00014083,-0.00023743,0.00005047,-0.05715560,-0.07002937,0.0
 0366782,0.00772979,0.00124742,-0.00273501,-0.00226731,-0.00208968,0.00
 103572,-0.00976855,-0.00691867,-0.00092623,0.04407107,-0.05302082,0.02
 747305,0.00703943,0.00647847,0.00408132,0.00282448,-0.00735593,-0.0042
 7740,0.06060139,0.23750340,0.00000953,-0.00015577,0.00084754,0.0034826
 1,-0.00056754,0.01145585,0.00012315,0.00002875,0.00007958,0.00002737,-
 0.00001084,-0.00048125,-0.00024658,-0.00028041,-0.00081889,0.00009737,
 -0.00002756,0.00005501,-0.00001522,-0.00000693,-0.00014476,-0.00005080
 ,0.01659329,-0.05869359,-0.00016519,0.00001976,0.00016220,-0.00016583,
 -0.00036019,0.00010256,0.00246009,-0.00117017,0.00325883,-0.02045505,0
 .03403431,0.00437329,-0.00671767,-0.00277491,-0.00500222,0.00029092,-0
 .00014346,0.00157501,-0.08039957,-0.17972210,0.54448253,-0.00267452,-0
 .00093360,0.00063610,0.00522227,0.00073349,0.00017442,-0.00184590,0.00
 140666,0.00036006,0.00013765,0.00137809,-0.00009333,0.00284173,0.00133
 608,-0.00037205,-0.00034928,0.00010536,0.00008150,0.00007423,0.0002083
 5,-0.00001855,-0.02645730,0.00463943,-0.00307156,0.00647442,-0.0032300
 6,-0.00224909,-0.00131838,0.00112186,0.00010113,-0.01361263,0.00094668
 ,-0.00380213,-0.02728554,-0.01504522,0.00306928,0.02708355,-0.00202972
 ,0.01220661,-0.00093245,-0.00629464,-0.00290568,-0.04984824,0.00724064
 ,0.00597095,0.06909777,0.00300711,0.00062813,-0.00072432,-0.00971045,-
 0.00498996,0.00128798,0.00309753,-0.00168857,-0.00043989,0.00001506,-0
 .00239870,-0.00002250,-0.00436243,-0.00234585,0.00052538,0.00050463,-0
 .00011113,-0.00006890,-0.00008581,-0.00028606,-0.00001777,0.02366374,0
 .02579843,-0.00863131,-0.01651643,0.00191543,0.00510769,0.00392853,0.0
 0075619,-0.00133947,0.02106819,0.00337827,0.00481064,-0.00867048,-0.01
 575307,-0.01584770,-0.01666300,-0.02965746,-0.01265850,-0.00367522,0.0
 1124805,0.00594444,-0.00965329,-0.04954798,0.00914034,0.01736552,0.063
 88360,-0.00060558,-0.00044311,0.00032234,0.00363554,0.00188503,-0.0005
 3412,-0.00089375,0.00062705,0.00007958,0.00007028,0.00067867,0.0000171
 7,0.00152722,0.00084901,-0.00018041,-0.00021020,0.00003236,0.00006424,
 0.00004950,0.00010449,0.00002187,-0.01269441,-0.00799233,0.00281471,0.
 00309894,-0.00094105,-0.00090099,-0.00047111,0.00061455,-0.00001922,-0
 .00667251,0.00000843,-0.00376876,0.00701213,-0.03531386,-0.03756322,0.
 01322045,0.00063443,0.01108302,-0.00710577,0.01489356,-0.00223583,0.02
 568154,-0.00258549,-0.04130152,-0.01040194,0.01024638,0.07938648,-0.00
 043469,0.00008097,-0.00035025,-0.00387459,-0.00071982,-0.00281060,-0.0
 0044327,-0.00037064,0.00005296,-0.00023720,0.00004819,0.00015238,0.000
 09813,0.00011930,0.00031781,-0.00015320,0.00009526,0.00005313,-0.00000
 596,-0.00001133,0.00004283,0.00404075,-0.00581448,0.03268442,0.0000551
 1,-0.00066746,0.00010069,0.00003347,0.00037206,-0.00006116,-0.00030210
 ,0.00040527,-0.00028004,-0.00515146,0.00525995,0.00088327,0.00055108,-
 0.00001990,-0.00003517,0.00013620,-0.00021742,0.00008409,-0.07859042,-
 0.03187626,0.09575392,0.01339263,-0.00331319,-0.01524032,0.07088550,0.
 00026755,-0.00078174,-0.00006123,-0.00039822,0.00061081,-0.00088724,-0
 .00004678,0.00028329,-0.00004402,0.00014971,-0.00013881,0.00010097,0.0
 0004681,-0.00011449,0.00002471,0.00010258,-0.00000131,-0.00012332,0.00
 002119,0.00000265,0.00001239,-0.00129286,-0.00298200,0.01303400,-0.002
 97081,-0.00060705,0.00079619,0.00086048,0.00076991,-0.00028262,0.00192
 393,0.00108807,-0.00144435,0.00260754,-0.00303284,-0.00176306,0.000304
 29,-0.00045878,0.00117821,0.00028910,0.00033556,0.00003230,-0.02954507
 ,-0.05785191,0.12540341,-0.00894893,-0.00082935,0.01670186,0.03662949,
 0.06370801,0.00007261,0.00042438,0.00006171,-0.00254377,-0.00063237,-0
 .00041758,0.00012597,-0.00027903,-0.00001456,-0.00010865,-0.00013250,0
 .00003666,-0.00050159,-0.00024293,0.00009044,0.00007882,-0.00000062,0.
 00004207,-0.00002733,-0.00003967,0.00002465,0.00333345,-0.00054684,0.0
 0132385,0.00005235,0.00059976,-0.00005605,-0.00006297,-0.00035049,0.00
 006680,-0.00043628,-0.00069883,-0.00072262,0.00113822,-0.00229644,0.00
 100623,0.00049184,0.00083073,0.00060385,-0.00002120,-0.00016680,-0.000
 10962,0.10944222,0.15352234,-0.45995017,0.00031429,0.00268751,-0.00728
 536,-0.11134796,-0.15267821,0.46529970\\0.00000012,-0.00000064,-0.0000
 0037,0.00000002,-0.00000011,0.00000071,-0.00000086,-0.00000103,0.00000
 152,0.00000077,-0.00000081,0.00000073,0.00000022,-0.00000069,0.0000001
 6,-0.00000062,-0.00000030,0.00000257,-0.00000014,-0.00000140,0.0000013
 2,-0.00000022,0.00000033,0.00000059,0.00000138,0.00000036,-0.00000147,
 0.00000048,-0.00000023,-0.00000221,-0.00000018,0.00000069,-0.00000153,
 0.00000063,0.00000029,-0.00000112,0.00000025,0.00000091,-0.00000132,0.
 00000021,-0.00000028,-0.00000159,-0.00000080,0.00000137,0.00000079,-0.
 00000059,0.00000057,-0.00000002,-0.00000067,0.00000098,0.00000123\\\@


 Not by the face shall a man be known, but by the mask.
                               -- Karen Blixen
 Job cpu time:       0 days  0 hours 18 minutes 54.0 seconds.
 Elapsed time:       0 days  0 hours  0 minutes 38.1 seconds.
 File lengths (MBytes):  RWF=     98 Int=      0 D2E=      0 Chk=      5 Scr=      1
 Normal termination of Gaussian 16 at Fri May 26 15:58:14 2023.
