 Entering Gaussian System, Link 0=/opt/soft/g16/g16
 Initial command:
 /opt/soft/g16/l1.exe "/scratch/gongke2021/1-H-Tz-TS-2/Gau-22949.inp" -scrdir="/scratch/gongke2021/1-H-Tz-TS-2/"
 Entering Link 1 = /opt/soft/g16/l1.exe PID=     22950.
  
 Copyright (c) 1988,1990,1992,1993,1995,1998,2003,2009,2016,
            Gaussian, Inc.  All Rights Reserved.
  
 This is part of the Gaussian(R) 16 program.  It is based on
 the Gaussian(R) 09 system (copyright 2009, Gaussian, Inc.),
 the Gaussian(R) 03 system (copyright 2003, Gaussian, Inc.),
 the Gaussian(R) 98 system (copyright 1998, Gaussian, Inc.),
 the Gaussian(R) 94 system (copyright 1995, Gaussian, Inc.),
 the Gaussian 92(TM) system (copyright 1992, Gaussian, Inc.),
 the Gaussian 90(TM) system (copyright 1990, Gaussian, Inc.),
 the Gaussian 88(TM) system (copyright 1988, Gaussian, Inc.),
 the Gaussian 86(TM) system (copyright 1986, Carnegie Mellon
 University), and the Gaussian 82(TM) system (copyright 1983,
 Carnegie Mellon University). Gaussian is a federally registered
 trademark of Gaussian, Inc.
  
 This software contains proprietary and confidential information,
 including trade secrets, belonging to Gaussian, Inc.
  
 This software is provided under written license and may be
 used, copied, transmitted, or stored only in accord with that
 written license.
  
 The following legend is applicable only to US Government
 contracts under FAR:
  
                    RESTRICTED RIGHTS LEGEND
  
 Use, reproduction and disclosure by the US Government is
 subject to restrictions as set forth in subparagraphs (a)
 and (c) of the Commercial Computer Software - Restricted
 Rights clause in FAR 52.227-19.
  
 Gaussian, Inc.
 340 Quinnipiac St., Bldg. 40, Wallingford CT 06492
  
  
 ---------------------------------------------------------------
 Warning -- This program may not be used in any manner that
 competes with the business of Gaussian, Inc. or will provide
 assistance to any competitor of Gaussian, Inc.  The licensee
 of this program is prohibited from giving any competitor of
 Gaussian, Inc. access to this program.  By using this program,
 the user acknowledges that Gaussian, Inc. is engaged in the
 business of creating and licensing software in the field of
 computational chemistry and represents and warrants to the
 licensee that it is not a competitor of Gaussian, Inc. and that
 it will not use this program in any manner prohibited above.
 ---------------------------------------------------------------
  

 Cite this work as:
 Gaussian 16, Revision A.03,
 M. J. Frisch, G. W. Trucks, H. B. Schlegel, G. E. Scuseria, 
 M. A. Robb, J. R. Cheeseman, G. Scalmani, V. Barone, 
 G. A. Petersson, H. Nakatsuji, X. Li, M. Caricato, A. V. Marenich, 
 J. Bloino, B. G. Janesko, R. Gomperts, B. Mennucci, H. P. Hratchian, 
 J. V. Ortiz, A. F. Izmaylov, J. L. Sonnenberg, D. Williams-Young, 
 F. Ding, F. Lipparini, F. Egidi, J. Goings, B. Peng, A. Petrone, 
 T. Henderson, D. Ranasinghe, V. G. Zakrzewski, J. Gao, N. Rega, 
 G. Zheng, W. Liang, M. Hada, M. Ehara, K. Toyota, R. Fukuda, 
 J. Hasegawa, M. Ishida, T. Nakajima, Y. Honda, O. Kitao, H. Nakai, 
 T. Vreven, K. Throssell, J. A. Montgomery, Jr., J. E. Peralta, 
 F. Ogliaro, M. J. Bearpark, J. J. Heyd, E. N. Brothers, K. N. Kudin, 
 V. N. Staroverov, T. A. Keith, R. Kobayashi, J. Normand, 
 K. Raghavachari, A. P. Rendell, J. C. Burant, S. S. Iyengar, 
 J. Tomasi, M. Cossi, J. M. Millam, M. Klene, C. Adamo, R. Cammi, 
 J. W. Ochterski, R. L. Martin, K. Morokuma, O. Farkas, 
 J. B. Foresman, and D. J. Fox, Gaussian, Inc., Wallingford CT, 2016.
 
 ******************************************
 Gaussian 16:  ES64L-G16RevA.03 25-Dec-2016
                25-May-2023 
 ******************************************
 %mem=10GB
 %nprocshared=24
 Will use up to   24 processors via shared memory.
 ----------------------------------------------------------------------
 # opt=(calcfc,ts,noeigentest) freq 6-31+g(d,p) integral=grid=ultrafine
  m062x
 ----------------------------------------------------------------------
 1/5=1,10=4,11=1,18=20,26=4,38=1/1,3;
 2/9=110,12=2,17=6,18=5,40=1/2;
 3/5=1,6=6,7=111,11=2,25=1,30=1,71=2,74=-55,75=-5,140=1/1,2,3;
 4//1;
 5/5=2,38=5/2;
 8/6=4,10=90,11=11/1;
 11/6=1,8=1,9=11,15=111,16=1/1,2,10;
 10/6=1,13=1/2;
 6/7=2,8=2,9=2,10=2,28=1/1;
 7/10=1,18=20,25=1/1,2,3,16;
 1/5=1,10=4,11=1,18=20,26=4/3(2);
 2/9=110/2;
 99//99;
 2/9=110/2;
 3/5=1,6=6,7=111,11=2,25=1,30=1,71=1,74=-55,75=-5/1,2,3;
 4/5=5,16=3,69=1/1;
 5/5=2,38=5/2;
 7//1,2,3,16;
 1/5=1,11=1,18=20,26=4/3(-5);
 2/9=110/2;
 6/7=2,8=2,9=2,10=2,19=2,28=1/1;
 99/9=1/99;
 -----------
 "1-H-Tz-TS"
 -----------
 Symbolic Z-matrix:
 Charge =  0 Multiplicity = 1
 N                    -0.033    -0.213     0. 
 N                    -0.618     0.968     0. 
 C                    -1.927     0.752     0. 
 C                    -2.071    -0.646     0. 
 N                    -0.859    -1.216     0. 
 H                    -2.653     1.548     0.001 
 H                    -2.973    -1.236     0. 
 H                    -0.13561   2.04377  -0.00553 
 C                     1.491    -0.06      0. 
 O                     1.696     1.186     0. 
 O                     2.16     -1.056     0. 
 O                     0.51329   2.94012   0.43289 
 H                     0.36929   3.13607   1.51592 
 H                     1.4312    2.33365   0.28544 
 
 Add virtual bond connecting atoms O12        and H8         Dist= 2.25D+00.
 Add virtual bond connecting atoms H14        and O10        Dist= 2.29D+00.

 GradGradGradGradGradGradGradGradGradGradGradGradGradGradGradGradGradGrad
 Berny optimization.
 Initialization pass.
                           ----------------------------
                           !    Initial Parameters    !
                           ! (Angstroms and Degrees)  !
 --------------------------                            --------------------------
 ! Name  Definition              Value          Derivative Info.                !
 --------------------------------------------------------------------------------
 ! R1    R(1,2)                  1.3179         calculate D2E/DX2 analytically  !
 ! R2    R(1,5)                  1.2993         calculate D2E/DX2 analytically  !
 ! R3    R(1,9)                  1.5317         calculate D2E/DX2 analytically  !
 ! R4    R(2,3)                  1.3267         calculate D2E/DX2 analytically  !
 ! R5    R(2,8)                  1.179          calculate D2E/DX2 analytically  !
 ! R6    R(3,4)                  1.4054         calculate D2E/DX2 analytically  !
 ! R7    R(3,6)                  1.0774         calculate D2E/DX2 analytically  !
 ! R8    R(4,5)                  1.3393         calculate D2E/DX2 analytically  !
 ! R9    R(4,7)                  1.0778         calculate D2E/DX2 analytically  !
 ! R10   R(8,12)                 1.1903         calculate D2E/DX2 analytically  !
 ! R11   R(9,10)                 1.2628         calculate D2E/DX2 analytically  !
 ! R12   R(9,11)                 1.1998         calculate D2E/DX2 analytically  !
 ! R13   R(10,14)                1.2119         calculate D2E/DX2 analytically  !
 ! R14   R(12,13)                1.11           calculate D2E/DX2 analytically  !
 ! R15   R(12,14)                1.11           calculate D2E/DX2 analytically  !
 ! A1    A(2,1,5)              114.1764         calculate D2E/DX2 analytically  !
 ! A2    A(2,1,9)              110.6183         calculate D2E/DX2 analytically  !
 ! A3    A(5,1,9)              135.2054         calculate D2E/DX2 analytically  !
 ! A4    A(1,2,3)              106.9812         calculate D2E/DX2 analytically  !
 ! A5    A(1,2,8)              129.4962         calculate D2E/DX2 analytically  !
 ! A6    A(3,2,8)              123.5217         calculate D2E/DX2 analytically  !
 ! A7    A(2,3,4)              105.251          calculate D2E/DX2 analytically  !
 ! A8    A(2,3,6)              122.9967         calculate D2E/DX2 analytically  !
 ! A9    A(4,3,6)              131.7523         calculate D2E/DX2 analytically  !
 ! A10   A(3,4,5)              109.3065         calculate D2E/DX2 analytically  !
 ! A11   A(3,4,7)              129.0698         calculate D2E/DX2 analytically  !
 ! A12   A(5,4,7)              121.6238         calculate D2E/DX2 analytically  !
 ! A13   A(1,5,4)              104.285          calculate D2E/DX2 analytically  !
 ! A14   A(2,8,12)             155.2954         calculate D2E/DX2 analytically  !
 ! A15   A(1,9,10)             105.0759         calculate D2E/DX2 analytically  !
 ! A16   A(1,9,11)             118.1558         calculate D2E/DX2 analytically  !
 ! A17   A(10,9,11)            136.7683         calculate D2E/DX2 analytically  !
 ! A18   A(9,10,14)            154.0206         calculate D2E/DX2 analytically  !
 ! A19   A(8,12,13)            114.9358         calculate D2E/DX2 analytically  !
 ! A20   A(8,12,14)             89.4527         calculate D2E/DX2 analytically  !
 ! A21   A(13,12,14)           109.4716         calculate D2E/DX2 analytically  !
 ! A22   A(10,14,12)           136.8343         calculate D2E/DX2 analytically  !
 ! D1    D(5,1,2,3)              0.0            calculate D2E/DX2 analytically  !
 ! D2    D(5,1,2,8)           -179.6519         calculate D2E/DX2 analytically  !
 ! D3    D(9,1,2,3)            180.0            calculate D2E/DX2 analytically  !
 ! D4    D(9,1,2,8)              0.3481         calculate D2E/DX2 analytically  !
 ! D5    D(2,1,5,4)              0.0            calculate D2E/DX2 analytically  !
 ! D6    D(9,1,5,4)            180.0            calculate D2E/DX2 analytically  !
 ! D7    D(2,1,9,10)             0.0            calculate D2E/DX2 analytically  !
 ! D8    D(2,1,9,11)           180.0            calculate D2E/DX2 analytically  !
 ! D9    D(5,1,9,10)           180.0            calculate D2E/DX2 analytically  !
 ! D10   D(5,1,9,11)             0.0            calculate D2E/DX2 analytically  !
 ! D11   D(1,2,3,4)              0.0            calculate D2E/DX2 analytically  !
 ! D12   D(1,2,3,6)            179.9366         calculate D2E/DX2 analytically  !
 ! D13   D(8,2,3,4)            179.6778         calculate D2E/DX2 analytically  !
 ! D14   D(8,2,3,6)             -0.3856         calculate D2E/DX2 analytically  !
 ! D15   D(1,2,8,12)           -63.2852         calculate D2E/DX2 analytically  !
 ! D16   D(3,2,8,12)           117.1142         calculate D2E/DX2 analytically  !
 ! D17   D(2,3,4,5)              0.0            calculate D2E/DX2 analytically  !
 ! D18   D(2,3,4,7)            180.0            calculate D2E/DX2 analytically  !
 ! D19   D(6,3,4,5)           -179.9287         calculate D2E/DX2 analytically  !
 ! D20   D(6,3,4,7)              0.0713         calculate D2E/DX2 analytically  !
 ! D21   D(3,4,5,1)              0.0            calculate D2E/DX2 analytically  !
 ! D22   D(7,4,5,1)            180.0            calculate D2E/DX2 analytically  !
 ! D23   D(2,8,12,13)          -42.4599         calculate D2E/DX2 analytically  !
 ! D24   D(2,8,12,14)           68.8359         calculate D2E/DX2 analytically  !
 ! D25   D(1,9,10,14)           32.526          calculate D2E/DX2 analytically  !
 ! D26   D(11,9,10,14)        -147.474          calculate D2E/DX2 analytically  !
 ! D27   D(9,10,14,12)         -33.1832         calculate D2E/DX2 analytically  !
 ! D28   D(8,12,14,10)          -9.9394         calculate D2E/DX2 analytically  !
 ! D29   D(13,12,14,10)        106.4085         calculate D2E/DX2 analytically  !
 --------------------------------------------------------------------------------
 Trust Radius=3.00D-01 FncErr=1.00D-07 GrdErr=1.00D-06 EigMax=2.50D+02 EigMin=1.00D-04
 Number of steps in this run=     76 maximum allowed number of steps=    100.
 Search for a saddle point of order  1.
 GradGradGradGradGradGradGradGradGradGradGradGradGradGradGradGradGradGrad

                          Input orientation:                          
 ---------------------------------------------------------------------
 Center     Atomic      Atomic             Coordinates (Angstroms)
 Number     Number       Type             X           Y           Z
 ---------------------------------------------------------------------
      1          7           0       -0.033000   -0.213000    0.000000
      2          7           0       -0.618000    0.968000    0.000000
      3          6           0       -1.927000    0.752000    0.000000
      4          6           0       -2.071000   -0.646000    0.000000
      5          7           0       -0.859000   -1.216000    0.000000
      6          1           0       -2.653000    1.548000    0.001000
      7          1           0       -2.973000   -1.236000    0.000000
      8          1           0       -0.135610    2.043770   -0.005528
      9          6           0        1.491000   -0.060000    0.000000
     10          8           0        1.696000    1.186000    0.000000
     11          8           0        2.160000   -1.056000    0.000000
     12          8           0        0.513292    2.940120    0.432887
     13          1           0        0.369293    3.136070    1.515920
     14          1           0        1.431200    2.333650    0.285439
 ---------------------------------------------------------------------
                    Distance matrix (angstroms):
                    1          2          3          4          5
     1  N    0.000000
     2  N    1.317948   0.000000
     3  C    2.125667   1.326702   0.000000
     4  C    2.083491   2.171683   1.405397   0.000000
     5  N    1.299340   2.197257   2.239118   1.339345   0.000000
     6  H    3.156822   2.116040   1.077355   2.269881   3.295168
     7  H    3.112897   3.225468   2.246388   1.077824   2.114095
     8  H    2.259108   1.178988   2.208569   3.313703   3.339075
     9  C    1.531661   2.346202   3.513128   3.609881   2.618938
    10  O    2.224105   2.324246   3.648902   4.188856   3.506798
    11  O    2.349446   3.437130   4.469053   4.250819   3.023237
    12  O    3.229240   2.314405   3.306098   4.441420   4.398171
    13  H    3.698124   2.823701   3.640709   4.749431   4.769406
    14  H    2.951404   2.479051   3.722983   4.607081   4.233971
                    6          7          8          9         10
     6  H    0.000000
     7  H    2.802331   0.000000
     8  H    2.565752   4.336785   0.000000
     9  C    4.445042   4.616305   2.659274   0.000000
    10  O    4.364040   5.259814   2.022522   1.262751   0.000000
    11  O    5.472274   5.136155   3.857257   1.199824   2.289511
    12  O    3.485675   5.457252   1.190262   3.184968   2.159427
    13  H    3.735131   5.708234   1.939806   3.710944   2.803736
    14  H    4.168794   5.676342   1.619749   2.411351   1.211897
                   11         12         13         14
    11  O    0.000000
    12  O    4.343733   0.000000
    13  H    4.803967   1.109997   0.000000
    14  H    3.478843   1.110001   1.812625   0.000000
 Stoichiometry    C3H5N3O3
 Framework group  C1[X(C3H5N3O3)]
 Deg. of freedom    36
 Full point group                 C1      NOp   1
 Largest Abelian subgroup         C1      NOp   1
 Largest concise Abelian subgroup C1      NOp   1
                         Standard orientation:                         
 ---------------------------------------------------------------------
 Center     Atomic      Atomic             Coordinates (Angstroms)
 Number     Number       Type             X           Y           Z
 ---------------------------------------------------------------------
      1          7           0       -0.364935   -0.549997   -0.006064
      2          7           0       -0.427545    0.760526   -0.130942
      3          6           0       -1.711843    1.091805   -0.099796
      4          6           0       -2.403185   -0.122222    0.052934
      5          7           0       -1.522257   -1.129598    0.107752
      6          1           0       -2.057532    2.108955   -0.181024
      7          1           0       -3.464744   -0.295373    0.122325
      8          1           0        0.444201    1.544359   -0.256143
      9          6           0        1.090889   -1.025296   -0.031626
     10          8           0        1.777210    0.025824   -0.168200
     11          8           0        1.304414   -2.201352    0.072659
     12          8           0        1.418323    2.140883    0.078479
     13          1           0        1.418211    2.482380    1.134638
     14          1           0        2.008288    1.204595   -0.007588
 ---------------------------------------------------------------------
 Rotational constants (GHZ):           2.2475554           1.7372073           0.9897704
 Standard basis: 6-31+G(d,p) (6D, 7F)
 There are   196 symmetry adapted cartesian basis functions of A   symmetry.
 There are   196 symmetry adapted basis functions of A   symmetry.
   196 basis functions,   323 primitive gaussians,   196 cartesian basis functions
    34 alpha electrons       34 beta electrons
       nuclear repulsion energy       471.0838266426 Hartrees.
 NAtoms=   14 NActive=   14 NUniq=   14 SFac= 1.00D+00 NAtFMM=   60 NAOKFM=F Big=F
 Integral buffers will be    131072 words long.
 Raffenetti 2 integral format.
 Two-electron integral symmetry is turned on.
 One-electron integrals computed using PRISM.
 NBasis=   196 RedAO= T EigKep=  2.21D-05  NBF=   196
 NBsUse=   196 1.00D-06 EigRej= -1.00D+00 NBFU=   196
 ExpMin= 4.38D-02 ExpMax= 5.48D+03 ExpMxC= 8.25D+02 IAcc=3 IRadAn=         5 AccDes= 0.00D+00
 Harris functional with IExCor= 1009 and IRadAn=       5 diagonalized for initial guess.
 HarFok:  IExCor= 1009 AccDes= 0.00D+00 IRadAn=         5 IDoV= 1 UseB2=F ITyADJ=14
 ICtDFT=  3500011 ScaDFX=  1.000000  1.000000  1.000000  1.000000
 FoFCou: FMM=F IPFlag=           0 FMFlag=      100000 FMFlg1=           0
         NFxFlg=           0 DoJE=T BraDBF=F KetDBF=T FulRan=T
         wScrn=  0.000000 ICntrl=       500 IOpCl=  0 I1Cent=   200000004 NGrid=           0
         NMat0=    1 NMatS0=      1 NMatT0=    0 NMatD0=    1 NMtDS0=    0 NMtDT0=    0
 Petite list used in FoFCou.
 Requested convergence on RMS density matrix=1.00D-08 within 128 cycles.
 Requested convergence on MAX density matrix=1.00D-06.
 Requested convergence on             energy=1.00D-06.
 No special actions if energy rises.
 SCF Done:  E(RM062X) =  -506.987131898     A.U. after   14 cycles
            NFock= 14  Conv=0.70D-08     -V/T= 2.0077
 DoSCS=F DFT=T ScalE2(SS,OS)=  1.000000  1.000000
 Range of M.O.s used for correlation:     1   196
 NBasis=   196 NAE=    34 NBE=    34 NFC=     0 NFV=     0
 NROrb=    196 NOA=    34 NOB=    34 NVA=   162 NVB=   162

 **** Warning!!: The largest alpha MO coefficient is  0.73415793D+02

 Symmetrizing basis deriv contribution to polar:
 IMax=3 JMax=2 DiffMx= 0.00D+00
 G2DrvN: will do    15 centers at a time, making    1 passes.
 Calling FoFCou, ICntrl=  3107 FMM=F I1Cent=   0 AccDes= 0.00D+00.
 End of G2Drv F.D. properties file   721 does not exist.
 End of G2Drv F.D. properties file   722 does not exist.
 End of G2Drv F.D. properties file   788 does not exist.
          IDoAtm=11111111111111
          Differentiating once with respect to nuclear coordinates.
 Keep R1 ints in memory in canonical form, NReq=210913844.
          There are    45 degrees of freedom in the 1st order CPHF.  IDoFFX=6 NUNeed=     0.
     39 vectors produced by pass  0 Test12= 1.22D-14 2.22D-09 XBig12= 1.72D-01 1.14D-01.
 AX will form    39 AO Fock derivatives at one time.
     39 vectors produced by pass  1 Test12= 1.22D-14 2.22D-09 XBig12= 2.64D-02 4.44D-02.
     39 vectors produced by pass  2 Test12= 1.22D-14 2.22D-09 XBig12= 5.99D-04 4.05D-03.
     39 vectors produced by pass  3 Test12= 1.22D-14 2.22D-09 XBig12= 7.01D-06 3.57D-04.
     39 vectors produced by pass  4 Test12= 1.22D-14 2.22D-09 XBig12= 6.82D-08 2.95D-05.
     39 vectors produced by pass  5 Test12= 1.22D-14 2.22D-09 XBig12= 3.80D-10 3.20D-06.
     36 vectors produced by pass  6 Test12= 1.22D-14 2.22D-09 XBig12= 1.62D-12 1.87D-07.
      7 vectors produced by pass  7 Test12= 1.22D-14 2.22D-09 XBig12= 5.87D-15 8.57D-09.
 InvSVY:  IOpt=1 It=  1 EMax= 1.33D-15
 Solved reduced A of dimension   277 with    39 vectors.
 End of Minotr F.D. properties file   721 does not exist.
 End of Minotr F.D. properties file   722 does not exist.
 End of Minotr F.D. properties file   788 does not exist.

 **********************************************************************

            Population analysis using the SCF density.

 **********************************************************************

 Orbital symmetries:
       Occupied  (A) (A) (A) (A) (A) (A) (A) (A) (A) (A) (A) (A)
                 (A) (A) (A) (A) (A) (A) (A) (A) (A) (A) (A) (A)
                 (A) (A) (A) (A) (A) (A) (A) (A) (A) (A)
       Virtual   (A) (A) (A) (A) (A) (A) (A) (A) (A) (A) (A) (A)
                 (A) (A) (A) (A) (A) (A) (A) (A) (A) (A) (A) (A)
                 (A) (A) (A) (A) (A) (A) (A) (A) (A) (A) (A) (A)
                 (A) (A) (A) (A) (A) (A) (A) (A) (A) (A) (A) (A)
                 (A) (A) (A) (A) (A) (A) (A) (A) (A) (A) (A) (A)
                 (A) (A) (A) (A) (A) (A) (A) (A) (A) (A) (A) (A)
                 (A) (A) (A) (A) (A) (A) (A) (A) (A) (A) (A) (A)
                 (A) (A) (A) (A) (A) (A) (A) (A) (A) (A) (A) (A)
                 (A) (A) (A) (A) (A) (A) (A) (A) (A) (A) (A) (A)
                 (A) (A) (A) (A) (A) (A) (A) (A) (A) (A) (A) (A)
                 (A) (A) (A) (A) (A) (A) (A) (A) (A) (A) (A) (A)
                 (A) (A) (A) (A) (A) (A) (A) (A) (A) (A) (A) (A)
                 (A) (A) (A) (A) (A) (A) (A) (A) (A) (A) (A) (A)
                 (A) (A) (A) (A) (A) (A)
 The electronic state is 1-A.
 Alpha  occ. eigenvalues --  -19.67215 -19.64097 -19.63966 -14.91759 -14.86628
 Alpha  occ. eigenvalues --  -14.84978 -10.72864 -10.63630 -10.62200  -1.29806
 Alpha  occ. eigenvalues --   -1.21729  -1.16448  -1.11956  -1.05966  -0.97108
 Alpha  occ. eigenvalues --   -0.78118  -0.76542  -0.73537  -0.70410  -0.62224
 Alpha  occ. eigenvalues --   -0.60868  -0.58575  -0.56729  -0.54717  -0.52570
 Alpha  occ. eigenvalues --   -0.52154  -0.46715  -0.43306  -0.41736  -0.39907
 Alpha  occ. eigenvalues --   -0.39266  -0.37319  -0.36917  -0.36230
 Alpha virt. eigenvalues --   -0.03010  -0.00653   0.01732   0.02371   0.03128
 Alpha virt. eigenvalues --    0.03861   0.05360   0.05729   0.06734   0.07620
 Alpha virt. eigenvalues --    0.09207   0.09889   0.10169   0.10564   0.11682
 Alpha virt. eigenvalues --    0.13107   0.16212   0.17472   0.18415   0.18789
 Alpha virt. eigenvalues --    0.19598   0.19653   0.20123   0.21080   0.21238
 Alpha virt. eigenvalues --    0.21930   0.22881   0.24551   0.25056   0.26544
 Alpha virt. eigenvalues --    0.27362   0.28184   0.28778   0.30012   0.30389
 Alpha virt. eigenvalues --    0.30877   0.31412   0.31717   0.33118   0.35173
 Alpha virt. eigenvalues --    0.35711   0.36480   0.37684   0.39427   0.41862
 Alpha virt. eigenvalues --    0.43894   0.46277   0.47318   0.48389   0.51488
 Alpha virt. eigenvalues --    0.52648   0.68286   0.69589   0.71456   0.72609
 Alpha virt. eigenvalues --    0.80065   0.81984   0.84893   0.86218   0.88037
 Alpha virt. eigenvalues --    0.90033   0.90369   0.93392   0.94140   0.94330
 Alpha virt. eigenvalues --    0.94569   0.99126   0.99328   1.01572   1.02883
 Alpha virt. eigenvalues --    1.07262   1.13462   1.13934   1.17264   1.19425
 Alpha virt. eigenvalues --    1.23953   1.25921   1.26158   1.26554   1.27660
 Alpha virt. eigenvalues --    1.30577   1.32518   1.33771   1.35009   1.37114
 Alpha virt. eigenvalues --    1.37946   1.39093   1.40934   1.41699   1.44198
 Alpha virt. eigenvalues --    1.45956   1.49711   1.51013   1.56163   1.59060
 Alpha virt. eigenvalues --    1.59925   1.64789   1.67600   1.73283   1.76814
 Alpha virt. eigenvalues --    1.77751   1.79256   1.83366   1.84634   1.86473
 Alpha virt. eigenvalues --    1.92272   1.94750   2.00068   2.00607   2.01224
 Alpha virt. eigenvalues --    2.04402   2.05771   2.08957   2.12970   2.14604
 Alpha virt. eigenvalues --    2.18811   2.20949   2.21697   2.23588   2.27649
 Alpha virt. eigenvalues --    2.29785   2.33339   2.34917   2.40581   2.41098
 Alpha virt. eigenvalues --    2.44870   2.48168   2.49211   2.52481   2.55692
 Alpha virt. eigenvalues --    2.58334   2.59191   2.66853   2.69057   2.76351
 Alpha virt. eigenvalues --    2.77622   2.80760   2.85832   2.86921   2.89036
 Alpha virt. eigenvalues --    2.91440   3.00989   3.08896   3.11818   3.14972
 Alpha virt. eigenvalues --    3.23055   3.24602   3.27880   3.37772   3.44579
 Alpha virt. eigenvalues --    3.65658   3.80660   3.96530   4.07552   4.21449
 Alpha virt. eigenvalues --    4.27605   4.36680   4.38852   4.46620   4.60696
 Alpha virt. eigenvalues --    4.70866   4.86787
          Condensed to atoms (all electrons):
               1          2          3          4          5          6
     1  N    8.771610  -0.871933   0.023558  -0.078082  -0.522727   0.002907
     2  N   -0.871933   7.789656   0.145582   0.045517   0.052703  -0.050672
     3  C    0.023558   0.145582   5.444306   0.151824  -0.042258   0.393404
     4  C   -0.078082   0.045517   0.151824   5.384909   0.311003  -0.009499
     5  N   -0.522727   0.052703  -0.042258   0.311003   7.428470   0.000564
     6  H    0.002907  -0.050672   0.393404  -0.009499   0.000564   0.456713
     7  H    0.005955  -0.017007   0.001299   0.375702  -0.040004   0.000482
     8  H    0.009948   0.170486  -0.016257   0.000376   0.006547  -0.000895
     9  C    0.011602   0.072862  -0.029188   0.001596  -0.043440  -0.000718
    10  O   -0.046564  -0.058223   0.010427  -0.003781  -0.031105  -0.000332
    11  O    0.006745   0.010860  -0.003037  -0.001596  -0.073630   0.000015
    12  O   -0.168512  -0.010261   0.003760  -0.003500   0.020258   0.001401
    13  H   -0.003545   0.006954   0.002553   0.001133   0.000376  -0.000069
    14  H    0.021930  -0.010508  -0.000094  -0.001068   0.001991  -0.000011
               7          8          9         10         11         12
     1  N    0.005955   0.009948   0.011602  -0.046564   0.006745  -0.168512
     2  N   -0.017007   0.170486   0.072862  -0.058223   0.010860  -0.010261
     3  C    0.001299  -0.016257  -0.029188   0.010427  -0.003037   0.003760
     4  C    0.375702   0.000376   0.001596  -0.003781  -0.001596  -0.003500
     5  N   -0.040004   0.006547  -0.043440  -0.031105  -0.073630   0.020258
     6  H    0.000482  -0.000895  -0.000718  -0.000332   0.000015   0.001401
     7  H    0.479434  -0.000046   0.000196   0.000027   0.000021   0.000011
     8  H   -0.000046   0.242873  -0.005036   0.011410   0.000648   0.081760
     9  C    0.000196  -0.005036   4.389826   0.335367   0.467170   0.001969
    10  O    0.000027   0.011410   0.335367   8.613676  -0.097017  -0.167532
    11  O    0.000021   0.000648   0.467170  -0.097017   8.128334  -0.009494
    12  O    0.000011   0.081760   0.001969  -0.167532  -0.009494   8.605158
    13  H   -0.000000  -0.012822  -0.000680   0.000804   0.000089   0.269545
    14  H   -0.000000  -0.006085  -0.000770   0.084302   0.001293   0.176712
              13         14
     1  N   -0.003545   0.021930
     2  N    0.006954  -0.010508
     3  C    0.002553  -0.000094
     4  C    0.001133  -0.001068
     5  N    0.000376   0.001991
     6  H   -0.000069  -0.000011
     7  H   -0.000000  -0.000000
     8  H   -0.012822  -0.006085
     9  C   -0.000680  -0.000770
    10  O    0.000804   0.084302
    11  O    0.000089   0.001293
    12  O    0.269545   0.176712
    13  H    0.347559  -0.012530
    14  H   -0.012530   0.211240
 Mulliken charges:
               1
     1  N   -0.162893
     2  N   -0.276017
     3  C   -0.085880
     4  C   -0.174534
     5  N   -0.068748
     6  H    0.206711
     7  H    0.193930
     8  H    0.517093
     9  C    0.799243
    10  O   -0.651459
    11  O   -0.430402
    12  O   -0.801275
    13  H    0.400633
    14  H    0.533598
 Sum of Mulliken charges =  -0.00000
 Mulliken charges with hydrogens summed into heavy atoms:
               1
     1  N   -0.162893
     2  N    0.241076
     3  C    0.120831
     4  C    0.019397
     5  N   -0.068748
     9  C    0.799243
    10  O   -0.651459
    11  O   -0.430402
    12  O    0.132955
 APT charges:
               1
     1  N   -0.694722
     2  N   -0.221321
     3  C   -0.390082
     4  C   -0.460052
     5  N    0.064097
     6  H    0.663770
     7  H    0.794850
     8  H    0.408551
     9  C    0.189785
    10  O   -0.504688
    11  O   -0.049919
    12  O   -0.901404
    13  H    0.660280
    14  H    0.440857
 Sum of APT charges =  -0.00000
 APT charges with hydrogens summed into heavy atoms:
               1
     1  N   -0.694722
     2  N    0.187230
     3  C    0.273688
     4  C    0.334798
     5  N    0.064097
     9  C    0.189785
    10  O   -0.504688
    11  O   -0.049919
    12  O    0.199732
 Electronic spatial extent (au):  <R**2>=           1102.3734
 Charge=             -0.0000 electrons
 Dipole moment (field-independent basis, Debye):
    X=             -4.1579    Y=              5.4262    Z=              1.3987  Tot=              6.9777
 Quadrupole moment (field-independent basis, Debye-Ang):
   XX=            -49.1924   YY=            -58.5860   ZZ=            -49.8283
   XY=              0.3664   XZ=              3.1139   YZ=              4.7269
 Traceless Quadrupole moment (field-independent basis, Debye-Ang):
   XX=              3.3432   YY=             -6.0504   ZZ=              2.7073
   XY=              0.3664   XZ=              3.1139   YZ=              4.7269
 Octapole moment (field-independent basis, Debye-Ang**2):
  XXX=            -22.2482  YYY=             33.4951  ZZZ=              3.6129  XYY=             -9.3264
  XXY=             14.9534  XXZ=              5.2729  XZZ=             10.7094  YZZ=              6.1221
  YYZ=              9.8515  XYZ=              7.7643
 Hexadecapole moment (field-independent basis, Debye-Ang**3):
 XXXX=           -681.0467 YYYY=           -618.0321 ZZZZ=            -52.5510 XXXY=             13.3831
 XXXZ=              6.1862 YYYX=             -1.8829 YYYZ=             36.0834 ZZZX=              5.8245
 ZZZY=             10.5306 XXYY=           -232.7919 XXZZ=           -138.3459 YYZZ=            -88.7759
 XXYZ=             10.0532 YYXZ=             19.9043 ZZXY=             10.6699
 N-N= 4.710838266426D+02 E-N=-2.128313636539D+03  KE= 5.030889316057D+02
  Exact polarizability:   0.000   0.000   0.000   0.000   0.000   0.000
 Approx polarizability:  93.326  -1.005 105.675  -0.959  -2.300  54.600
 Calling FoFJK, ICntrl=    100147 FMM=F ISym2X=0 I1Cent= 0 IOpClX= 0 NMat=1 NMatS=1 NMatT=0.
 ***** Axes restored to original set *****
 -------------------------------------------------------------------
 Center     Atomic                   Forces (Hartrees/Bohr)
 Number     Number              X              Y              Z
 -------------------------------------------------------------------
      1        7           0.008676342    0.016171519   -0.002113097
      2        7          -0.055989981   -0.023436313   -0.016494428
      3        6          -0.000036726   -0.017540888    0.000526259
      4        6          -0.004672562    0.000564039    0.000648253
      5        7          -0.002300974    0.001583657    0.001053894
      6        1          -0.000157557    0.001199517   -0.000610478
      7        1           0.000363594   -0.001828347    0.000042863
      8        1           0.009284018    0.007654365    0.022982735
      9        6           0.012447113    0.002257849    0.002296766
     10        8           0.060190010   -0.064042534   -0.017475224
     11        8          -0.006397476    0.005390410   -0.000129820
     12        8           0.001066513    0.075510336    0.092095089
     13        1           0.010568999   -0.016937972   -0.093616110
     14        1          -0.033041315    0.013454362    0.010793296
 -------------------------------------------------------------------
 Cartesian Forces:  Max     0.093616110 RMS     0.030204248
 FormGI is forming the generalized inverse of G from B-inverse, IUseBI=4.

 GradGradGradGradGradGradGradGradGradGradGradGradGradGradGradGradGradGrad
 Berny optimization.
 Internal  Forces:  Max     0.095702620 RMS     0.018297301
 Search for a saddle point.
 Step number   1 out of a maximum of   76
 All quantities printed in internal units (Hartrees-Bohrs-Radians)
 Swapping is turned off.
 Second derivative matrix not updated -- analytic derivatives used.
 ITU=  0
     Eigenvalues ---   -0.01105   0.00271   0.00403   0.00494   0.00793
     Eigenvalues ---    0.01108   0.01439   0.02296   0.02718   0.04578
     Eigenvalues ---    0.04640   0.05425   0.06332   0.06565   0.07577
     Eigenvalues ---    0.08069   0.10205   0.10513   0.10990   0.16001
     Eigenvalues ---    0.19134   0.20318   0.24109   0.25232   0.28171
     Eigenvalues ---    0.31627   0.35649   0.38698   0.38879   0.40159
     Eigenvalues ---    0.42734   0.47577   0.53111   0.59991   0.63346
     Eigenvalues ---    0.94377
 Eigenvectors required to have negative eigenvalues:
                          R10       R13       R5        R15       D29
   1                   -0.48853  -0.43831   0.40849   0.35572  -0.19115
                          A19       R3        A22       A18       D24
   1                   -0.18395  -0.17914   0.16354  -0.15325  -0.13452
 RFO step:  Lambda0=1.798296180D-04 Lambda=-7.71920317D-02.
 Linear search not attempted -- option 19 set.
 Maximum step size (   0.300) exceeded in Quadratic search.
    -- Step size scaled by   0.549
 Iteration  1 RMS(Cart)=  0.04637946 RMS(Int)=  0.00266599
 Iteration  2 RMS(Cart)=  0.00159303 RMS(Int)=  0.00056546
 Iteration  3 RMS(Cart)=  0.00000970 RMS(Int)=  0.00056541
 Iteration  4 RMS(Cart)=  0.00000001 RMS(Int)=  0.00056541
 Variable       Old X    -DE/DX   Delta X   Delta X   Delta X     New X
                                 (Linear)    (Quad)   (Total)
    R1        2.49056   0.01038   0.00000   0.00726   0.00681   2.49737
    R2        2.45540   0.00443   0.00000   0.00229   0.00234   2.45774
    R3        2.89442   0.02146   0.00000   0.01170   0.01210   2.90652
    R4        2.50710   0.00567   0.00000   0.00378   0.00373   2.51083
    R5        2.22796   0.04381   0.00000   0.08452   0.08374   2.31170
    R6        2.65581  -0.00306   0.00000  -0.00467  -0.00470   2.65111
    R7        2.03591   0.00099   0.00000   0.00129   0.00129   2.03720
    R8        2.53099  -0.00120   0.00000  -0.00290  -0.00287   2.52813
    R9        2.03679   0.00070   0.00000   0.00052   0.00052   2.03731
   R10        2.24927   0.03074   0.00000  -0.00282  -0.00364   2.24563
   R11        2.38625  -0.01543   0.00000  -0.00780  -0.00705   2.37921
   R12        2.26734  -0.00804   0.00000  -0.00413  -0.00413   2.26321
   R13        2.29015   0.05574   0.00000   0.06931   0.06995   2.36010
   R14        2.09759  -0.09570   0.00000  -0.19500  -0.19500   1.90259
   R15        2.09760   0.02657   0.00000   0.00478   0.00495   2.10255
    A1        1.99275  -0.01012   0.00000  -0.00509  -0.00521   1.98755
    A2        1.93065   0.02829   0.00000   0.05698   0.05718   1.98783
    A3        2.35978  -0.01817   0.00000  -0.05189  -0.05200   2.30778
    A4        1.86717   0.00060   0.00000  -0.00477  -0.00450   1.86267
    A5        2.26013  -0.02628   0.00000  -0.06146  -0.06230   2.19784
    A6        2.15586   0.02570   0.00000   0.06633   0.06675   2.22261
    A7        1.83698   0.00312   0.00000   0.00726   0.00711   1.84409
    A8        2.14670  -0.00226   0.00000  -0.00565  -0.00558   2.14112
    A9        2.29951  -0.00086   0.00000  -0.00161  -0.00155   2.29797
   A10        1.90776  -0.00283   0.00000  -0.00490  -0.00496   1.90279
   A11        2.25269   0.00317   0.00000   0.00662   0.00665   2.25934
   A12        2.12274  -0.00035   0.00000  -0.00171  -0.00169   2.12105
   A13        1.82012   0.00923   0.00000   0.00751   0.00754   1.82766
   A14        2.71042   0.00946   0.00000   0.03838   0.03949   2.74991
   A15        1.83392   0.00429   0.00000   0.02693   0.02842   1.86235
   A16        2.06221  -0.00476   0.00000  -0.01902  -0.01979   2.04242
   A17        2.38706   0.00047   0.00000  -0.00790  -0.00866   2.37840
   A18        2.68817  -0.02850   0.00000  -0.10913  -0.10868   2.57948
   A19        2.00601  -0.00464   0.00000  -0.02817  -0.02745   1.97856
   A20        1.56124  -0.01234   0.00000  -0.02435  -0.02519   1.53605
   A21        1.91064   0.00200   0.00000   0.01284   0.01223   1.92287
   A22        2.38821   0.02964   0.00000   0.09541   0.09610   2.48431
    D1        0.00000  -0.00190   0.00000  -0.00459  -0.00451  -0.00451
    D2       -3.13552  -0.00594   0.00000  -0.02338  -0.02205   3.12562
    D3        3.14159   0.00143   0.00000   0.00187   0.00187  -3.13972
    D4        0.00608  -0.00262   0.00000  -0.01692  -0.01567  -0.00959
    D5       -0.00000   0.00210   0.00000   0.00485   0.00479   0.00479
    D6        3.14159  -0.00232   0.00000  -0.00373  -0.00309   3.13850
    D7       -0.00000  -0.01045   0.00000  -0.03224  -0.03099  -0.03099
    D8        3.14159  -0.00777   0.00000  -0.02575  -0.02495   3.11664
    D9        3.14159  -0.00614   0.00000  -0.02388  -0.02311   3.11848
   D10        0.00000  -0.00347   0.00000  -0.01739  -0.01707  -0.01707
   D11       -0.00000   0.00082   0.00000   0.00219   0.00218   0.00218
   D12        3.14049  -0.00018   0.00000  -0.00093  -0.00105   3.13944
   D13        3.13597   0.00434   0.00000   0.01905   0.01947  -3.12774
   D14       -0.00673   0.00334   0.00000   0.01593   0.01625   0.00952
   D15       -1.10453   0.00513   0.00000   0.02821   0.02773  -1.07681
   D16        2.04403   0.00061   0.00000   0.00696   0.00695   2.05098
   D17        0.00000   0.00041   0.00000   0.00064   0.00061   0.00061
   D18        3.14159  -0.00077   0.00000  -0.00164  -0.00169   3.13991
   D19       -3.14035   0.00154   0.00000   0.00415   0.00425  -3.13610
   D20        0.00124   0.00035   0.00000   0.00187   0.00195   0.00320
   D21       -0.00000  -0.00147   0.00000  -0.00320  -0.00315  -0.00315
   D22        3.14159  -0.00039   0.00000  -0.00112  -0.00107   3.14052
   D23       -0.74106  -0.00051   0.00000  -0.01377  -0.01442  -0.75548
   D24        1.20141  -0.00519   0.00000  -0.01632  -0.01692   1.18449
   D25        0.56769  -0.00549   0.00000  -0.03750  -0.03719   0.53050
   D26       -2.57391  -0.00894   0.00000  -0.04585  -0.04497  -2.61888
   D27       -0.57916   0.00196   0.00000   0.02767   0.02720  -0.55196
   D28       -0.17348   0.01170   0.00000   0.03990   0.03899  -0.13449
   D29        1.85718   0.00224   0.00000   0.00229   0.00154   1.85871
         Item               Value     Threshold  Converged?
 Maximum Force            0.095703     0.000450     NO 
 RMS     Force            0.018297     0.000300     NO 
 Maximum Displacement     0.135069     0.001800     NO 
 RMS     Displacement     0.046482     0.001200     NO 
 Predicted change in Energy=-3.440169D-02
 GradGradGradGradGradGradGradGradGradGradGradGradGradGradGradGradGradGrad

                          Input orientation:                          
 ---------------------------------------------------------------------
 Center     Atomic      Atomic             Coordinates (Angstroms)
 Number     Number       Type             X           Y           Z
 ---------------------------------------------------------------------
      1          7           0       -0.041020   -0.172481   -0.003591
      2          7           0       -0.661819    0.994105    0.010009
      3          6           0       -1.964758    0.733936    0.003310
      4          6           0       -2.071509   -0.664819   -0.012222
      5          7           0       -0.843591   -1.195852   -0.013582
      6          1           0       -2.713248    1.509709    0.013458
      7          1           0       -2.953700   -1.284476   -0.020179
      8          1           0       -0.124596    2.092795    0.037025
      9          6           0        1.493047   -0.061974    0.004379
     10          8           0        1.767475    1.166627   -0.014775
     11          8           0        2.112346   -1.086955    0.019357
     12          8           0        0.545915    2.977414    0.461300
     13          1           0        0.411309    3.143942    1.445076
     14          1           0        1.435323    2.328640    0.300153
 ---------------------------------------------------------------------
                    Distance matrix (angstroms):
                    1          2          3          4          5
     1  N    0.000000
     2  N    1.321552   0.000000
     3  C    2.126595   1.328676   0.000000
     4  C    2.089344   2.177096   1.402909   0.000000
     5  N    1.300580   2.197614   2.231901   1.337827   0.000000
     6  H    3.157667   2.115235   1.078037   2.267391   3.288831
     7  H    3.117774   3.231959   2.247787   1.078100   2.111980
     8  H    2.267181   1.223298   2.287756   3.375993   3.366707
     9  C    1.538062   2.399747   3.548223   3.615211   2.597283
    10  O    2.250331   2.435539   3.757274   4.253469   3.521218
    11  O    2.339610   3.467981   4.465275   4.205215   2.958125
    12  O    3.237662   2.365545   3.398003   4.510099   4.424070
    13  H    3.647177   2.798718   3.678656   4.774386   4.747238
    14  H    2.920180   2.502633   3.767193   4.621281   4.208791
                    6          7          8          9         10
     6  H    0.000000
     7  H    2.804714   0.000000
     8  H    2.653613   4.406025   0.000000
     9  C    4.490344   4.611797   2.694599   0.000000
    10  O    4.493927   5.319533   2.107227   1.259023   0.000000
    11  O    5.479878   5.070049   3.887806   1.197640   2.280073
    12  O    3.602341   5.535597   1.188337   3.216166   2.235578
    13  H    3.805667   5.751621   1.837039   3.677454   2.807156
    14  H    4.238335   5.693921   1.599439   2.409533   1.248911
                   11         12         13         14
    11  O    0.000000
    12  O    4.378141   0.000000
    13  H    4.777729   1.006809   0.000000
    14  H    3.493350   1.112620   1.739014   0.000000
 Stoichiometry    C3H5N3O3
 Framework group  C1[X(C3H5N3O3)]
 Deg. of freedom    36
 Full point group                 C1      NOp   1
 Largest Abelian subgroup         C1      NOp   1
 Largest concise Abelian subgroup C1      NOp   1
                         Standard orientation:                         
 ---------------------------------------------------------------------
 Center     Atomic      Atomic             Coordinates (Angstroms)
 Number     Number       Type             X           Y           Z
 ---------------------------------------------------------------------
      1          7           0       -0.367631   -0.506634   -0.013966
      2          7           0       -0.443021    0.808086   -0.124992
      3          6           0       -1.733828    1.121230   -0.091244
      4          6           0       -2.415387   -0.096821    0.050106
      5          7           0       -1.523339   -1.092721    0.097162
      6          1           0       -2.088365    2.136906   -0.161037
      7          1           0       -3.474682   -0.285106    0.118971
      8          1           0        0.504375    1.575448   -0.225269
      9          6           0        1.070419   -1.051914   -0.031800
     10          8           0        1.831144   -0.061273   -0.190129
     11          8           0        1.205124   -2.235511    0.091860
     12          8           0        1.505082    2.132342    0.091909
     13          1           0        1.506412    2.435010    1.052146
     14          1           0        2.032177    1.157178   -0.003735
 ---------------------------------------------------------------------
 Rotational constants (GHZ):           2.2245148           1.7073719           0.9753809
 Standard basis: 6-31+G(d,p) (6D, 7F)
 There are   196 symmetry adapted cartesian basis functions of A   symmetry.
 There are   196 symmetry adapted basis functions of A   symmetry.
   196 basis functions,   323 primitive gaussians,   196 cartesian basis functions
    34 alpha electrons       34 beta electrons
       nuclear repulsion energy       468.7114089022 Hartrees.
 NAtoms=   14 NActive=   14 NUniq=   14 SFac= 1.00D+00 NAtFMM=   60 NAOKFM=F Big=F
 Integral buffers will be    131072 words long.
 Raffenetti 2 integral format.
 Two-electron integral symmetry is turned on.
 One-electron integrals computed using PRISM.
 NBasis=   196 RedAO= T EigKep=  2.21D-05  NBF=   196
 NBsUse=   196 1.00D-06 EigRej= -1.00D+00 NBFU=   196
 Initial guess from the checkpoint file:  "/scratch/gongke2021/1-H-Tz-TS-2/Gau-22950.chk"
 B after Tr=    -0.000000   -0.000000   -0.000000
         Rot=    0.999922    0.000091   -0.000179    0.012462 Ang=   1.43 deg.
 ExpMin= 4.38D-02 ExpMax= 5.48D+03 ExpMxC= 8.25D+02 IAcc=2 IRadAn=         4 AccDes= 0.00D+00
 Harris functional with IExCor= 1009 and IRadAn=       4 diagonalized for initial guess.
 HarFok:  IExCor= 1009 AccDes= 0.00D+00 IRadAn=         4 IDoV= 1 UseB2=F ITyADJ=14
 ICtDFT=  3500011 ScaDFX=  1.000000  1.000000  1.000000  1.000000
 FoFCou: FMM=F IPFlag=           0 FMFlag=      100000 FMFlg1=           0
         NFxFlg=           0 DoJE=T BraDBF=F KetDBF=T FulRan=T
         wScrn=  0.000000 ICntrl=       500 IOpCl=  0 I1Cent=   200000004 NGrid=           0
         NMat0=    1 NMatS0=      1 NMatT0=    0 NMatD0=    1 NMtDS0=    0 NMtDT0=    0
 Petite list used in FoFCou.
 Requested convergence on RMS density matrix=1.00D-08 within 128 cycles.
 Requested convergence on MAX density matrix=1.00D-06.
 Requested convergence on             energy=1.00D-06.
 No special actions if energy rises.
 SCF Done:  E(RM062X) =  -507.020576013     A.U. after   13 cycles
            NFock= 13  Conv=0.54D-08     -V/T= 2.0078
 Calling FoFJK, ICntrl=      2127 FMM=F ISym2X=0 I1Cent= 0 IOpClX= 0 NMat=1 NMatS=1 NMatT=0.
 ***** Axes restored to original set *****
 -------------------------------------------------------------------
 Center     Atomic                   Forces (Hartrees/Bohr)
 Number     Number              X              Y              Z
 -------------------------------------------------------------------
      1        7           0.004825870    0.011907445   -0.000622243
      2        7          -0.035024884   -0.013453426   -0.013804090
      3        6           0.000681766   -0.011291159    0.000425421
      4        6          -0.002746154    0.000546705    0.000748899
      5        7          -0.000365747    0.000294907    0.000430325
      6        1           0.000009153    0.000778001   -0.000572832
      7        1           0.000342839   -0.001114059   -0.000036322
      8        1           0.003637778    0.005377435    0.020718231
      9        6           0.005647744    0.001262350    0.001458223
     10        8           0.042108474   -0.037400234   -0.011245952
     11        8          -0.003667818    0.002391722   -0.000296759
     12        8           0.009473324    0.038738764    0.033764954
     13        1           0.003829729   -0.005741483   -0.038362799
     14        1          -0.028752074    0.007703034    0.007394945
 -------------------------------------------------------------------
 Cartesian Forces:  Max     0.042108474 RMS     0.016123174

 GradGradGradGradGradGradGradGradGradGradGradGradGradGradGradGradGradGrad
 Berny optimization.
 FormGI is forming the generalized inverse of G from B-inverse, IUseBI=4.
 Internal  Forces:  Max     0.038946290 RMS     0.010062555
 Search for a saddle point.
 Step number   2 out of a maximum of   76
 All quantities printed in internal units (Hartrees-Bohrs-Radians)
 Swapping is turned off.
 Update second derivatives using D2CorX and points    1    2
 ITU=  0  0
     Eigenvalues ---   -0.01304   0.00259   0.00389   0.00468   0.00793
     Eigenvalues ---    0.01108   0.01438   0.02295   0.02719   0.04284
     Eigenvalues ---    0.04610   0.05328   0.06204   0.06430   0.07269
     Eigenvalues ---    0.08042   0.10200   0.10501   0.10986   0.15608
     Eigenvalues ---    0.20193   0.24099   0.25223   0.27035   0.28166
     Eigenvalues ---    0.31625   0.35122   0.38639   0.38879   0.40006
     Eigenvalues ---    0.42713   0.47573   0.53104   0.59974   0.63340
     Eigenvalues ---    0.94377
 Eigenvectors required to have negative eigenvalues:
                          R10       R13       R5        R15       A22
   1                    0.48421   0.40530  -0.40480  -0.33450  -0.19660
                          A18       D29       A19       R3        D26
   1                    0.18794   0.18351   0.18129   0.17854   0.14517
 RFO step:  Lambda0=5.164113163D-04 Lambda=-3.30754691D-02.
 Linear search not attempted -- option 19 set.
 Maximum step size (   0.300) exceeded in Quadratic search.
    -- Step size scaled by   0.584
 Iteration  1 RMS(Cart)=  0.04586814 RMS(Int)=  0.00274213
 Iteration  2 RMS(Cart)=  0.00209804 RMS(Int)=  0.00085561
 Iteration  3 RMS(Cart)=  0.00001039 RMS(Int)=  0.00085555
 Iteration  4 RMS(Cart)=  0.00000002 RMS(Int)=  0.00085555
 Variable       Old X    -DE/DX   Delta X   Delta X   Delta X     New X
                                 (Linear)    (Quad)   (Total)
    R1        2.49737   0.00614   0.00000   0.00353   0.00300   2.50037
    R2        2.45774   0.00228   0.00000  -0.00345  -0.00337   2.45437
    R3        2.90652   0.01316   0.00000   0.03870   0.03933   2.94585
    R4        2.51083   0.00292   0.00000   0.00441   0.00432   2.51515
    R5        2.31170   0.02596   0.00000  -0.02352  -0.02463   2.28707
    R6        2.65111  -0.00186   0.00000  -0.00849  -0.00853   2.64258
    R7        2.03720   0.00055   0.00000   0.00061   0.00061   2.03781
    R8        2.52813  -0.00062   0.00000   0.00175   0.00182   2.52994
    R9        2.03731   0.00036   0.00000   0.00005   0.00005   2.03736
   R10        2.24563   0.01707   0.00000   0.08611   0.08501   2.33064
   R11        2.37921  -0.00790   0.00000  -0.01313  -0.01208   2.36713
   R12        2.26321  -0.00395   0.00000  -0.00099  -0.00099   2.26222
   R13        2.36010   0.03485   0.00000   0.16924   0.16995   2.53005
   R14        1.90259  -0.03895   0.00000  -0.06108  -0.06108   1.84151
   R15        2.10255   0.01241   0.00000  -0.10176  -0.10163   2.00092
    A1        1.98755  -0.00572   0.00000  -0.00902  -0.00921   1.97834
    A2        1.98783   0.01844   0.00000   0.05264   0.05300   2.04083
    A3        2.30778  -0.01273   0.00000  -0.04364  -0.04381   2.26397
    A4        1.86267   0.00031   0.00000   0.00224   0.00262   1.86529
    A5        2.19784  -0.01764   0.00000  -0.06669  -0.06785   2.12999
    A6        2.22261   0.01730   0.00000   0.06421   0.06481   2.28742
    A7        1.84409   0.00180   0.00000   0.00172   0.00151   1.84560
    A8        2.14112  -0.00145   0.00000  -0.00474  -0.00465   2.13647
    A9        2.29797  -0.00035   0.00000   0.00301   0.00311   2.30108
   A10        1.90279  -0.00157   0.00000  -0.00398  -0.00403   1.89876
   A11        2.25934   0.00191   0.00000   0.00499   0.00502   2.26436
   A12        2.12105  -0.00034   0.00000  -0.00102  -0.00099   2.12006
   A13        1.82766   0.00517   0.00000   0.00902   0.00909   1.83675
   A14        2.74991   0.00751   0.00000   0.06770   0.06945   2.81935
   A15        1.86235   0.00377   0.00000   0.02321   0.02531   1.88765
   A16        2.04242  -0.00401   0.00000  -0.03646  -0.03752   2.00490
   A17        2.37840   0.00022   0.00000   0.01328   0.01223   2.39063
   A18        2.57948  -0.02067   0.00000  -0.10223  -0.10167   2.47781
   A19        1.97856  -0.00276   0.00000   0.01677   0.01784   1.99640
   A20        1.53605  -0.00790   0.00000  -0.01017  -0.01149   1.52456
   A21        1.92287   0.00145   0.00000  -0.00404  -0.00481   1.91806
   A22        2.48431   0.02079   0.00000   0.07975   0.08031   2.56461
    D1       -0.00451  -0.00125   0.00000  -0.00316  -0.00315  -0.00766
    D2        3.12562  -0.00396   0.00000  -0.02381  -0.02199   3.10363
    D3       -3.13972   0.00091   0.00000  -0.00054  -0.00104  -3.14076
    D4       -0.00959  -0.00180   0.00000  -0.02118  -0.01988  -0.02947
    D5        0.00479   0.00138   0.00000   0.00287   0.00280   0.00759
    D6        3.13850  -0.00114   0.00000   0.00012   0.00084   3.13934
    D7       -0.03099  -0.00702   0.00000  -0.02470  -0.02308  -0.05407
    D8        3.11664  -0.00542   0.00000  -0.02971  -0.02839   3.08826
    D9        3.11848  -0.00442   0.00000  -0.02174  -0.02083   3.09765
   D10       -0.01707  -0.00281   0.00000  -0.02675  -0.02613  -0.04320
   D11        0.00218   0.00058   0.00000   0.00202   0.00208   0.00426
   D12        3.13944  -0.00021   0.00000  -0.00115  -0.00119   3.13825
   D13       -3.12774   0.00364   0.00000   0.02419   0.02447  -3.10327
   D14        0.00952   0.00286   0.00000   0.02101   0.02120   0.03072
   D15       -1.07681   0.00389   0.00000   0.02240   0.02086  -1.05595
   D16        2.05098   0.00045   0.00000  -0.00314  -0.00379   2.04718
   D17        0.00061   0.00022   0.00000  -0.00038  -0.00047   0.00014
   D18        3.13991  -0.00054   0.00000  -0.00092  -0.00097   3.13894
   D19       -3.13610   0.00112   0.00000   0.00322   0.00326  -3.13284
   D20        0.00320   0.00035   0.00000   0.00268   0.00276   0.00596
   D21       -0.00315  -0.00095   0.00000  -0.00145  -0.00137  -0.00452
   D22        3.14052  -0.00026   0.00000  -0.00097  -0.00093   3.13959
   D23       -0.75548  -0.00110   0.00000   0.00875   0.00794  -0.74754
   D24        1.18449  -0.00342   0.00000   0.00192  -0.00038   1.18411
   D25        0.53050  -0.00470   0.00000  -0.05402  -0.05315   0.47735
   D26       -2.61888  -0.00678   0.00000  -0.04780  -0.04634  -2.66522
   D27       -0.55196   0.00232   0.00000   0.05701   0.05631  -0.49565
   D28       -0.13449   0.00789   0.00000   0.03945   0.03777  -0.09671
   D29        1.85871   0.00206   0.00000   0.05299   0.05190   1.91061
         Item               Value     Threshold  Converged?
 Maximum Force            0.038946     0.000450     NO 
 RMS     Force            0.010063     0.000300     NO 
 Maximum Displacement     0.152757     0.001800     NO 
 RMS     Displacement     0.045854     0.001200     NO 
 Predicted change in Energy=-1.503036D-02
 GradGradGradGradGradGradGradGradGradGradGradGradGradGradGradGradGradGrad

                          Input orientation:                          
 ---------------------------------------------------------------------
 Center     Atomic      Atomic             Coordinates (Angstroms)
 Number     Number       Type             X           Y           Z
 ---------------------------------------------------------------------
      1          7           0       -0.049604   -0.137705   -0.007421
      2          7           0       -0.705178    1.011378    0.015530
      3          6           0       -2.002898    0.716127    0.001157
      4          6           0       -2.074106   -0.680190   -0.026020
      5          7           0       -0.830308   -1.175486   -0.026950
      6          1           0       -2.768590    1.475279    0.017446
      7          1           0       -2.937168   -1.326120   -0.041972
      8          1           0       -0.132755    2.076073    0.074705
      9          6           0        1.507416   -0.062621    0.004481
     10          8           0        1.840219    1.144522   -0.029113
     11          8           0        2.062363   -1.122712    0.040897
     12          8           0        0.578977    3.001047    0.473381
     13          1           0        0.492145    3.194352    1.424548
     14          1           0        1.410662    2.366666    0.309049
 ---------------------------------------------------------------------
                    Distance matrix (angstroms):
                    1          2          3          4          5
     1  N    0.000000
     2  N    1.323138   0.000000
     3  C    2.131774   1.330961   0.000000
     4  C    2.096006   2.176485   1.398395   0.000000
     5  N    1.298796   2.190852   2.225748   1.338787   0.000000
     6  H    3.161522   2.114917   1.078360   2.265004   3.284123
     7  H    3.122747   3.232488   2.246217   1.078127   2.112291
     8  H    2.216860   1.210267   2.313504   3.372828   3.327093
     9  C    1.558875   2.459506   3.595660   3.634504   2.589288
    10  O    2.283858   2.549268   3.867039   4.318741   3.537535
    11  O    2.330875   3.494891   4.461979   4.160610   2.893948
    12  O    3.236981   2.411942   3.479934   4.565058   4.436197
    13  H    3.666964   2.860820   3.793795   4.868456   4.790742
    14  H    2.916231   2.529771   3.804139   4.641035   4.204959
                    6          7          8          9         10
     6  H    0.000000
     7  H    2.807096   0.000000
     8  H    2.704045   4.410585   0.000000
     9  C    4.544176   4.620921   2.696128   0.000000
    10  O    4.620897   5.378444   2.184306   1.252630   0.000000
    11  O    5.485272   5.004353   3.879679   1.197115   2.279166
    12  O    3.707027   5.599397   1.233322   3.235418   2.299982
    13  H    3.945572   5.860506   1.860947   3.695300   2.851708
    14  H    4.283194   5.715200   1.587922   2.450217   1.338846
                   11         12         13         14
    11  O    0.000000
    12  O    4.403733   0.000000
    13  H    4.797615   0.974488   0.000000
    14  H    3.559828   1.058841   1.665255   0.000000
 Stoichiometry    C3H5N3O3
 Framework group  C1[X(C3H5N3O3)]
 Deg. of freedom    36
 Full point group                 C1      NOp   1
 Largest Abelian subgroup         C1      NOp   1
 Largest concise Abelian subgroup C1      NOp   1
                         Standard orientation:                         
 ---------------------------------------------------------------------
 Center     Atomic      Atomic             Coordinates (Angstroms)
 Number     Number       Type             X           Y           Z
 ---------------------------------------------------------------------
      1          7           0       -0.366702   -0.468300   -0.020105
      2          7           0       -0.466802    0.847356   -0.118710
      3          6           0       -1.764778    1.139742   -0.083701
      4          6           0       -2.426304   -0.085276    0.047537
      5          7           0       -1.515136   -1.065359    0.087083
      6          1           0       -2.130991    2.152243   -0.143623
      7          1           0       -3.481696   -0.294884    0.115134
      8          1           0        0.507507    1.562066   -0.186969
      9          6           0        1.071222   -1.070144   -0.035955
     10          8           0        1.884514   -0.133380   -0.209482
     11          8           0        1.122007   -2.256888    0.112847
     12          8           0        1.568170    2.124153    0.096110
     13          1           0        1.628951    2.426744    1.020432
     14          1           0        2.038343    1.180931   -0.005932
 ---------------------------------------------------------------------
 Rotational constants (GHZ):           2.2071291           1.6745737           0.9615088
 Standard basis: 6-31+G(d,p) (6D, 7F)
 There are   196 symmetry adapted cartesian basis functions of A   symmetry.
 There are   196 symmetry adapted basis functions of A   symmetry.
   196 basis functions,   323 primitive gaussians,   196 cartesian basis functions
    34 alpha electrons       34 beta electrons
       nuclear repulsion energy       466.2690761037 Hartrees.
 NAtoms=   14 NActive=   14 NUniq=   14 SFac= 1.00D+00 NAtFMM=   60 NAOKFM=F Big=F
 Integral buffers will be    131072 words long.
 Raffenetti 2 integral format.
 Two-electron integral symmetry is turned on.
 One-electron integrals computed using PRISM.
 NBasis=   196 RedAO= T EigKep=  2.20D-05  NBF=   196
 NBsUse=   196 1.00D-06 EigRej= -1.00D+00 NBFU=   196
 Initial guess from the checkpoint file:  "/scratch/gongke2021/1-H-Tz-TS-2/Gau-22950.chk"
 B after Tr=     0.000000    0.000000   -0.000000
         Rot=    0.999965    0.000486   -0.000399    0.008343 Ang=   0.96 deg.
 ExpMin= 4.38D-02 ExpMax= 5.48D+03 ExpMxC= 8.25D+02 IAcc=2 IRadAn=         4 AccDes= 0.00D+00
 Harris functional with IExCor= 1009 and IRadAn=       4 diagonalized for initial guess.
 HarFok:  IExCor= 1009 AccDes= 0.00D+00 IRadAn=         4 IDoV= 1 UseB2=F ITyADJ=14
 ICtDFT=  3500011 ScaDFX=  1.000000  1.000000  1.000000  1.000000
 FoFCou: FMM=F IPFlag=           0 FMFlag=      100000 FMFlg1=           0
         NFxFlg=           0 DoJE=T BraDBF=F KetDBF=T FulRan=T
         wScrn=  0.000000 ICntrl=       500 IOpCl=  0 I1Cent=   200000004 NGrid=           0
         NMat0=    1 NMatS0=      1 NMatT0=    0 NMatD0=    1 NMtDS0=    0 NMtDT0=    0
 Petite list used in FoFCou.
 Requested convergence on RMS density matrix=1.00D-08 within 128 cycles.
 Requested convergence on MAX density matrix=1.00D-06.
 Requested convergence on             energy=1.00D-06.
 No special actions if energy rises.
 SCF Done:  E(RM062X) =  -507.035418033     A.U. after   13 cycles
            NFock= 13  Conv=0.61D-08     -V/T= 2.0079
 Calling FoFJK, ICntrl=      2127 FMM=F ISym2X=0 I1Cent= 0 IOpClX= 0 NMat=1 NMatS=1 NMatT=0.
 ***** Axes restored to original set *****
 -------------------------------------------------------------------
 Center     Atomic                   Forces (Hartrees/Bohr)
 Number     Number              X              Y              Z
 -------------------------------------------------------------------
      1        7           0.001552845    0.007622586    0.000116782
      2        7          -0.017425613   -0.005170994   -0.010958315
      3        6           0.000319611   -0.005479099    0.000583765
      4        6          -0.000970286    0.000258261    0.000632027
      5        7           0.000220443   -0.000807550   -0.000113743
      6        1           0.000047437    0.000452628   -0.000497548
      7        1           0.000218032   -0.000570312   -0.000069111
      8        1          -0.004504538    0.001179977    0.015984404
      9        6           0.005859881    0.000551202    0.001317935
     10        8           0.023660689   -0.025005802   -0.006703180
     11        8          -0.001871166    0.001091079   -0.000731679
     12        8           0.006712141    0.023893559    0.006896015
     13        1           0.000028334   -0.001296805   -0.010652090
     14        1          -0.013847811    0.003281271    0.004194738
 -------------------------------------------------------------------
 Cartesian Forces:  Max     0.025005802 RMS     0.008580219

 GradGradGradGradGradGradGradGradGradGradGradGradGradGradGradGradGradGrad
 Berny optimization.
 FormGI is forming the generalized inverse of G from B-inverse, IUseBI=4.
 Internal  Forces:  Max     0.023564638 RMS     0.005609849
 Search for a saddle point.
 Step number   3 out of a maximum of   76
 All quantities printed in internal units (Hartrees-Bohrs-Radians)
 Swapping is turned off.
 Update second derivatives using D2CorX and points    1    2    3
 ITU=  0  0  0
     Eigenvalues ---   -0.01491   0.00300   0.00419   0.00522   0.00810
     Eigenvalues ---    0.01105   0.01438   0.02391   0.02718   0.04248
     Eigenvalues ---    0.04605   0.05426   0.06174   0.06436   0.07502
     Eigenvalues ---    0.08069   0.10201   0.10499   0.10984   0.15374
     Eigenvalues ---    0.20243   0.24081   0.25221   0.28148   0.28870
     Eigenvalues ---    0.31791   0.34477   0.38597   0.38880   0.39923
     Eigenvalues ---    0.42738   0.47574   0.53142   0.59947   0.63334
     Eigenvalues ---    0.94374
 Eigenvectors required to have negative eigenvalues:
                          R10       R13       R5        R15       D29
   1                    0.50416   0.42193  -0.41152  -0.33082   0.18756
                          R3        A22       A19       A18       A17
   1                    0.18487  -0.18404   0.17639   0.17488   0.14081
 RFO step:  Lambda0=1.550847009D-04 Lambda=-1.43563064D-02.
 Linear search not attempted -- option 19 set.
 Maximum step size (   0.300) exceeded in Quadratic search.
    -- Step size scaled by   0.848
 Iteration  1 RMS(Cart)=  0.05188654 RMS(Int)=  0.00863256
 Iteration  2 RMS(Cart)=  0.00472610 RMS(Int)=  0.00273515
 Iteration  3 RMS(Cart)=  0.00019916 RMS(Int)=  0.00272872
 Iteration  4 RMS(Cart)=  0.00000085 RMS(Int)=  0.00272872
 Variable       Old X    -DE/DX   Delta X   Delta X   Delta X     New X
                                 (Linear)    (Quad)   (Total)
    R1        2.50037   0.00501   0.00000   0.00052  -0.00124   2.49913
    R2        2.45437   0.00134   0.00000   0.00106   0.00111   2.45548
    R3        2.94585   0.00916   0.00000   0.01373   0.01476   2.96061
    R4        2.51515   0.00122   0.00000   0.00168   0.00139   2.51654
    R5        2.28707   0.01160   0.00000   0.01663   0.01397   2.30104
    R6        2.64258  -0.00060   0.00000  -0.00375  -0.00358   2.63900
    R7        2.03781   0.00028   0.00000   0.00066   0.00066   2.03847
    R8        2.52994  -0.00022   0.00000  -0.00058  -0.00020   2.52974
    R9        2.03736   0.00017   0.00000   0.00012   0.00012   2.03748
   R10        2.33064   0.01083   0.00000   0.01282   0.00979   2.34043
   R11        2.36713  -0.00520   0.00000   0.00202   0.00440   2.37153
   R12        2.26222  -0.00186   0.00000  -0.00083  -0.00083   2.26138
   R13        2.53005   0.02356   0.00000   0.10428   0.10649   2.63655
   R14        1.84151  -0.01066   0.00000   0.01693   0.01693   1.85844
   R15        2.00092   0.01239   0.00000  -0.00385  -0.00273   1.99819
    A1        1.97834  -0.00328   0.00000  -0.00295  -0.00302   1.97532
    A2        2.04083   0.01178   0.00000   0.07210   0.07082   2.11165
    A3        2.26397  -0.00851   0.00000  -0.06901  -0.06780   2.19617
    A4        1.86529   0.00024   0.00000  -0.00027   0.00072   1.86601
    A5        2.12999  -0.00958   0.00000  -0.07206  -0.07640   2.05358
    A6        2.28742   0.00929   0.00000   0.07122   0.07416   2.36158
    A7        1.84560   0.00073   0.00000   0.00194   0.00127   1.84687
    A8        2.13647  -0.00071   0.00000  -0.00489  -0.00456   2.13192
    A9        2.30108  -0.00002   0.00000   0.00298   0.00331   2.30439
   A10        1.89876  -0.00024   0.00000  -0.00163  -0.00168   1.89707
   A11        2.26436   0.00072   0.00000   0.00348   0.00350   2.26786
   A12        2.12006  -0.00048   0.00000  -0.00184  -0.00181   2.11825
   A13        1.83675   0.00254   0.00000   0.00296   0.00275   1.83950
   A14        2.81935   0.00545   0.00000   0.09486   0.10182   2.92118
   A15        1.88765   0.00144   0.00000   0.05161   0.05440   1.94205
   A16        2.00490  -0.00202   0.00000  -0.03540  -0.03679   1.96811
   A17        2.39063   0.00058   0.00000  -0.01621  -0.01761   2.37303
   A18        2.47781  -0.01138   0.00000  -0.15012  -0.15107   2.32674
   A19        1.99640  -0.00118   0.00000  -0.02111  -0.01861   1.97779
   A20        1.52456  -0.00551   0.00000  -0.03587  -0.04089   1.48367
   A21        1.91806   0.00090   0.00000  -0.00420  -0.00579   1.91227
   A22        2.56461   0.01154   0.00000   0.14001   0.14015   2.70477
    D1       -0.00766  -0.00061   0.00000   0.00639   0.00761  -0.00005
    D2        3.10363  -0.00203   0.00000  -0.02613  -0.01994   3.08369
    D3       -3.14076   0.00046   0.00000  -0.00884  -0.00969   3.13274
    D4       -0.02947  -0.00097   0.00000  -0.04136  -0.03724  -0.06671
    D5        0.00759   0.00067   0.00000  -0.00606  -0.00724   0.00035
    D6        3.13934  -0.00044   0.00000   0.01251   0.01192  -3.13193
    D7       -0.05407  -0.00394   0.00000  -0.00479   0.00252  -0.05155
    D8        3.08826  -0.00287   0.00000  -0.00451   0.00101   3.08927
    D9        3.09765  -0.00273   0.00000  -0.02353  -0.01760   3.08005
   D10       -0.04320  -0.00166   0.00000  -0.02325  -0.01911  -0.06231
   D11        0.00426   0.00029   0.00000  -0.00378  -0.00452  -0.00027
   D12        3.13825  -0.00014   0.00000  -0.00042  -0.00039   3.13785
   D13       -3.10327   0.00237   0.00000   0.03643   0.03430  -3.06898
   D14        0.03072   0.00195   0.00000   0.03980   0.03843   0.06914
   D15       -1.05595   0.00237   0.00000   0.09169   0.08860  -0.96735
   D16        2.04718   0.00025   0.00000   0.04802   0.04832   2.09551
   D17        0.00014   0.00011   0.00000   0.00029   0.00035   0.00049
   D18        3.13894  -0.00026   0.00000   0.00454   0.00509  -3.13916
   D19       -3.13284   0.00060   0.00000  -0.00347  -0.00431  -3.13715
   D20        0.00596   0.00023   0.00000   0.00078   0.00043   0.00639
   D21       -0.00452  -0.00047   0.00000   0.00336   0.00402  -0.00051
   D22        3.13959  -0.00014   0.00000  -0.00049  -0.00026   3.13934
   D23       -0.74754  -0.00116   0.00000  -0.05258  -0.05416  -0.80170
   D24        1.18411  -0.00288   0.00000  -0.07655  -0.08042   1.10370
   D25        0.47735  -0.00305   0.00000  -0.13397  -0.12906   0.34829
   D26       -2.66522  -0.00447   0.00000  -0.13434  -0.12706  -2.79228
   D27       -0.49565   0.00180   0.00000   0.12838   0.12686  -0.36879
   D28       -0.09671   0.00446   0.00000   0.04653   0.04263  -0.05408
   D29        1.91061   0.00122   0.00000   0.00989   0.00745   1.91806
         Item               Value     Threshold  Converged?
 Maximum Force            0.023565     0.000450     NO 
 RMS     Force            0.005610     0.000300     NO 
 Maximum Displacement     0.206761     0.001800     NO 
 RMS     Displacement     0.052713     0.001200     NO 
 Predicted change in Energy=-8.114485D-03
 GradGradGradGradGradGradGradGradGradGradGradGradGradGradGradGradGradGrad

                          Input orientation:                          
 ---------------------------------------------------------------------
 Center     Atomic      Atomic             Coordinates (Angstroms)
 Number     Number       Type             X           Y           Z
 ---------------------------------------------------------------------
      1          7           0       -0.057279   -0.084042    0.002171
      2          7           0       -0.752763    1.040468    0.029262
      3          6           0       -2.040104    0.700526    0.004641
      4          6           0       -2.064516   -0.695077   -0.039078
      5          7           0       -0.804237   -1.146482   -0.038774
      6          1           0       -2.828573    1.436479    0.022130
      7          1           0       -2.903096   -1.372010   -0.071312
      8          1           0       -0.135036    2.084894    0.130681
      9          6           0        1.509269   -0.063961    0.008077
     10          8           0        1.949632    1.110867   -0.019893
     11          8           0        1.986303   -1.161016    0.038682
     12          8           0        0.596758    3.029414    0.456629
     13          1           0        0.544305    3.250300    1.413511
     14          1           0        1.390511    2.350249    0.292993
 ---------------------------------------------------------------------
                    Distance matrix (angstroms):
                    1          2          3          4          5
     1  N    0.000000
     2  N    1.322480   0.000000
     3  C    2.132404   1.331696   0.000000
     4  C    2.098586   2.176576   1.396501   0.000000
     5  N    1.299385   2.188614   2.222767   1.338683   0.000000
     6  H    3.161084   2.113259   1.078710   2.265184   3.282276
     7  H    3.124570   3.233281   2.246316   1.078191   2.111192
     8  H    2.174130   1.217660   2.358313   3.388207   3.304290
     9  C    1.566688   2.517340   3.630771   3.629390   2.554673
    10  O    2.335805   2.703758   4.010857   4.401725   3.560867
    11  O    2.310289   3.514129   4.436040   4.078270   2.791653
    12  O    3.213705   2.441260   3.546977   4.604339   4.432417
    13  H    3.670371   2.912368   3.894282   4.947925   4.822799
    14  H    2.847182   2.525609   3.817571   4.617520   4.141753
                    6          7          8          9         10
     6  H    0.000000
     7  H    2.811031   0.000000
     8  H    2.772611   4.433187   0.000000
     9  C    4.590032   4.602854   2.708569   0.000000
    10  O    4.789471   5.451266   2.305914   1.254960   0.000000
    11  O    5.470858   4.895186   3.878720   1.196673   2.272934
    12  O    3.802516   5.648029   1.238500   3.256201   2.395446
    13  H    4.074580   5.954413   1.861540   3.727027   2.933729
    14  H    4.325392   5.694119   1.556937   2.433864   1.395200
                   11         12         13         14
    11  O    0.000000
    12  O    4.434548   0.000000
    13  H    4.840374   0.983446   0.000000
    14  H    3.570522   1.057395   1.667847   0.000000
 Stoichiometry    C3H5N3O3
 Framework group  C1[X(C3H5N3O3)]
 Deg. of freedom    36
 Full point group                 C1      NOp   1
 Largest Abelian subgroup         C1      NOp   1
 Largest concise Abelian subgroup C1      NOp   1
                         Standard orientation:                         
 ---------------------------------------------------------------------
 Center     Atomic      Atomic             Coordinates (Angstroms)
 Number     Number       Type             X           Y           Z
 ---------------------------------------------------------------------
      1          7           0       -0.353876   -0.416800   -0.015570
      2          7           0       -0.494958    0.895018   -0.106026
      3          6           0       -1.802189    1.147179   -0.074775
      4          6           0       -2.427137   -0.096448    0.039449
      5          7           0       -1.486148   -1.047996    0.073613
      6          1           0       -2.194741    2.150424   -0.129712
      7          1           0       -3.475584   -0.341726    0.095065
      8          1           0        0.516859    1.571983   -0.131350
      9          6           0        1.066112   -1.078493   -0.033129
     10          8           0        1.966369   -0.220095   -0.199309
     11          8           0        1.025769   -2.265339    0.114507
     12          8           0        1.602152    2.131425    0.076125
     13          1           0        1.708338    2.443649    1.002627
     14          1           0        2.014966    1.162760   -0.020611
 ---------------------------------------------------------------------
 Rotational constants (GHZ):           2.1893852           1.6517991           0.9496272
 Standard basis: 6-31+G(d,p) (6D, 7F)
 There are   196 symmetry adapted cartesian basis functions of A   symmetry.
 There are   196 symmetry adapted basis functions of A   symmetry.
   196 basis functions,   323 primitive gaussians,   196 cartesian basis functions
    34 alpha electrons       34 beta electrons
       nuclear repulsion energy       463.9631633129 Hartrees.
 NAtoms=   14 NActive=   14 NUniq=   14 SFac= 1.00D+00 NAtFMM=   60 NAOKFM=F Big=F
 Integral buffers will be    131072 words long.
 Raffenetti 2 integral format.
 Two-electron integral symmetry is turned on.
 One-electron integrals computed using PRISM.
 NBasis=   196 RedAO= T EigKep=  2.21D-05  NBF=   196
 NBsUse=   196 1.00D-06 EigRej= -1.00D+00 NBFU=   196
 Initial guess from the checkpoint file:  "/scratch/gongke2021/1-H-Tz-TS-2/Gau-22950.chk"
 B after Tr=     0.000000   -0.000000    0.000000
         Rot=    0.999984    0.000906    0.000329    0.005627 Ang=   0.65 deg.
 ExpMin= 4.38D-02 ExpMax= 5.48D+03 ExpMxC= 8.25D+02 IAcc=2 IRadAn=         4 AccDes= 0.00D+00
 Harris functional with IExCor= 1009 and IRadAn=       4 diagonalized for initial guess.
 HarFok:  IExCor= 1009 AccDes= 0.00D+00 IRadAn=         4 IDoV= 1 UseB2=F ITyADJ=14
 ICtDFT=  3500011 ScaDFX=  1.000000  1.000000  1.000000  1.000000
 FoFCou: FMM=F IPFlag=           0 FMFlag=      100000 FMFlg1=           0
         NFxFlg=           0 DoJE=T BraDBF=F KetDBF=T FulRan=T
         wScrn=  0.000000 ICntrl=       500 IOpCl=  0 I1Cent=   200000004 NGrid=           0
         NMat0=    1 NMatS0=      1 NMatT0=    0 NMatD0=    1 NMtDS0=    0 NMtDT0=    0
 Petite list used in FoFCou.
 Requested convergence on RMS density matrix=1.00D-08 within 128 cycles.
 Requested convergence on MAX density matrix=1.00D-06.
 Requested convergence on             energy=1.00D-06.
 No special actions if energy rises.
 SCF Done:  E(RM062X) =  -507.042756351     A.U. after   13 cycles
            NFock= 13  Conv=0.33D-08     -V/T= 2.0081
 Calling FoFJK, ICntrl=      2127 FMM=F ISym2X=0 I1Cent= 0 IOpClX= 0 NMat=1 NMatS=1 NMatT=0.
 ***** Axes restored to original set *****
 -------------------------------------------------------------------
 Center     Atomic                   Forces (Hartrees/Bohr)
 Number     Number              X              Y              Z
 -------------------------------------------------------------------
      1        7           0.000891558    0.001957445   -0.000569543
      2        7          -0.002909454   -0.001384403   -0.006342213
      3        6          -0.000378556   -0.001366316    0.000219795
      4        6           0.000459634    0.000101095    0.000096784
      5        7          -0.000860460   -0.000816442    0.000136954
      6        1           0.000062024    0.000103970   -0.000286468
      7        1           0.000061777   -0.000133536   -0.000003785
      8        1          -0.012759305    0.005140776    0.010449843
      9        6           0.009252529    0.000076452    0.001256006
     10        8           0.001596267   -0.011222367   -0.001272115
     11        8           0.000001542    0.000143050   -0.000922034
     12        8           0.007009428    0.008793754    0.012978995
     13        1           0.001190002   -0.003618692   -0.017984757
     14        1          -0.003616986    0.002225214    0.002242537
 -------------------------------------------------------------------
 Cartesian Forces:  Max     0.017984757 RMS     0.005415870

 GradGradGradGradGradGradGradGradGradGradGradGradGradGradGradGradGradGrad
 Berny optimization.
 FormGI is forming the generalized inverse of G from B-inverse, IUseBI=4.
 Internal  Forces:  Max     0.018376200 RMS     0.003129129
 Search for a saddle point.
 Step number   4 out of a maximum of   76
 All quantities printed in internal units (Hartrees-Bohrs-Radians)
 Swapping is turned off.
 Update second derivatives using D2CorX and points    3    4
 ITU=  0  0  0  0
     Eigenvalues ---   -0.01333   0.00181   0.00423   0.00548   0.00906
     Eigenvalues ---    0.01108   0.01438   0.02501   0.02707   0.04579
     Eigenvalues ---    0.04847   0.05431   0.06357   0.06659   0.07660
     Eigenvalues ---    0.08343   0.10198   0.10465   0.10978   0.15107
     Eigenvalues ---    0.20153   0.24060   0.25206   0.28117   0.28951
     Eigenvalues ---    0.31776   0.34443   0.38577   0.38879   0.39877
     Eigenvalues ---    0.42717   0.47570   0.53137   0.59898   0.63327
     Eigenvalues ---    0.94367
 Eigenvectors required to have negative eigenvalues:
                          R10       R13       R5        R15       D29
   1                   -0.52093  -0.44917   0.43679   0.34805  -0.18834
                          A19       R3        A22       A18       A17
   1                   -0.18728  -0.18357   0.14634  -0.13624  -0.13199
 RFO step:  Lambda0=1.144151551D-03 Lambda=-4.82588517D-03.
 Linear search not attempted -- option 19 set.
 Iteration  1 RMS(Cart)=  0.03888584 RMS(Int)=  0.02060774
 Iteration  2 RMS(Cart)=  0.00720670 RMS(Int)=  0.00072474
 Iteration  3 RMS(Cart)=  0.00014356 RMS(Int)=  0.00071507
 Iteration  4 RMS(Cart)=  0.00000008 RMS(Int)=  0.00071507
[...]
 ! D1    D(5,1,2,3)              0.0272         -DE/DX =    0.0                 !
 ! D2    D(5,1,2,8)            179.8519         -DE/DX =    0.0                 !
 ! D3    D(9,1,2,3)            179.187          -DE/DX =    0.0                 !
 ! D4    D(9,1,2,8)             -0.9883         -DE/DX =    0.0                 !
 ! D5    D(2,1,5,4)             -0.0485         -DE/DX =    0.0                 !
 ! D6    D(9,1,5,4)           -179.2305         -DE/DX =    0.0                 !
 ! D7    D(2,1,9,10)            -1.555          -DE/DX =    0.0                 !
 ! D8    D(2,1,9,11)           178.4086         -DE/DX =    0.0                 !
 ! D9    D(5,1,9,10)           177.5271         -DE/DX =    0.0                 !
 ! D10   D(5,1,9,11)            -2.5093         -DE/DX =    0.0                 !
 ! D11   D(1,2,3,4)              0.0053         -DE/DX =    0.0                 !
 ! D12   D(1,2,3,6)           -179.8483         -DE/DX =    0.0                 !
 ! D13   D(8,2,3,4)           -179.7823         -DE/DX =    0.0                 !
 ! D14   D(8,2,3,6)              0.364          -DE/DX =    0.0                 !
 ! D15   D(1,2,8,12)            12.5702         -DE/DX =    0.0                 !
 ! D16   D(3,2,8,12)          -167.6635         -DE/DX =    0.0                 !
 ! D17   D(2,3,4,5)             -0.0346         -DE/DX =    0.0                 !
 ! D18   D(2,3,4,7)           -179.9003         -DE/DX =    0.0                 !
 ! D19   D(6,3,4,5)            179.7983         -DE/DX =    0.0                 !
 ! D20   D(6,3,4,7)             -0.0675         -DE/DX =    0.0                 !
 ! D21   D(3,4,5,1)              0.0498         -DE/DX =    0.0                 !
 ! D22   D(7,4,5,1)            179.9296         -DE/DX =    0.0                 !
 ! D23   D(2,8,12,13)         -124.4632         -DE/DX =    0.0                 !
 ! D24   D(2,8,12,14)          -11.5161         -DE/DX =    0.0                 !
 ! D25   D(1,9,10,14)            1.0605         -DE/DX =    0.0                 !
 ! D26   D(11,9,10,14)        -178.8905         -DE/DX =    0.0                 !
 ! D27   D(9,10,14,12)           1.1005         -DE/DX =    0.0                 !
 ! D28   D(8,12,14,10)           0.2505         -DE/DX =    0.0                 !
 ! D29   D(13,12,14,10)        118.504          -DE/DX =    0.0                 !
 --------------------------------------------------------------------------------
 GradGradGradGradGradGradGradGradGradGradGradGradGradGradGradGradGradGrad


 ----------------------------------------------------------------------

 Electric dipole moment (input orientation):
 (Debye = 10**-18 statcoulomb cm , SI units = C m)
                  (au)            (Debye)         (10**-30 SI)
   Tot        0.302061D+01      0.767763D+01      0.256098D+02
   x         -0.236041D+01     -0.599958D+01     -0.200124D+02
   y          0.173892D+01      0.441990D+01      0.147432D+02
   z          0.727107D+00      0.184812D+01      0.616467D+01

 Dipole polarizability, Alpha (input orientation).
 (esu units = cm**3 , SI units = C**2 m**2 J**-1)
 Alpha(0;0):
               (au)            (10**-24 esu)      (10**-40 SI)
   iso        0.687699D+02      0.101907D+02      0.113386D+02
   aniso      0.431385D+02      0.639246D+01      0.711257D+01
   xx         0.839812D+02      0.124447D+02      0.138466D+02
   yx         0.151646D+01      0.224716D+00      0.250030D+00
   yy         0.813429D+02      0.120538D+02      0.134116D+02
   zx         0.151088D+01      0.223890D+00      0.249111D+00
   zy         0.591716D+01      0.876832D+00      0.975607D+00
   zz         0.409857D+02      0.607345D+01      0.675763D+01

 ----------------------------------------------------------------------

 Dipole orientation:
     7         -0.05908776         -0.15825067          0.04965081
     7          0.16389924          0.74054032          2.39110979
     6         -1.44637467         -0.56835284          3.81770519
     6         -2.63346949         -2.28556530          2.20859044
     7         -1.71597709         -1.96695107         -0.12250691
     1         -1.64761198         -0.21103005          5.81502116
     1         -4.05954114         -3.68580298          2.60519240
     1          1.71530881          2.50443766          2.82885846
     6          1.48117385          0.85746178         -2.33575923
     8          2.88958513          2.65541139         -1.73907644
     8          0.99672968         -0.28722671         -4.21726396
     8          3.20194510          4.22165993          2.54449944
     1          4.83721184          4.02261468          3.32413889
     1          3.28670749          3.77781746          0.57498425

 Electric dipole moment (dipole orientation):
 (Debye = 10**-18 statcoulomb cm , SI units = C m)
                  (au)            (Debye)         (10**-30 SI)
   Tot        0.302061D+01      0.767763D+01      0.256098D+02
   x          0.000000D+00      0.000000D+00      0.000000D+00
   y          0.000000D+00      0.000000D+00      0.000000D+00
   z          0.302061D+01      0.767763D+01      0.256098D+02

 Dipole polarizability, Alpha (dipole orientation).
 (esu units = cm**3 , SI units = C**2 m**2 J**-1)
 Alpha(0;0):
               (au)            (10**-24 esu)      (10**-40 SI)
   iso        0.687699D+02      0.101907D+02      0.113386D+02
   aniso      0.431385D+02      0.639246D+01      0.711257D+01
   xx         0.624901D+02      0.926008D+01      0.103032D+02
   yx         0.215448D+02      0.319260D+01      0.355225D+01
   yy         0.634970D+02      0.940928D+01      0.104692D+02
   zx        -0.618423D+01     -0.916409D+00     -0.101964D+01
   zy         0.418748D+01      0.620521D+00      0.690423D+00
   zz         0.803227D+02      0.119026D+02      0.132434D+02

 ----------------------------------------------------------------------
 1\1\GINC-NODE4\Freq\RM062X\6-31+G(d,p)\C3H5N3O3\GONGKE2021\25-May-2023
 \0\\#N Geom=AllCheck Guess=TCheck SCRF=Check GenChk RM062X/6-31+G(d,p)
  Freq\\"1-H-Tz-TS"\\0,1\N,-0.0667738923,-0.057585333,0.0301001013\N,-0
 .802635018,1.0470747118,0.1467595212\C,-2.076428274,0.6650853254,0.061
 3434802\C,-2.0595223397,-0.7188626169,-0.1113819321\N,-0.7878786718,-1
 .129400455,-0.1259820532\H,-2.8878742882,1.3735142779,0.1236936814\H,-
 2.8754196951,-1.4147115178,-0.2240014302\H,-0.2282991275,2.1621850916,
 0.3067038893\C,1.5284395546,-0.0948251599,0.0537444048\O,2.0051586634,
 1.0544720733,0.1644278882\O,1.9566588286,-1.2048963144,-0.0375328126\O
 ,0.6182792921,3.0267830864,0.3620995742\H,0.6971418923,3.5008561464,1.
 1982606131\H,1.3703280756,2.2709206841,0.2814834643\\Version=ES64L-G16
 RevA.03\State=1-A\HF=-507.0474422\RMSD=2.041e-09\RMSF=1.358e-05\ZeroPo
 int=0.0953166\Thermal=0.1030104\Dipole=-2.360415,1.7389208,0.727107\Di
 poleDeriv=-1.4325997,-0.0047134,-0.0397313,-0.0178193,0.210392,0.02505
 92,-0.0405812,0.0191612,0.0689296,-0.0993268,-0.4799743,-0.0651049,-0.
 6607711,-1.0210496,-0.1437158,-0.0931096,-0.1457767,-0.1364748,-0.0924
 718,0.1344912,0.0200251,-0.2382248,0.2661354,0.0278253,-0.0259655,0.03
 81682,-0.0310029,-0.1593243,0.1496874,0.0181088,0.3251453,0.0597076,0.
 0278132,0.0398605,0.0230892,-0.0801436,0.1814148,-0.1516562,-0.0082773
 ,0.2165858,-0.3671435,-0.0219994,0.0387605,-0.0277043,-0.1608689,0.083
 6656,0.0162258,-0.0003264,0.0333858,0.0786289,-0.0117271,0.0002706,-0.
 0118257,0.1716171,0.0601818,-0.014091,-0.0046462,-0.0377534,0.0779123,
 -0.0127484,-0.0080171,-0.0118374,0.1670354,0.7674905,0.829878,0.15142,
 0.7615881,1.4584102,0.1824626,0.1307135,0.1659575,0.2788635,2.8676545,
 0.0784591,0.0641338,-0.1378135,2.3511204,0.1847546,0.0344075,0.1688229
 ,0.424008,-1.0605908,-0.1885209,-0.0252686,-0.2500884,-1.886571,-0.175
 9761,-0.0291435,-0.1491607,-0.4535209,-0.9986178,0.3159096,0.0168729,0
 .5089194,-1.2752913,-0.0780021,0.0329281,-0.0696331,-0.3845148,-0.9786
 242,-0.1294195,-0.0046909,-0.2250367,-1.6533952,-0.1441104,-0.0113216,
 -0.1310319,-0.4478136,0.3010661,-0.0091396,-0.0119453,0.0184498,0.4068
 445,0.0112741,0.0118793,0.0207294,0.2850851,0.5600819,-0.5471363,-0.11
 05699,-0.2965669,1.2942995,0.1290903,-0.0806815,0.1110414,0.2988009\Po
 lar=83.9812435,1.5164561,81.3428963,1.510883,5.9171552,40.9856836\Quad
 rupole=0.0921587,-0.9092869,0.8171282,3.6684026,1.2127721,4.0322815\PG
 =C01 [X(C3H5N3O3)]\NImag=1\\0.72289166,0.03027602,0.68073723,0.0196317
 6,0.06878583,0.12731046,-0.16737649,0.11795774,0.01310697,0.68150826,0
 .04472189,-0.24037338,-0.02005908,0.09501112,0.65766407,0.00318409,-0.
 01690963,-0.07302445,0.02851221,0.06971173,0.13297923,-0.12914313,0.05
 887626,0.00301634,-0.36815157,-0.07989636,-0.01830339,0.82161851,-0.00
 346136,-0.02477209,-0.00558069,-0.08260239,-0.14787059,-0.01158873,-0.
 15356999,0.73511967,-0.00475244,-0.00351501,0.01488486,-0.01938425,-0.
 01177918,-0.07275377,0.00170349,0.06997958,0.14561123,-0.13606544,-0.0
 7215781,-0.01352068,-0.00128417,-0.00869986,-0.00115876,-0.11871118,-0
 .02611746,-0.00496595,0.80547695,0.00417005,-0.00735125,-0.00221678,-0
 .10895713,-0.04783208,-0.01170100,0.01956505,-0.33097589,-0.03189101,0
 .16641741,0.72841832,-0.00381440,-0.00442340,0.01279599,-0.01449173,-0
 .00831435,0.01454067,0.00108553,-0.03335020,-0.07448594,0.04093502,0.0
 7912570,0.14936550,-0.17153961,-0.13861093,-0.01997363,-0.04535442,-0.
 03294979,-0.00681318,0.00363117,0.11518070,0.01421948,-0.33696945,0.08
 014580,0.00212108,0.59434192,-0.07236652,-0.28438966,-0.02776484,0.007
 68763,-0.13181487,-0.02016160,0.01902700,-0.02453008,-0.00498136,0.084
 51375,-0.14612192,-0.00703355,-0.01282520,0.56648021,-0.01171297,-0.03
 044586,-0.08253044,-0.00101057,-0.02055734,0.02233714,0.00185506,-0.00
 238764,0.02006363,0.00281315,-0.00701338,-0.07336208,0.01251411,0.0572
 2320,0.11811839,-0.00507040,-0.00292687,-0.00071184,-0.01716186,0.0221
 6955,0.00235974,-0.22886874,0.15011250,0.01244972,0.00851485,-0.002609
 29,-0.00005903,0.00115894,-0.00334505,-0.00060228,0.24144531,-0.006637
 95,-0.00186610,-0.00132422,-0.01112977,0.01360513,0.00192313,0.1600778
 8,-0.20024498,-0.01596161,0.01879898,-0.00013920,0.00056777,0.00303613
 ,-0.00536534,-0.00137261,-0.16474404,0.19325717,-0.00128596,-0.0012320
 5,0.00758510,-0.00156044,0.00283449,-0.00436339,0.01344847,-0.01614099
 ,-0.03353405,0.00263130,-0.00008650,0.00011483,0.00026941,-0.00156782,
 0.00611545,-0.01359752,0.01587226,0.02593479,-0.00632908,0.00171132,-0
 .00020828,0.00087542,0.00382834,0.00029790,0.00879074,0.00447362,0.000
 86354,-0.22995979,-0.15131848,-0.02509557,-0.01867340,-0.01989319,-0.0
 0286458,-0.00036834,-0.00047957,-0.00002126,0.24492445,0.00625729,0.00
 098150,-0.00082160,-0.00080550,-0.00594411,-0.00160681,-0.01949020,-0.
 00426905,-0.00100611,-0.15854006,-0.19602844,-0.02557611,0.00971996,0.
 01246610,0.00286396,0.00034539,-0.00026216,0.00017565,0.16306855,0.191
 47267,0.00037290,-0.00091158,0.00867614,-0.00029975,-0.00147298,0.0063
 5732,-0.00214004,-0.00024288,-0.00119213,-0.02609612,-0.02538970,-0.03
 533872,0.00096067,0.00197255,-0.00742033,0.00008409,0.00014172,-0.0015
 5813,0.02722810,0.02594555,0.02915755,0.01480738,0.00647793,0.00135190
 ,-0.04683287,0.00948862,0.00066411,-0.00874211,-0.00774104,-0.00120125
 ,-0.00502227,0.00436324,0.00030526,0.00220467,0.01529758,0.00195005,-0
 .00014973,0.00017287,0.00006034,-0.00010692,0.00037677,0.00003260,0.08
 889111,-0.00182066,-0.01857507,-0.00162878,0.01234618,-0.04489831,-0.0
 0238796,-0.01326136,0.01141959,0.00106571,-0.00006908,0.00899819,0.000
 84962,0.00798150,0.01370295,0.00146686,0.00021720,0.00007491,0.0001497
 8,-0.00077627,0.00161264,0.00009463,-0.03740167,0.02899395,0.00003355,
 -0.00167653,-0.00476414,0.00186745,-0.00143976,-0.03244273,-0.00187040
 ,0.00126863,-0.00130826,-0.00025067,0.00094667,0.00284187,0.00099683,0
 .00169288,0.00459537,0.00004977,0.00016136,-0.00132535,-0.00012960,0.0
 0012372,0.00081408,-0.01426962,-0.00327242,0.06704065,-0.01479392,-0.0
 0443272,-0.00083293,-0.01254016,0.00663001,-0.00004912,0.02443985,0.00
 792330,0.00171017,0.02245726,-0.01268147,-0.00094114,-0.02321524,-0.02
 414861,-0.00360675,0.00172422,0.00141651,0.00022425,0.00176782,-0.0010
 4659,-0.00009126,0.02435232,0.03176702,0.00500104,0.29729425,-0.011579
 02,-0.07164525,-0.00399597,0.01896660,-0.00661525,0.00065120,0.0064794
 5,-0.00616526,-0.00094242,-0.00590707,-0.00826004,-0.00194676,-0.02350
 716,0.00337011,0.00152118,0.00096514,0.00046338,-0.00013744,-0.0010949
 2,0.00062308,-0.00016444,0.01710368,0.01210806,0.00231399,-0.07461383,
 1.29814001,-0.00021490,-0.00445863,-0.03829783,0.00219326,0.00118506,-
 0.01109350,0.00107172,-0.00084205,0.00294148,-0.00034762,-0.00202678,0
 .00503286,-0.00359296,0.00142652,-0.01175702,0.00007316,-0.00013395,0.
 00186086,-0.00016089,-0.00011992,0.00148211,0.00203320,0.00146832,0.00
 077871,-0.00454373,0.09803023,0.21210767,-0.04556053,-0.04722867,-0.00
 549258,0.00477782,-0.00066857,0.00022878,-0.00322379,-0.00271533,-0.00
 038671,-0.00576298,-0.00044958,-0.00027163,-0.00627401,0.00674896,0.00
 088497,-0.00012283,-0.00009703,-0.00002514,-0.00086948,0.00051221,-0.0
 0001191,-0.00185739,-0.00497518,-0.00061814,-0.14652705,-0.15548600,-0
 .01533488,0.21489047,-0.03440782,-0.01711498,-0.00316823,0.00646449,0.
 00972414,0.00183912,-0.00964103,-0.00182738,-0.00056717,-0.00500460,0.
 00491480,0.00046326,0.00002524,0.00922325,0.00082511,-0.00066811,-0.00
 030522,-0.00002461,-0.00059645,0.00056841,0.00011016,-0.02373062,-0.02
 875295,-0.00481761,-0.12366954,-0.48101679,-0.03932552,0.15217260,0.64
 752448,-0.00451503,-0.00334779,0.01244439,0.00068211,0.00090621,0.0011
 2663,-0.00114505,-0.00029401,0.00004149,-0.00067415,0.00074178,-0.0006
 6289,0.00016311,0.00065686,0.00363123,-0.00006863,-0.00001083,-0.00029
 571,-0.00004786,0.00014889,-0.00064782,-0.00300892,-0.00356285,-0.0024
 6968,-0.01164540,-0.03854986,-0.07341141,0.01462965,0.05925442,0.03932
 478,-0.05431706,0.05195303,0.00385766,-0.00684255,-0.00474866,-0.00079
 049,-0.00643629,0.00157353,0.00006945,-0.00294758,0.00402410,0.0004628
 1,0.00216715,0.00544931,0.00063062,-0.00091305,-0.00050262,-0.00005633
 ,-0.00023491,0.00005952,0.00000640,-0.00524248,-0.00740078,-0.00112630
 ,-0.16762646,0.23902311,0.01972179,0.02934323,-0.01621504,-0.00138826,
 0.21057722,0.04321060,-0.02314044,-0.00302552,0.00495573,0.00906285,0.
 00086011,0.00159830,0.00044243,0.00014810,0.00489253,0.00033834,0.0002
 3942,-0.00402770,-0.00178322,-0.00060778,0.00041964,0.00055725,0.00016
 524,0.00040520,-0.00014423,0.00001469,-0.00448223,-0.00271013,-0.00060
 111,0.22307151,-0.70798384,-0.05205907,0.00880413,-0.11455275,-0.01300
 812,-0.27811782,0.82825773,0.00266084,-0.00243188,0.01369450,0.0000706
 8,0.00025634,0.00387927,0.00007067,0.00023507,-0.00050995,0.00049981,0
 .00016326,-0.00033765,-0.00043178,-0.00026832,0.00159033,0.00003847,0.
 00013526,-0.00072982,0.00004478,0.00000698,-0.00020001,-0.00046105,-0.
 00028502,-0.00006952,0.01857958,-0.05234986,-0.08508855,0.00101412,-0.
 01272187,0.02566658,-0.02187572,0.06632168,0.03965805,-0.00108721,0.00
 508037,0.00019451,-0.02486777,-0.05538037,-0.01164962,0.00894622,-0.00
 201951,-0.00007794,0.00251649,-0.00483670,-0.00034261,-0.00295850,-0.0
 1056368,-0.00110573,0.00026800,0.00032742,-0.00001842,0.00043924,-0.00
 072386,-0.00001788,-0.03236140,0.02304618,0.02992141,-0.03831353,-0.02
 267311,-0.00205444,0.00114171,0.07216547,0.01035187,0.00652862,0.01083
 350,0.00071118,0.25076368,-0.00555057,0.00264770,0.00004078,-0.0472336
 9,-0.05070965,-0.00909643,0.00494412,-0.00747698,-0.00090748,-0.001752
 08,-0.00303082,-0.00030342,-0.00317191,-0.00487370,-0.00058866,-0.0003
 8475,-0.00017156,-0.00007464,0.00025999,-0.00070556,-0.00003570,0.0029
 1761,-0.02099897,0.00919829,0.01278428,0.01679415,0.00147963,0.0253781
 1,-0.06217594,-0.00870991,0.00007065,-0.01066694,-0.00069307,-0.052204
 93,0.38713999,-0.00076085,0.00020703,0.00080032,-0.01074239,-0.0128426
 4,0.01324265,0.00059286,-0.00150569,0.00038118,-0.00043399,-0.00032743
 ,-0.00069899,-0.00040817,-0.00067805,-0.00107871,-0.00007380,-0.000020
 83,0.00016687,0.00005041,-0.00011214,-0.00023505,0.01227120,0.00336428
 ,-0.04117543,0.00247393,0.00220703,0.00175531,0.00575875,-0.01317257,0
 .01056441,-0.00016061,-0.00164094,-0.00094557,0.03443858,0.24612956,0.
 47553319,-0.00049182,0.00025069,0.00033161,-0.00460280,-0.00619596,0.0
 0197370,0.00049967,-0.00084557,-0.00003930,-0.00020718,-0.00037877,-0.
 00013315,-0.00023151,-0.00036319,-0.00034691,-0.00014598,-0.00005741,-
 0.00003351,0.00002624,-0.00007267,-0.00005122,0.00946796,0.00494948,-0
 .01612367,-0.00114851,-0.00068421,-0.00049552,-0.00282163,0.00553176,-
 0.00147853,0.00015410,0.00056855,0.00025173,-0.04785358,-0.02120088,-0
 .04361668,0.03569302,0.00042038,-0.00066278,0.00005060,-0.00333986,-0.
 00147064,0.00120552,-0.00030176,-0.00062079,0.00002444,-0.00017412,0.0
 0002218,-0.00011583,0.00012636,0.00012648,-0.00006361,-0.00004307,0.00
 004099,0.00001896,0.00001794,-0.00001601,-0.00003940,0.00509846,-0.002
 26982,-0.01076541,0.00016899,-0.00193174,-0.00005184,0.00215481,-0.001
 00744,0.00182960,-0.00029542,0.00076253,-0.00007592,-0.01165523,-0.140
 90418,-0.20627955,0.01573139,0.15343809,0.00030647,-0.00056198,0.00010
 799,0.00321580,0.00403370,0.00027789,-0.00028900,0.00035489,0.00007721
 ,0.00010863,0.00019316,0.00003641,0.00021116,0.00050741,0.00000383,-0.
 00001963,-0.00003712,0.00004208,-0.00001335,0.00006189,0.00002136,-0.0
 0531662,-0.00410059,0.00024182,-0.00019146,-0.00126155,0.00011537,-0.0
 0164912,0.00330098,0.00012045,-0.00012658,0.00077205,-0.00001692,-0.03
 198429,-0.23623529,-0.40901613,0.03570895,0.23389366,0.41021147,-0.005
 92433,-0.00722636,-0.00075080,0.00785317,0.00669005,0.00154405,-0.0046
 4936,-0.00019098,-0.00020800,-0.00203549,0.00254578,0.00023956,0.00171
 230,0.00478121,0.00060184,-0.00031040,-0.00018138,-0.00003520,-0.00028
 201,0.00033917,0.00002344,-0.03940826,-0.01460255,-0.00348163,0.032129
 17,0.01300735,0.00165179,-0.03713354,-0.02242632,-0.00185493,-0.004209
 93,-0.01213194,-0.00117332,-0.12316196,0.08514405,0.00061076,0.0116620
 2,-0.00790887,0.00003903,0.16375862,0.00676768,0.00552456,0.00070851,-
 0.00932113,-0.01252730,-0.00273865,0.00559264,0.00177141,0.00033353,0.
 00379946,-0.00295219,-0.00018216,-0.00112299,-0.00649028,-0.00086342,0
 .00049175,0.00035573,0.00004766,0.00039393,-0.00035484,-0.00002264,0.0
 1205881,0.04129497,0.00686728,-0.04316883,-0.04788062,-0.00457199,0.01
 584953,0.03479839,0.00394561,0.00512711,0.02156043,0.00170734,0.048604
 46,-0.10486756,-0.01532806,0.00276679,-0.00550687,-0.00092121,-0.04783
 921,0.07527417,0.00086696,0.00092147,0.00031712,-0.00215934,-0.0024622
 1,-0.00106294,0.00090373,0.00009472,-0.00021699,0.00046003,-0.00051800
 ,0.00015814,-0.00023613,-0.00102388,-0.00030680,0.00007778,0.00005968,
 -0.00001353,0.00005665,-0.00008395,0.00008364,0.00558881,0.00677841,0.
 00724262,-0.00608717,-0.00537531,-0.00642605,0.00127385,0.00800454,-0.
 01543246,0.00077553,0.00242124,0.00340927,-0.02836661,-0.00020366,-0.0
 4929405,0.02405249,-0.01963122,-0.00222283,0.00279342,0.01101820,0.063
 76485\\-0.00000588,0.00001343,-0.00000358,-0.00002187,0.00000105,-0.00
 001123,-0.00000180,0.00000417,0.00000071,0.00000509,-0.00000273,-0.000
 00257,0.00000079,-0.00000339,-0.00000007,-0.00000100,-0.00000253,-0.00
 000123,0.00000178,-0.00000208,0.00000009,0.00000806,-0.00000475,0.0000
 2187,0.00002788,-0.00000723,0.00002265,0.00000646,-0.00001586,0.000013
 14,0.00000356,0.00000257,-0.00000753,-0.00000911,0.00002060,-0.0000202
 8,-0.00000373,0.00000545,0.00003372,-0.00001023,-0.00000870,-0.0000456
 9\\\@


 WOE UNTO THEM THAT CALL EVIL GOOD, AND GOOD EVIL      
 Job cpu time:       0 days  0 hours 21 minutes  7.3 seconds.
 Elapsed time:       0 days  0 hours  0 minutes 53.3 seconds.
 File lengths (MBytes):  RWF=     66 Int=      0 D2E=      0 Chk=      4 Scr=      1
 Normal termination of Gaussian 16 at Thu May 25 04:22:10 2023.
