 Entering Gaussian System, Link 0=/opt/soft/g16/g16
 Initial command:
 /opt/soft/g16/l1.exe "/scratch/gongke2021/1-H-Tz-RC/Gau-11959.inp" -scrdir="/scratch/gongke2021/1-H-Tz-RC/"
 Entering Link 1 = /opt/soft/g16/l1.exe PID=     11960.
  
 Copyright (c) 1988,1990,1992,1993,1995,1998,2003,2009,2016,
            Gaussian, Inc.  All Rights Reserved.
  
 This is part of the Gaussian(R) 16 program.  It is based on
 the Gaussian(R) 09 system (copyright 2009, Gaussian, Inc.),
 the Gaussian(R) 03 system (copyright 2003, Gaussian, Inc.),
 the Gaussian(R) 98 system (copyright 1998, Gaussian, Inc.),
 the Gaussian(R) 94 system (copyright 1995, Gaussian, Inc.),
 the Gaussian 92(TM) system (copyright 1992, Gaussian, Inc.),
 the Gaussian 90(TM) system (copyright 1990, Gaussian, Inc.),
 the Gaussian 88(TM) system (copyright 1988, Gaussian, Inc.),
 the Gaussian 86(TM) system (copyright 1986, Carnegie Mellon
 University), and the Gaussian 82(TM) system (copyright 1983,
 Carnegie Mellon University). Gaussian is a federally registered
 trademark of Gaussian, Inc.
  
 This software contains proprietary and confidential information,
 including trade secrets, belonging to Gaussian, Inc.
  
 This software is provided under written license and may be
 used, copied, transmitted, or stored only in accord with that
 written license.
  
 The following legend is applicable only to US Government
 contracts under FAR:
  
                    RESTRICTED RIGHTS LEGEND
  
 Use, reproduction and disclosure by the US Government is
 subject to restrictions as set forth in subparagraphs (a)
 and (c) of the Commercial Computer Software - Restricted
 Rights clause in FAR 52.227-19.
  
 Gaussian, Inc.
 340 Quinnipiac St., Bldg. 40, Wallingford CT 06492
  
  
 ---------------------------------------------------------------
 Warning -- This program may not be used in any manner that
 competes with the business of Gaussian, Inc. or will provide
 assistance to any competitor of Gaussian, Inc.  The licensee
 of this program is prohibited from giving any competitor of
 Gaussian, Inc. access to this program.  By using this program,
 the user acknowledges that Gaussian, Inc. is engaged in the
 business of creating and licensing software in the field of
 computational chemistry and represents and warrants to the
 licensee that it is not a competitor of Gaussian, Inc. and that
 it will not use this program in any manner prohibited above.
 ---------------------------------------------------------------
  

 Cite this work as:
 Gaussian 16, Revision A.03,
 M. J. Frisch, G. W. Trucks, H. B. Schlegel, G. E. Scuseria, 
 M. A. Robb, J. R. Cheeseman, G. Scalmani, V. Barone, 
 G. A. Petersson, H. Nakatsuji, X. Li, M. Caricato, A. V. Marenich, 
 J. Bloino, B. G. Janesko, R. Gomperts, B. Mennucci, H. P. Hratchian, 
 J. V. Ortiz, A. F. Izmaylov, J. L. Sonnenberg, D. Williams-Young, 
 F. Ding, F. Lipparini, F. Egidi, J. Goings, B. Peng, A. Petrone, 
 T. Henderson, D. Ranasinghe, V. G. Zakrzewski, J. Gao, N. Rega, 
 G. Zheng, W. Liang, M. Hada, M. Ehara, K. Toyota, R. Fukuda, 
 J. Hasegawa, M. Ishida, T. Nakajima, Y. Honda, O. Kitao, H. Nakai, 
 T. Vreven, K. Throssell, J. A. Montgomery, Jr., J. E. Peralta, 
 F. Ogliaro, M. J. Bearpark, J. J. Heyd, E. N. Brothers, K. N. Kudin, 
 V. N. Staroverov, T. A. Keith, R. Kobayashi, J. Normand, 
 K. Raghavachari, A. P. Rendell, J. C. Burant, S. S. Iyengar, 
 J. Tomasi, M. Cossi, J. M. Millam, M. Klene, C. Adamo, R. Cammi, 
 J. W. Ochterski, R. L. Martin, K. Morokuma, O. Farkas, 
 J. B. Foresman, and D. J. Fox, Gaussian, Inc., Wallingford CT, 2016.
 
 ******************************************
 Gaussian 16:  ES64L-G16RevA.03 25-Dec-2016
                25-May-2023 
 ******************************************
 %mem=10GB
 %nprocshared=24
 Will use up to   24 processors via shared memory.
 ----------------------------
 # opt freq 6-31+g(d,p) m062x
 ----------------------------
 1/18=20,19=15,26=3,38=1/1,3;
 2/9=110,12=2,17=6,18=5,40=1/2;
 3/5=1,6=6,7=111,11=2,25=1,30=1,71=1,74=-55/1,2,3;
 4//1;
 5/5=2,38=5/2;
 6/7=2,8=2,9=2,10=2,28=1/1;
 7//1,2,3,16;
 1/18=20,19=15,26=3/3(2);
 2/9=110/2;
 99//99;
 2/9=110/2;
 3/5=1,6=6,7=111,11=2,25=1,30=1,71=1,74=-55/1,2,3;
 4/5=5,16=3,69=1/1;
 5/5=2,38=5/2;
 7//1,2,3,16;
 1/18=20,19=15,26=3/3(-5);
 2/9=110/2;
 6/7=2,8=2,9=2,10=2,19=2,28=1/1;
 99/9=1/99;
 -------
 h2o-opt
 -------
 Symbolic Z-matrix:
 Charge =  0 Multiplicity = 1
 N                    -3.27597   0.57796  -0.00019 
 N                    -2.44747  -0.66051   0.00016 
 C                    -1.01452  -0.19638   0.00039 
 C                    -1.00746   1.33133   0.0004 
 N                    -2.436     1.80882   0.00043 
 H                    -0.09409  -0.86904   0.00068 
 H                    -0.08081   1.99529   0.00088 
 H                    -2.93444  -1.65799   0.00016 
 C                    -7.45369  -0.26233  -0.49331 
 O                    -6.78453  -1.56101  -0.11155 
 O                    -8.12173   1.03669  -0.87591 
 O                    -4.17756  -2.57565   0.5379 
 H                    -4.18642  -3.46968   1.19573 
 H                    -5.21366  -2.19716   0.414 
 
 Add virtual bond connecting atoms O12        and H8         Dist= 3.09D+00.
 Add virtual bond connecting atoms H14        and O10        Dist= 3.35D+00.

 GradGradGradGradGradGradGradGradGradGradGradGradGradGradGradGradGradGrad
 Berny optimization.
 Initialization pass.
                           ----------------------------
                           !    Initial Parameters    !
                           ! (Angstroms and Degrees)  !
 --------------------------                            --------------------------
 ! Name  Definition              Value          Derivative Info.                !
 --------------------------------------------------------------------------------
 ! R1    R(1,2)                  1.49           estimate D2E/DX2                !
 ! R2    R(1,5)                  1.4902         estimate D2E/DX2                !
 ! R3    R(2,3)                  1.5062         estimate D2E/DX2                !
 ! R4    R(2,8)                  1.11           estimate D2E/DX2                !
 ! R5    R(3,4)                  1.5277         estimate D2E/DX2                !
 ! R6    R(3,6)                  1.14           estimate D2E/DX2                !
 ! R7    R(4,5)                  1.5062         estimate D2E/DX2                !
 ! R8    R(4,7)                  1.14           estimate D2E/DX2                !
 ! R9    R(8,12)                 1.636          estimate D2E/DX2                !
 ! R10   R(9,10)                 1.51           estimate D2E/DX2                !
 ! R11   R(9,11)                 1.51           estimate D2E/DX2                !
 ! R12   R(10,14)                1.7744         estimate D2E/DX2                !
 ! R13   R(12,13)                1.11           estimate D2E/DX2                !
 ! R14   R(12,14)                1.11           estimate D2E/DX2                !
 ! A1    A(2,1,5)              111.9081         estimate D2E/DX2                !
 ! A2    A(1,2,3)              105.8343         estimate D2E/DX2                !
 ! A3    A(1,2,8)              120.197          estimate D2E/DX2                !
 ! A4    A(3,2,8)              133.9687         estimate D2E/DX2                !
 ! A5    A(2,3,4)              108.2118         estimate D2E/DX2                !
 ! A6    A(2,3,6)              125.8934         estimate D2E/DX2                !
 ! A7    A(4,3,6)              125.8948         estimate D2E/DX2                !
 ! A8    A(3,4,5)              108.2174         estimate D2E/DX2                !
 ! A9    A(3,4,7)              125.8871         estimate D2E/DX2                !
 ! A10   A(5,4,7)              125.8955         estimate D2E/DX2                !
 ! A11   A(1,5,4)              105.8284         estimate D2E/DX2                !
 ! A12   A(2,8,12)             146.8659         estimate D2E/DX2                !
 ! A13   A(9,10,14)            140.8544         estimate D2E/DX2                !
 ! A14   A(8,12,13)            130.7398         estimate D2E/DX2                !
 ! A15   A(8,12,14)            118.7704         estimate D2E/DX2                !
 ! A16   A(13,12,14)           109.4714         estimate D2E/DX2                !
 ! A17   L(10,9,11,1,-1)       179.9579         estimate D2E/DX2                !
 ! A18   L(10,14,12,1,-1)      176.2488         estimate D2E/DX2                !
 ! A19   L(10,9,11,1,-2)       179.9637         estimate D2E/DX2                !
 ! A20   L(10,14,12,1,-2)      190.5636         estimate D2E/DX2                !
 ! D1    D(5,1,2,3)             -0.0261         estimate D2E/DX2                !
 ! D2    D(5,1,2,8)            179.9764         estimate D2E/DX2                !
 ! D3    D(2,1,5,4)              0.0328         estimate D2E/DX2                !
 ! D4    D(1,2,3,4)              0.0088         estimate D2E/DX2                !
 ! D5    D(1,2,3,6)           -179.9996         estimate D2E/DX2                !
 ! D6    D(8,2,3,4)           -179.9942         estimate D2E/DX2                !
 ! D7    D(8,2,3,6)             -0.0026         estimate D2E/DX2                !
 ! D8    D(1,2,8,12)           -36.9806         estimate D2E/DX2                !
 ! D9    D(3,2,8,12)           143.0228         estimate D2E/DX2                !
 ! D10   D(2,3,4,5)              0.0108         estimate D2E/DX2                !
 ! D11   D(2,3,4,7)            179.9791         estimate D2E/DX2                !
 ! D12   D(6,3,4,5)           -179.9808         estimate D2E/DX2                !
 ! D13   D(6,3,4,7)             -0.0125         estimate D2E/DX2                !
 ! D14   D(3,4,5,1)             -0.0259         estimate D2E/DX2                !
 ! D15   D(7,4,5,1)           -179.9942         estimate D2E/DX2                !
 ! D16   D(2,8,12,13)         -115.8812         estimate D2E/DX2                !
 ! D17   D(2,8,12,14)           51.2415         estimate D2E/DX2                !
 ! D18   D(9,10,12,8)          -21.2247         estimate D2E/DX2                !
 ! D19   D(9,10,12,13)         153.0787         estimate D2E/DX2                !
 --------------------------------------------------------------------------------
 Trust Radius=3.00D-01 FncErr=1.00D-07 GrdErr=1.00D-06 EigMax=2.50D+02 EigMin=1.00D-04
 Number of steps in this run=     63 maximum allowed number of steps=    100.
 GradGradGradGradGradGradGradGradGradGradGradGradGradGradGradGradGradGrad

                          Input orientation:                          
 ---------------------------------------------------------------------
 Center     Atomic      Atomic             Coordinates (Angstroms)
 Number     Number       Type             X           Y           Z
 ---------------------------------------------------------------------
      1          7           0       -3.275970    0.577959   -0.000194
      2          7           0       -2.447470   -0.660512    0.000159
      3          6           0       -1.014520   -0.196383    0.000393
      4          6           0       -1.007460    1.331330    0.000395
      5          7           0       -2.436000    1.808820    0.000435
      6          1           0       -0.094095   -0.869036    0.000677
      7          1           0       -0.080812    1.995290    0.000883
      8          1           0       -2.934440   -1.657990    0.000159
      9          6           0       -7.453690   -0.262326   -0.493312
     10          8           0       -6.784530   -1.561010   -0.111550
     11          8           0       -8.121730    1.036690   -0.875910
     12          8           0       -4.177560   -2.575650    0.537899
     13          1           0       -4.186420   -3.469680    1.195730
     14          1           0       -5.213660   -2.197160    0.413998
 ---------------------------------------------------------------------
                    Distance matrix (angstroms):
                    1          2          3          4          5
     1  N    0.000000
     2  N    1.490041   0.000000
     3  C    2.390348   1.506241   0.000000
     4  C    2.390336   2.457857   1.527729   0.000000
     5  N    1.490157   2.469359   2.457935   1.506228   0.000000
     6  H    3.495444   2.362596   1.140020   2.382404   3.557448
     7  H    3.495406   3.557296   2.382276   1.139964   2.362558
     8  H    2.261882   1.110001   2.412962   3.556583   3.502458
     9  C    4.289824   5.046217   6.458406   6.658631   5.450747
    10  O    4.110667   4.430967   5.930241   6.461633   5.502546
    11  O    4.945574   5.987088   7.266417   7.174090   5.804454
    12  O    3.323802   2.636310   3.994327   5.059934   4.748208
    13  H    4.317700   3.513511   4.712139   5.880842   5.688169
    14  H    3.409910   3.191294   4.669792   5.505763   4.892270
                    6          7          8          9         10
     6  H    0.000000
     7  H    2.864357   0.000000
     8  H    2.947883   4.635693   0.000000
     9  C    7.401065   7.726602   4.755524   0.000000
    10  O    6.727061   7.589449   3.852931   1.509999   0.000000
    11  O    8.297176   8.145185   5.910734   1.510000   3.019999
    12  O    4.458232   6.161592   1.636035   4.141001   2.871858
    13  H    4.993859   6.938989   2.505806   4.880065   3.478818
    14  H    5.305158   6.640288   2.378405   3.095889   1.774407
                   11         12         13         14
    11  O    0.000000
    12  O    5.532118   0.000000
    13  H    6.331329   1.110004   0.000000
    14  H    4.536355   1.110004   1.812632   0.000000
 Stoichiometry    C3H5N3O3
 Framework group  C1[X(C3H5N3O3)]
 Deg. of freedom    36
 Full point group                 C1      NOp   1
 Largest Abelian subgroup         C1      NOp   1
 Largest concise Abelian subgroup C1      NOp   1
                         Standard orientation:                         
 ---------------------------------------------------------------------
 Center     Atomic      Atomic             Coordinates (Angstroms)
 Number     Number       Type             X           Y           Z
 ---------------------------------------------------------------------
      1          7           0       -0.940376   -0.631038    0.131487
      2          7           0       -1.569815    0.678654   -0.198265
      3          6           0       -3.051791    0.417489   -0.263832
      4          6           0       -3.289326   -1.062480    0.031508
      5          7           0       -1.953835   -1.713443    0.279368
      6          1           0       -3.857199    1.190792   -0.493976
      7          1           0       -4.302616   -1.583971    0.059952
      8          1           0       -0.939446    1.581442   -0.338667
      9          6           0        3.342190   -0.468893   -0.058073
     10          8           0        2.848387    0.957281   -0.010304
     11          8           0        3.834906   -1.895416   -0.106714
     12          8           0        0.380987    2.418803    0.142885
     13          1           0        0.472132    3.420692    0.611948
     14          1           0        1.354639    1.889781    0.208059
 ---------------------------------------------------------------------
 Rotational constants (GHZ):           1.9238192           0.5719358           0.4440111
 Standard basis: 6-31+G(d,p) (6D, 7F)
 There are   196 symmetry adapted cartesian basis functions of A   symmetry.
 There are   196 symmetry adapted basis functions of A   symmetry.
   196 basis functions,   323 primitive gaussians,   196 cartesian basis functions
    34 alpha electrons       34 beta electrons
       nuclear repulsion energy       358.3918773130 Hartrees.
 NAtoms=   14 NActive=   14 NUniq=   14 SFac= 1.00D+00 NAtFMM=   60 NAOKFM=F Big=F
 Integral buffers will be    131072 words long.
 Raffenetti 2 integral format.
 Two-electron integral symmetry is turned on.
 One-electron integrals computed using PRISM.
 NBasis=   196 RedAO= T EigKep=  1.14D-04  NBF=   196
 NBsUse=   196 1.00D-06 EigRej= -1.00D+00 NBFU=   196
 ExpMin= 4.38D-02 ExpMax= 5.48D+03 ExpMxC= 8.25D+02 IAcc=3 IRadAn=         5 AccDes= 0.00D+00
 Harris functional with IExCor= 1009 and IRadAn=       5 diagonalized for initial guess.
 HarFok:  IExCor= 1009 AccDes= 0.00D+00 IRadAn=         5 IDoV= 1 UseB2=F ITyADJ=14
 ICtDFT=  3500011 ScaDFX=  1.000000  1.000000  1.000000  1.000000
 FoFCou: FMM=F IPFlag=           0 FMFlag=      100000 FMFlg1=           0
         NFxFlg=           0 DoJE=T BraDBF=F KetDBF=T FulRan=T
         wScrn=  0.000000 ICntrl=       500 IOpCl=  0 I1Cent=   200000004 NGrid=           0
         NMat0=    1 NMatS0=      1 NMatT0=    0 NMatD0=    1 NMtDS0=    0 NMtDT0=    0
 Petite list used in FoFCou.
 Requested convergence on RMS density matrix=1.00D-08 within 128 cycles.
 Requested convergence on MAX density matrix=1.00D-06.
 Requested convergence on             energy=1.00D-06.
 No special actions if energy rises.
 SCF Done:  E(RM062X) =  -506.668965373     A.U. after   16 cycles
            NFock= 16  Conv=0.68D-08     -V/T= 2.0154

 **********************************************************************

            Population analysis using the SCF density.

 **********************************************************************

 Orbital symmetries:
       Occupied  (A) (A) (A) (A) (A) (A) (A) (A) (A) (A) (A) (A)
                 (A) (A) (A) (A) (A) (A) (A) (A) (A) (A) (A) (A)
                 (A) (A) (A) (A) (A) (A) (A) (A) (A) (A)
       Virtual   (A) (A) (A) (A) (A) (A) (A) (A) (A) (A) (A) (A)
                 (A) (A) (A) (A) (A) (A) (A) (A) (A) (A) (A) (A)
                 (A) (A) (A) (A) (A) (A) (A) (A) (A) (A) (A) (A)
                 (A) (A) (A) (A) (A) (A) (A) (A) (A) (A) (A) (A)
                 (A) (A) (A) (A) (A) (A) (A) (A) (A) (A) (A) (A)
                 (A) (A) (A) (A) (A) (A) (A) (A) (A) (A) (A) (A)
                 (A) (A) (A) (A) (A) (A) (A) (A) (A) (A) (A) (A)
                 (A) (A) (A) (A) (A) (A) (A) (A) (A) (A) (A) (A)
                 (A) (A) (A) (A) (A) (A) (A) (A) (A) (A) (A) (A)
                 (A) (A) (A) (A) (A) (A) (A) (A) (A) (A) (A) (A)
                 (A) (A) (A) (A) (A) (A) (A) (A) (A) (A) (A) (A)
                 (A) (A) (A) (A) (A) (A) (A) (A) (A) (A) (A) (A)
                 (A) (A) (A) (A) (A) (A) (A) (A) (A) (A) (A) (A)
                 (A) (A) (A) (A) (A) (A)
 The electronic state is 1-A.
 Alpha  occ. eigenvalues --  -19.81087 -19.80747 -19.69689 -14.84893 -14.83975
 Alpha  occ. eigenvalues --  -14.81475 -10.88713 -10.62735 -10.60796  -1.18190
 Alpha  occ. eigenvalues --   -1.15255  -1.11463  -1.08072  -0.93409  -0.83474
 Alpha  occ. eigenvalues --   -0.73395  -0.69758  -0.65035  -0.60675  -0.59261
 Alpha  occ. eigenvalues --   -0.57096  -0.53239  -0.53138  -0.50826  -0.48886
 Alpha  occ. eigenvalues --   -0.46185  -0.46061  -0.45721  -0.45032  -0.41884
 Alpha  occ. eigenvalues --   -0.36887  -0.35592  -0.32547  -0.28674
 Alpha virt. eigenvalues --   -0.12110  -0.11892  -0.10993  -0.00053   0.01253
 Alpha virt. eigenvalues --    0.03168   0.03465   0.04306   0.04363   0.05166
 Alpha virt. eigenvalues --    0.05472   0.07050   0.07144   0.08525   0.09251
 Alpha virt. eigenvalues --    0.10363   0.12137   0.13052   0.15100   0.15405
 Alpha virt. eigenvalues --    0.16094   0.16466   0.17887   0.18734   0.19584
 Alpha virt. eigenvalues --    0.20182   0.20420   0.20975   0.21765   0.22431
 Alpha virt. eigenvalues --    0.22893   0.23449   0.24006   0.24853   0.25716
 Alpha virt. eigenvalues --    0.26583   0.27254   0.28176   0.28521   0.29233
 Alpha virt. eigenvalues --    0.30217   0.30847   0.32245   0.33242   0.34607
 Alpha virt. eigenvalues --    0.34767   0.36625   0.37667   0.38002   0.40367
 Alpha virt. eigenvalues --    0.41750   0.44819   0.64299   0.68201   0.68988
 Alpha virt. eigenvalues --    0.73451   0.76396   0.81071   0.83671   0.90130
 Alpha virt. eigenvalues --    0.91248   0.92089   0.94892   0.96323   0.98064
 Alpha virt. eigenvalues --    0.98751   1.00156   1.00916   1.03294   1.04971
 Alpha virt. eigenvalues --    1.06874   1.08813   1.09505   1.09706   1.12143
 Alpha virt. eigenvalues --    1.13405   1.17556   1.19224   1.21709   1.23579
 Alpha virt. eigenvalues --    1.23952   1.25444   1.27488   1.29268   1.31464
 Alpha virt. eigenvalues --    1.32958   1.33927   1.37199   1.38863   1.39383
 Alpha virt. eigenvalues --    1.40224   1.41234   1.45704   1.48803   1.51131
 Alpha virt. eigenvalues --    1.52172   1.53364   1.55386   1.57443   1.58409
 Alpha virt. eigenvalues --    1.58789   1.61373   1.67308   1.71077   1.72221
 Alpha virt. eigenvalues --    1.76144   1.77682   1.78085   1.80167   1.80226
 Alpha virt. eigenvalues --    1.82746   1.84844   1.85551   1.86350   1.87301
 Alpha virt. eigenvalues --    1.87528   1.95361   2.00140   2.02169   2.05259
 Alpha virt. eigenvalues --    2.09919   2.10614   2.12269   2.18347   2.20854
 Alpha virt. eigenvalues --    2.26821   2.28890   2.37439   2.38930   2.39863
 Alpha virt. eigenvalues --    2.41030   2.41607   2.44665   2.46699   2.49204
 Alpha virt. eigenvalues --    2.51231   2.51845   2.54516   2.58419   2.61697
 Alpha virt. eigenvalues --    2.64457   2.71494   2.75472   2.79609   2.83749
 Alpha virt. eigenvalues --    2.86771   2.95052   3.06226   3.13265   3.21672
 Alpha virt. eigenvalues --    3.32673   3.46849   3.53686   3.88369   3.99020
 Alpha virt. eigenvalues --    4.15320   4.18566   4.21755   4.24172   4.30639
 Alpha virt. eigenvalues --    4.35694   4.56223
          Condensed to atoms (all electrons):
               1          2          3          4          5          6
     1  N    6.472215   0.255727  -0.070843   0.022833   0.387782   0.005022
     2  N    0.255727   6.597110   0.316579  -0.148432   0.021968  -0.029785
     3  C   -0.070843   0.316579   5.449224   0.261439  -0.072823   0.342074
     4  C    0.022833  -0.148432   0.261439   5.382561   0.310876   0.008358
     5  N    0.387782   0.021968  -0.072823   0.310876   6.525025  -0.001781
     6  H    0.005022  -0.029785   0.342074   0.008358  -0.001781   0.487541
     7  H    0.006349  -0.001256  -0.008771   0.352188  -0.024263   0.001141
     8  H    0.000480   0.273645  -0.008841   0.002502   0.000870   0.000608
     9  C    0.001210   0.000168  -0.000488  -0.000205   0.001034  -0.000003
    10  O    0.007876  -0.006374   0.000215  -0.000417   0.002180   0.000001
    11  O   -0.000388   0.000200  -0.000041   0.000043  -0.000670   0.000000
    12  O    0.013392  -0.062870   0.001043  -0.001485  -0.004351  -0.000239
    13  H    0.000290   0.004226   0.000253   0.000075  -0.000028  -0.000001
    14  H   -0.001434   0.006869   0.000087  -0.000168   0.000119   0.000000
               7          8          9         10         11         12
     1  N    0.006349   0.000480   0.001210   0.007876  -0.000388   0.013392
     2  N   -0.001256   0.273645   0.000168  -0.006374   0.000200  -0.062870
     3  C   -0.008771  -0.008841  -0.000488   0.000215  -0.000041   0.001043
     4  C    0.352188   0.002502  -0.000205  -0.000417   0.000043  -0.001485
     5  N   -0.024263   0.000870   0.001034   0.002180  -0.000670  -0.004351
     6  H    0.001141   0.000608  -0.000003   0.000001   0.000000  -0.000239
     7  H    0.486322  -0.000013   0.000001  -0.000000  -0.000000   0.000003
     8  H   -0.000013   0.284959   0.000061  -0.000126   0.000001  -0.009741
     9  C    0.000001   0.000061   4.723227   0.295143   0.342638  -0.001687
    10  O   -0.000000  -0.000126   0.295143   8.103289  -0.039580  -0.002596
    11  O   -0.000000   0.000001   0.342638  -0.039580   7.954321   0.000018
    12  O    0.000003  -0.009741  -0.001687  -0.002596   0.000018   8.397967
    13  H   -0.000000   0.000538   0.000221   0.000526   0.000000   0.249829
    14  H   -0.000000   0.001111   0.003636   0.004077   0.000030   0.242904
              13         14
     1  N    0.000290  -0.001434
     2  N    0.004226   0.006869
     3  C    0.000253   0.000087
     4  C    0.000075  -0.000168
     5  N   -0.000028   0.000119
     6  H   -0.000001   0.000000
     7  H   -0.000000  -0.000000
     8  H    0.000538   0.001111
     9  C    0.000221   0.003636
    10  O    0.000526   0.004077
    11  O    0.000000   0.000030
    12  O    0.249829   0.242904
    13  H    0.354338  -0.014525
    14  H   -0.014525   0.309433
 Mulliken charges:
               1
     1  N   -0.100510
     2  N   -0.227776
     3  C   -0.209105
     4  C   -0.190168
     5  N   -0.145938
     6  H    0.187064
     7  H    0.188298
     8  H    0.453947
     9  C    0.635043
    10  O   -0.364215
    11  O   -0.256571
    12  O   -0.822187
    13  H    0.404257
    14  H    0.447861
 Sum of Mulliken charges =  -0.00000
 Mulliken charges with hydrogens summed into heavy atoms:
               1
     1  N   -0.100510
     2  N    0.226172
     3  C   -0.022040
     4  C   -0.001870
     5  N   -0.145938
     9  C    0.635043
    10  O   -0.364215
    11  O   -0.256571
    12  O    0.029931
 Electronic spatial extent (au):  <R**2>=           2251.7891
 Charge=             -0.0000 electrons
 Dipole moment (field-independent basis, Debye):
    X=              1.3119    Y=              5.0683    Z=             -0.0743  Tot=              5.2359
 Quadrupole moment (field-independent basis, Debye-Ang):
   XX=            -37.7171   YY=            -49.2846   ZZ=            -56.2889
   XY=             -0.8761   XZ=              2.6351   YZ=              3.1011
 Traceless Quadrupole moment (field-independent basis, Debye-Ang):
   XX=             10.0464   YY=             -1.5211   ZZ=             -8.5254
   XY=             -0.8761   XZ=              2.6351   YZ=              3.1011
 Octapole moment (field-independent basis, Debye-Ang**2):
  XXX=            -16.7220  YYY=             67.9395  ZZZ=              1.0303  XYY=              3.5347
  XXY=             10.4275  XXZ=             -4.1194  XZZ=             16.5041  YZZ=              5.7028
  YYZ=             10.4850  XYZ=              4.2540
 Hexadecapole moment (field-independent basis, Debye-Ang**3):
 XXXX=          -1936.1578 YYYY=           -517.5756 ZZZZ=            -72.0720 XXXY=             39.9684
 XXXZ=             18.8835 YYYX=              1.0671 YYYZ=             53.4460 ZZZX=             -2.4413
 ZZZY=              5.2748 XXYY=           -482.5484 XXZZ=           -403.3546 YYZZ=           -122.1040
 XXYZ=             -7.5596 YYXZ=             14.9306 ZZXY=             -8.5300
 N-N= 3.583918773130D+02 E-N=-1.900393530859D+03  KE= 4.990088408868D+02
 Calling FoFJK, ICntrl=      2127 FMM=F ISym2X=0 I1Cent= 0 IOpClX= 0 NMat=1 NMatS=1 NMatT=0.
 ***** Axes restored to original set *****
 -------------------------------------------------------------------
 Center     Atomic                   Forces (Hartrees/Bohr)
 Number     Number              X              Y              Z
 -------------------------------------------------------------------
      1        7           0.090796734    0.016456234   -0.000085900
      2        7           0.057713667    0.110735957   -0.004230865
      3        6          -0.053608444    0.047751738   -0.000826034
      4        6          -0.072717475   -0.071662009    0.000195797
      5        7           0.032170047   -0.140263063   -0.000070139
      6        1          -0.034488500    0.015987777   -0.000043420
      7        1          -0.033920289   -0.018327753    0.000121003
      8        1           0.014857905    0.044246188    0.006403537
      9        6           0.000474883    0.012275065   -0.001983381
     10        8          -0.116005991    0.209641323   -0.063626235
     11        8           0.112510395   -0.221880929    0.064937923
     12        8          -0.077543512   -0.051187138    0.042423986
     13        1          -0.004921653    0.078380691   -0.056714108
     14        1           0.084682234   -0.032154079    0.013497837
 -------------------------------------------------------------------
 Cartesian Forces:  Max     0.221880929 RMS     0.072618519

 GradGradGradGradGradGradGradGradGradGradGradGradGradGradGradGradGradGrad
 Berny optimization.
 FormGI is forming the generalized inverse of G from B-inverse, IUseBI=4.
 Internal  Forces:  Max     0.257109016 RMS     0.063452069
 Search for a local minimum.
 Step number   1 out of a maximum of   63
 All quantities printed in internal units (Hartrees-Bohrs-Radians)
 Mixed Optimization -- RFO/linear search
 Second derivative matrix not updated -- first step.
 ITU=  0
     Eigenvalues ---    0.00230   0.00230   0.00230   0.00230   0.00230
     Eigenvalues ---    0.00237   0.00237   0.00249   0.00263   0.00329
     Eigenvalues ---    0.00336   0.00367   0.00397   0.06415   0.08433
     Eigenvalues ---    0.15962   0.16000   0.16000   0.16000   0.16000
     Eigenvalues ---    0.16000   0.22156   0.23876   0.24997   0.29012
     Eigenvalues ---    0.29618   0.29623   0.30478   0.31350   0.31351
     Eigenvalues ---    0.31562   0.32597   0.32600   0.32600   0.32651
     Eigenvalues ---    0.33181
 RFO step:  Lambda=-3.30841126D-01 EMin= 2.30000000D-03
 Linear search not attempted -- first point.
 Maximum step size (   0.300) exceeded in Quadratic search.
    -- Step size scaled by   0.419
 Iteration  1 RMS(Cart)=  0.06742608 RMS(Int)=  0.00021165
 Iteration  2 RMS(Cart)=  0.00059646 RMS(Int)=  0.00000376
 Iteration  3 RMS(Cart)=  0.00000020 RMS(Int)=  0.00000376
 Variable       Old X    -DE/DX   Delta X   Delta X   Delta X     New X
                                 (Linear)    (Quad)   (Total)
    R1        2.81577  -0.09579   0.00000  -0.06071  -0.06071   2.75506
    R2        2.81599  -0.12487   0.00000  -0.07894  -0.07894   2.73705
    R3        2.84638  -0.11542   0.00000  -0.07450  -0.07450   2.77188
    R4        2.09760  -0.04148   0.00000  -0.02644  -0.02644   2.07116
    R5        2.88699  -0.11963   0.00000  -0.07939  -0.07939   2.80760
    R6        2.15433  -0.03728   0.00000  -0.02490  -0.02490   2.12943
    R7        2.84636  -0.09615   0.00000  -0.06189  -0.06190   2.78446
    R8        2.15422  -0.03825   0.00000  -0.02554  -0.02554   2.12868
    R9        3.09166   0.00285   0.00000   0.00288   0.00288   3.09454
   R10        2.85348  -0.24626   0.00000  -0.16004  -0.16004   2.69345
   R11        2.85349  -0.25711   0.00000  -0.16709  -0.16709   2.68640
   R12        3.35314   0.00289   0.00000   0.00307   0.00307   3.35621
   R13        2.09760  -0.09670   0.00000  -0.06165  -0.06165   2.03596
   R14        2.09760  -0.08863   0.00000  -0.05651  -0.05651   2.04110
    A1        1.95316  -0.02613   0.00000  -0.02010  -0.02009   1.93308
    A2        1.84716   0.02869   0.00000   0.02135   0.02136   1.86851
    A3        2.09783  -0.01904   0.00000  -0.01468  -0.01469   2.08315
    A4        2.33819  -0.00965   0.00000  -0.00667  -0.00667   2.33153
    A5        1.88865  -0.02019   0.00000  -0.01476  -0.01476   1.87389
    A6        2.19725   0.00208   0.00000   0.00054   0.00054   2.19780
    A7        2.19728   0.01811   0.00000   0.01422   0.01422   2.21150
    A8        1.88875   0.00604   0.00000   0.00537   0.00537   1.89412
    A9        2.19714   0.00221   0.00000   0.00178   0.00178   2.19893
   A10        2.19729  -0.00826   0.00000  -0.00715  -0.00715   2.19014
   A11        1.84705   0.01159   0.00000   0.00813   0.00813   1.85518
   A12        2.56329   0.00628   0.00000   0.00453   0.00453   2.56783
   A13        2.45837  -0.00870   0.00000  -0.00743  -0.00743   2.45095
   A14        2.28184   0.00696   0.00000   0.00590   0.00590   2.28774
   A15        2.07293  -0.00245   0.00000  -0.00214  -0.00215   2.07079
   A16        1.91064  -0.00503   0.00000  -0.00436  -0.00436   1.90627
   A17        3.14086   0.00407   0.00000   0.00512   0.00512   3.14598
   A18        3.07612  -0.00466   0.00000  -0.00578  -0.00578   3.07034
   A19        3.14096  -0.00041   0.00000  -0.00052  -0.00052   3.14044
   A20        3.32596  -0.00071   0.00000  -0.00070  -0.00070   3.32526
    D1       -0.00046  -0.00021   0.00000  -0.00026  -0.00026  -0.00072
    D2        3.14118  -0.00011   0.00000  -0.00014  -0.00014   3.14104
    D3        0.00057   0.00006   0.00000   0.00007   0.00007   0.00064
    D4        0.00015   0.00027   0.00000   0.00034   0.00034   0.00049
    D5       -3.14159   0.00007   0.00000   0.00009   0.00009  -3.14149
    D6       -3.14149   0.00016   0.00000   0.00020   0.00020  -3.14130
    D7       -0.00005  -0.00004   0.00000  -0.00005  -0.00005  -0.00010
    D8       -0.64543   0.00062   0.00000   0.00077   0.00077  -0.64466
    D9        2.49622   0.00074   0.00000   0.00093   0.00093   2.49715
   D10        0.00019  -0.00024   0.00000  -0.00030  -0.00030  -0.00011
   D11        3.14123  -0.00019   0.00000  -0.00024  -0.00024   3.14099
   D12       -3.14126  -0.00004   0.00000  -0.00005  -0.00005  -3.14130
   D13       -0.00022   0.00001   0.00000   0.00001   0.00001  -0.00020
   D14       -0.00045   0.00010   0.00000   0.00013   0.00013  -0.00032
   D15       -3.14149   0.00005   0.00000   0.00007   0.00007  -3.14142
   D16       -2.02251   0.00042   0.00000   0.00020   0.00021  -2.02230
   D17        0.89433  -0.00363   0.00000  -0.00425  -0.00426   0.89007
   D18       -0.37044   0.00098   0.00000   0.00161   0.00160  -0.36884
   D19        2.67173  -0.00099   0.00000  -0.00162  -0.00161   2.67012
         Item               Value     Threshold  Converged?
 Maximum Force            0.257109     0.000450     NO 
 RMS     Force            0.063452     0.000300     NO 
 Maximum Displacement     0.259349     0.001800     NO 
 RMS     Displacement     0.067175     0.001200     NO 
 Predicted change in Energy=-1.244242D-01
 GradGradGradGradGradGradGradGradGradGradGradGradGradGradGradGradGradGrad

                          Input orientation:                          
 ---------------------------------------------------------------------
 Center     Atomic      Atomic             Coordinates (Angstroms)
 Number     Number       Type             X           Y           Z
 ---------------------------------------------------------------------
      1          7           0       -3.280370    0.568174   -0.004152
      2          7           0       -2.455458   -0.633921   -0.001663
      3          6           0       -1.055774   -0.195253    0.000978
      4          6           0       -1.056686    1.290462    0.000729
      5          7           0       -2.454098    1.757750   -0.002213
      6          1           0       -0.151997   -0.868278    0.003203
      7          1           0       -0.145655    1.952960    0.002936
      8          1           0       -2.939101   -1.617447   -0.002202
      9          6           0       -7.369198   -0.278890   -0.477128
     10          8           0       -6.757610   -1.515661   -0.119547
     11          8           0       -7.984488    0.951486   -0.835576
     12          8           0       -4.184742   -2.537819    0.529674
     13          1           0       -4.201484   -3.406837    1.166288
     14          1           0       -5.191697   -2.166385    0.408434
 ---------------------------------------------------------------------
                    Distance matrix (angstroms):
                    1          2          3          4          5
     1  N    0.000000
     2  N    1.457915   0.000000
     3  C    2.351951   1.466817   0.000000
     4  C    2.338053   2.379037   1.485715   0.000000
     5  N    1.448385   2.391671   2.401987   1.473474   0.000000
     6  H    3.442407   2.315358   1.126845   2.340647   3.492237
     7  H    3.426969   3.468020   2.333054   1.126449   2.316688
     8  H    2.212105   1.096008   2.359993   3.464019   3.409865
     9  C    4.202350   4.949440   6.332054   6.522195   5.341503
    10  O    4.055476   4.393162   5.853968   6.355260   5.408253
    11  O    4.792382   5.811979   7.072617   6.986326   5.650644
    12  O    3.278727   2.626323   3.944309   4.971947   4.661539
    13  H    4.244890   3.478761   4.644105   5.771732   5.575994
    14  H    3.361727   3.162851   4.599700   5.405028   4.802282
                    6          7          8          9         10
     6  H    0.000000
     7  H    2.821245   0.000000
     8  H    2.886041   4.533340   0.000000
     9  C    7.257141   7.575698   4.652209   0.000000
    10  O    6.638395   7.467549   3.821667   1.425310   0.000000
    11  O    8.084739   7.946909   5.722749   1.421580   2.846883
    12  O    4.396313   6.062902   1.637559   4.032018   2.843579
    13  H    4.918881   6.821331   2.482115   4.745449   3.429824
    14  H    5.219949   6.526559   2.354600   3.014693   1.776032
                   11         12         13         14
    11  O    0.000000
    12  O    5.336406   0.000000
    13  H    6.108482   1.077381   0.000000
    14  H    4.366734   1.080102   1.758859   0.000000
 Stoichiometry    C3H5N3O3
 Framework group  C1[X(C3H5N3O3)]
 Deg. of freedom    36
 Full point group                 C1      NOp   1
 Largest Abelian subgroup         C1      NOp   1
 Largest concise Abelian subgroup C1      NOp   1
                         Standard orientation:                         
 ---------------------------------------------------------------------
 Center     Atomic      Atomic             Coordinates (Angstroms)
 Number     Number       Type             X           Y           Z
 ---------------------------------------------------------------------
      1          7           0       -0.928302   -0.623398    0.126965
      2          7           0       -1.547677    0.657116   -0.192686
      3          6           0       -2.995563    0.430884   -0.255918
      4          6           0       -3.232682   -1.007231    0.032096
      5          7           0       -1.932158   -1.657559    0.270504
      6          1           0       -3.777293    1.210432   -0.481712
      7          1           0       -4.235522   -1.519233    0.064531
      8          1           0       -0.914116    1.540559   -0.331831
      9          6           0        3.267530   -0.479778   -0.057728
     10          8           0        2.836321    0.878062   -0.014867
     11          8           0        3.703473   -1.832131   -0.102275
     12          8           0        0.418237    2.366024    0.142559
     13          1           0        0.524969    3.337230    0.596558
     14          1           0        1.358977    1.839016    0.204934
 ---------------------------------------------------------------------
 Rotational constants (GHZ):           2.0458740           0.5953363           0.4644016
 Standard basis: 6-31+G(d,p) (6D, 7F)
 There are   196 symmetry adapted cartesian basis functions of A   symmetry.
 There are   196 symmetry adapted basis functions of A   symmetry.
   196 basis functions,   323 primitive gaussians,   196 cartesian basis functions
    34 alpha electrons       34 beta electrons
       nuclear repulsion energy       367.7367297894 Hartrees.
 NAtoms=   14 NActive=   14 NUniq=   14 SFac= 1.00D+00 NAtFMM=   60 NAOKFM=F Big=F
 Integral buffers will be    131072 words long.
 Raffenetti 2 integral format.
 Two-electron integral symmetry is turned on.
 One-electron integrals computed using PRISM.
 NBasis=   196 RedAO= T EigKep=  9.41D-05  NBF=   196
 NBsUse=   196 1.00D-06 EigRej= -1.00D+00 NBFU=   196
 Initial guess from the checkpoint file:  "/scratch/gongke2021/1-H-Tz-RC/Gau-11960.chk"
 B after Tr=    -0.000000    0.000000   -0.000000
         Rot=    0.999990   -0.000149   -0.000254    0.004445 Ang=  -0.51 deg.
 ExpMin= 4.38D-02 ExpMax= 5.48D+03 ExpMxC= 8.25D+02 IAcc=2 IRadAn=         4 AccDes= 0.00D+00
 Harris functional with IExCor= 1009 and IRadAn=       4 diagonalized for initial guess.
 HarFok:  IExCor= 1009 AccDes= 0.00D+00 IRadAn=         4 IDoV= 1 UseB2=F ITyADJ=14
 ICtDFT=  3500011 ScaDFX=  1.000000  1.000000  1.000000  1.000000
 FoFCou: FMM=F IPFlag=           0 FMFlag=      100000 FMFlg1=           0
         NFxFlg=           0 DoJE=T BraDBF=F KetDBF=T FulRan=T
         wScrn=  0.000000 ICntrl=       500 IOpCl=  0 I1Cent=   200000004 NGrid=           0
         NMat0=    1 NMatS0=      1 NMatT0=    0 NMatD0=    1 NMtDS0=    0 NMtDT0=    0
 Petite list used in FoFCou.
 Requested convergence on RMS density matrix=1.00D-08 within 128 cycles.
 Requested convergence on MAX density matrix=1.00D-06.
 Requested convergence on             energy=1.00D-06.
 No special actions if energy rises.
 SCF Done:  E(RM062X) =  -506.804008988     A.U. after   14 cycles
            NFock= 14  Conv=0.75D-08     -V/T= 2.0144
 Calling FoFJK, ICntrl=      2127 FMM=F ISym2X=0 I1Cent= 0 IOpClX= 0 NMat=1 NMatS=1 NMatT=0.
 ***** Axes restored to original set *****
 -------------------------------------------------------------------
 Center     Atomic                   Forces (Hartrees/Bohr)
 Number     Number              X              Y              Z
 -------------------------------------------------------------------
      1        7           0.084132367    0.016426599    0.000118525
      2        7           0.045921630    0.093131969   -0.004426656
      3        6          -0.047202709    0.039330444   -0.000858068
      4        6          -0.061457269   -0.058007686    0.000095369
      5        7           0.023468818   -0.123336907    0.000022797
      6        1          -0.028668825    0.012558127   -0.000115568
      7        1          -0.028193032   -0.013994905    0.000068391
      8        1           0.014112467    0.039661070    0.005990572
      9        6          -0.002344048    0.014437008   -0.003134926
     10        8          -0.111662715    0.210413584   -0.062595544
     11        8           0.110436177   -0.223892374    0.064836072
     12        8          -0.069223090   -0.045744709    0.036973088
     13        1          -0.003660456    0.067844321   -0.048895952
     14        1           0.074340685   -0.028826541    0.011921901
 -------------------------------------------------------------------
 Cartesian Forces:  Max     0.223892374 RMS     0.068622328

 GradGradGradGradGradGradGradGradGradGradGradGradGradGradGradGradGradGrad
 Berny optimization.
 Using GEDIIS/GDIIS optimizer.
 FormGI is forming the generalized inverse of G from B-inverse, IUseBI=4.
 Internal  Forces:  Max     0.257927391 RMS     0.059760492
 Search for a local minimum.
 Step number   2 out of a maximum of   63
 All quantities printed in internal units (Hartrees-Bohrs-Radians)
 Mixed Optimization -- RFO/linear search
 Update second derivatives using D2CorX and points    1    2
 DE= -1.35D-01 DEPred=-1.24D-01 R= 1.09D+00
 TightC=F SS=  1.41D+00  RLast= 3.00D-01 DXNew= 5.0454D-01 9.0012D-01
 Trust test= 1.09D+00 RLast= 3.00D-01 DXMaxT set to 5.05D-01
 ITU=  1  0
 Use linear search instead of GDIIS.
 Linear search step of   0.600 exceeds DXMaxT=   0.505 but not scaled.
 Quartic linear search produced a step of  2.00000.
 Iteration  1 RMS(Cart)=  0.11337252 RMS(Int)=  0.02488386
 Iteration  2 RMS(Cart)=  0.03249623 RMS(Int)=  0.00004157
 Iteration  3 RMS(Cart)=  0.00012810 RMS(Int)=  0.00002093
 Iteration  4 RMS(Cart)=  0.00000001 RMS(Int)=  0.00002093
 Variable       Old X    -DE/DX   Delta X   Delta X   Delta X     New X
                                 (Linear)    (Quad)   (Total)
    R1        2.75506  -0.08358  -0.12142   0.00000  -0.12139   2.63367
    R2        2.73705  -0.11102  -0.15788   0.00000  -0.15787   2.57918
    R3        2.77188  -0.09744  -0.14900   0.00000  -0.14899   2.62289
    R4        2.07116  -0.03568  -0.05289   0.00000  -0.05288   2.01827
    R5        2.80760  -0.09791  -0.15879   0.00000  -0.15881   2.64878
    R6        2.12943  -0.03050  -0.04979   0.00000  -0.04979   2.07964
    R7        2.78446  -0.08204  -0.12379   0.00000  -0.12381   2.66065
    R8        2.12868  -0.03103  -0.05108   0.00000  -0.05108   2.07760
    R9        3.09454   0.00452   0.00576   0.00000   0.00576   3.10030
   R10        2.69345  -0.24361  -0.32008   0.00000  -0.32008   2.37337
   R11        2.68640  -0.25793  -0.33418   0.00000  -0.33418   2.35222
   R12        3.35621   0.00377   0.00614   0.00000   0.00614   3.36235
   R13        2.03596  -0.08356  -0.12330   0.00000  -0.12330   1.91266
   R14        2.04110  -0.07683  -0.11302   0.00000  -0.11301   1.92808
    A1        1.93308  -0.01945  -0.04017   0.00000  -0.04012   1.89295
    A2        1.86851   0.02313   0.04271   0.00000   0.04274   1.91125
    A3        2.08315  -0.01603  -0.02937   0.00000  -0.02939   2.05376
    A4        2.33153  -0.00710  -0.01334   0.00000  -0.01335   2.31817
    A5        1.87389  -0.01755  -0.02952   0.00000  -0.02954   1.84435
    A6        2.19780   0.00127   0.00109   0.00000   0.00110   2.19889
    A7        2.21150   0.01628   0.02844   0.00000   0.02844   2.23994
    A8        1.89412   0.00342   0.01073   0.00000   0.01069   1.90480
    A9        2.19893   0.00389   0.00357   0.00000   0.00359   2.20251
   A10        2.19014  -0.00731  -0.01430   0.00000  -0.01427   2.17587
   A11        1.85518   0.01045   0.01625   0.00000   0.01624   1.87142
   A12        2.56783   0.00575   0.00907   0.00000   0.00907   2.57690
   A13        2.45095  -0.00731  -0.01485   0.00000  -0.01485   2.43609
   A14        2.28774   0.00646   0.01180   0.00000   0.01178   2.29952
   A15        2.07079  -0.00327  -0.00429   0.00000  -0.00430   2.06649
   A16        1.90627  -0.00370  -0.00873   0.00000  -0.00873   1.89754
   A17        3.14598   0.00370   0.01024   0.00000   0.01024   3.15622
   A18        3.07034  -0.00526  -0.01157   0.00000  -0.01158   3.05876
   A19        3.14044  -0.00036  -0.00103   0.00000  -0.00103   3.13941
   A20        3.32526  -0.00090  -0.00140   0.00000  -0.00143   3.32383
    D1       -0.00072  -0.00019  -0.00053   0.00000  -0.00053  -0.00125
    D2        3.14104  -0.00016  -0.00029   0.00000  -0.00028   3.14076
    D3        0.00064   0.00004   0.00015   0.00000   0.00014   0.00078
    D4        0.00049   0.00025   0.00068   0.00000   0.00069   0.00118
    D5       -3.14149   0.00006   0.00018   0.00000   0.00020  -3.14129
    D6       -3.14130   0.00021   0.00039   0.00000   0.00039  -3.14091
    D7       -0.00010   0.00002  -0.00011   0.00000  -0.00010  -0.00020
    D8       -0.64466   0.00070   0.00155   0.00000   0.00155  -0.64311
    D9        2.49715   0.00074   0.00186   0.00000   0.00186   2.49901
   D10       -0.00011  -0.00022  -0.00060   0.00000  -0.00059  -0.00070
   D11        3.14099  -0.00019  -0.00048   0.00000  -0.00048   3.14051
   D12       -3.14130  -0.00002  -0.00009   0.00000  -0.00008  -3.14138
   D13       -0.00020   0.00002   0.00002   0.00000   0.00003  -0.00017
   D14       -0.00032   0.00011   0.00027   0.00000   0.00027  -0.00005
   D15       -3.14142   0.00006   0.00014   0.00000   0.00016  -3.14126
   D16       -2.02230   0.00024   0.00042   0.00000   0.00047  -2.02183
   D17        0.89007  -0.00350  -0.00852   0.00000  -0.00856   0.88151
   D18       -0.36884   0.00116   0.00320   0.00000   0.00314  -0.36571
   D19        2.67012  -0.00106  -0.00322   0.00000  -0.00316   2.66695
         Item               Value     Threshold  Converged?
 Maximum Force            0.257927     0.000450     NO 
 RMS     Force            0.059760     0.000300     NO 
 Maximum Displacement     0.501311     0.001800     NO 
 RMS     Displacement     0.132827     0.001200     NO 
 Predicted change in Energy=-2.432416D-01
 GradGradGradGradGradGradGradGradGradGradGradGradGradGradGradGradGradGrad

                          Input orientation:                          
 ---------------------------------------------------------------------
 Center     Atomic      Atomic             Coordinates (Angstroms)
 Number     Number       Type             X           Y           Z
 ---------------------------------------------------------------------
      1          7           0       -3.285079    0.549538   -0.011630
      2          7           0       -2.470550   -0.581320   -0.005097
      3          6           0       -1.138103   -0.192733    0.002304
      4          6           0       -1.152406    1.208869    0.001755
      5          7           0       -2.487167    1.656840   -0.006864
      6          1           0       -0.268024   -0.866543    0.008232
      7          1           0       -0.271852    1.867132    0.007471
      8          1           0       -2.948151   -1.536604   -0.006941
      9          6           0       -7.205419   -0.313779   -0.445206
     10          8           0       -6.703161   -1.422506   -0.135646
     11          8           0       -7.719206    0.776692   -0.755488
     12          8           0       -4.199643   -2.461378    0.512816
     13          1           0       -4.231427   -3.280116    1.107016
     14          1           0       -5.148170   -2.103748    0.397041
 ---------------------------------------------------------------------
                    Distance matrix (angstroms):
                    1          2          3          4          5
     1  N    0.000000
     2  N    1.393679   0.000000
     3  C    2.271710   1.387973   0.000000
     4  C    2.232306   2.223135   1.401675   0.000000
     5  N    1.364846   2.238222   2.289318   1.407956   0.000000
     6  H    3.332911   2.220957   1.100496   2.255993   3.360399
     7  H    3.288762   3.290797   2.234605   1.099417   2.225320
     8  H    2.113180   1.068023   2.254406   3.280609   3.226544
     9  C    4.037619   4.762799   6.085002   6.257571   5.131996
    10  O    3.948116   4.317364   5.700986   6.144419   5.222409
    11  O    4.501823   5.473178   6.695144   6.624429   5.358109
    12  O    3.190155   2.606264   3.844529   4.797661   4.490252
    13  H    4.100389   3.408956   4.507879   5.554543   5.353195
    14  H    3.267728   3.106308   4.459645   5.205364   4.624510
                    6          7          8          9         10
     6  H    0.000000
     7  H    2.733677   0.000000
     8  H    2.762660   4.329919   0.000000
     9  C    6.974138   7.282557   4.451035   0.000000
    10  O    6.460711   7.225228   3.758947   1.255932   0.000000
    11  O    7.668351   7.565332   5.354870   1.244740   2.500604
    12  O    4.272673   5.866763   1.640606   3.816369   2.786998
    13  H    4.768776   6.586455   2.434652   4.478077   3.332325
    14  H    5.049522   6.300645   2.307583   2.854057   1.779281
                   11         12         13         14
    11  O    0.000000
    12  O    4.947829   0.000000
    13  H    5.664911   1.012134   0.000000
    14  H    4.029328   1.020297   1.651764   0.000000
 Stoichiometry    C3H5N3O3
 Framework group  C1[X(C3H5N3O3)]
 Deg. of freedom    36
 Full point group                 C1      NOp   1
 Largest Abelian subgroup         C1      NOp   1
 Largest concise Abelian subgroup C1      NOp   1
                         Standard orientation:                         
 ---------------------------------------------------------------------
 Center     Atomic      Atomic             Coordinates (Angstroms)
 Number     Number       Type             X           Y           Z
 ---------------------------------------------------------------------
      1          7           0       -0.908557   -0.609279    0.117940
      2          7           0       -1.506343    0.613515   -0.181666
      3          6           0       -2.883870    0.453966   -0.240266
      4          6           0       -3.120168   -0.900373    0.032907
      5          7           0       -1.889721   -1.548360    0.253024
      6          1           0       -3.617772    1.244692   -0.457595
      7          1           0       -4.102286   -1.392874    0.072949
      8          1           0       -0.866877    1.457954   -0.318342
      9          6           0        3.123692   -0.496196   -0.056867
     10          8           0        2.806843    0.718655   -0.023550
     11          8           0        3.455167   -1.695438   -0.093211
     12          8           0        0.489492    2.258121    0.141639
     13          1           0        0.624674    3.167240    0.565483
     14          1           0        1.364671    1.736771    0.198759
 ---------------------------------------------------------------------
 Rotational constants (GHZ):           2.3297375           0.6444711           0.5083121
 Standard basis: 6-31+G(d,p) (6D, 7F)
 There are   196 symmetry adapted cartesian basis functions of A   symmetry.
 There are   196 symmetry adapted basis functions of A   symmetry.
   196 basis functions,   323 primitive gaussians,   196 cartesian basis functions
    34 alpha electrons       34 beta electrons
       nuclear repulsion energy       388.4514388261 Hartrees.
 NAtoms=   14 NActive=   14 NUniq=   14 SFac= 1.00D+00 NAtFMM=   60 NAOKFM=F Big=F
 Integral buffers will be    131072 words long.
 Raffenetti 2 integral format.
 Two-electron integral symmetry is turned on.
 One-electron integrals computed using PRISM.
 NBasis=   196 RedAO= T EigKep=  6.26D-05  NBF=   196
 NBsUse=   196 1.00D-06 EigRej= -1.00D+00 NBFU=   196
 Initial guess from the checkpoint file:  "/scratch/gongke2021/1-H-Tz-RC/Gau-11960.chk"
 B after Tr=     0.000000   -0.000000    0.000000
         Rot=    0.999962   -0.000346   -0.000478    0.008661 Ang=  -0.99 deg.
 ExpMin= 4.38D-02 ExpMax= 5.48D+03 ExpMxC= 8.25D+02 IAcc=2 IRadAn=         4 AccDes= 0.00D+00
 Harris functional with IExCor= 1009 and IRadAn=       4 diagonalized for initial guess.
 HarFok:  IExCor= 1009 AccDes= 0.00D+00 IRadAn=         4 IDoV= 1 UseB2=F ITyADJ=14
 ICtDFT=  3500011 ScaDFX=  1.000000  1.000000  1.000000  1.000000
 FoFCou: FMM=F IPFlag=           0 FMFlag=      100000 FMFlg1=           0
         NFxFlg=           0 DoJE=T BraDBF=F KetDBF=T FulRan=T
         wScrn=  0.000000 ICntrl=       500 IOpCl=  0 I1Cent=   200000004 NGrid=           0
         NMat0=    1 NMatS0=      1 NMatT0=    0 NMatD0=    1 NMtDS0=    0 NMtDT0=    0
 Petite list used in FoFCou.
 Requested convergence on RMS density matrix=1.00D-08 within 128 cycles.
 Requested convergence on MAX density matrix=1.00D-06.
 Requested convergence on             energy=1.00D-06.
 No special actions if energy rises.
 SCF Done:  E(RM062X) =  -507.018708900     A.U. after   15 cycles
            NFock= 15  Conv=0.58D-08     -V/T= 2.0112
 Calling FoFJK, ICntrl=      2127 FMM=F ISym2X=0 I1Cent= 0 IOpClX= 0 NMat=1 NMatS=1 NMatT=0.
 ***** Axes restored to original set *****
 -------------------------------------------------------------------
 Center     Atomic                   Forces (Hartrees/Bohr)
 Number     Number              X              Y              Z
 -------------------------------------------------------------------
      1        7           0.054969937    0.010003024    0.000364335
      2        7           0.010754518    0.041066144   -0.004947732
      3        6          -0.020251399    0.009488251   -0.000758347
      4        6          -0.028473700   -0.013259060    0.000045965
      5        7           0.006426928   -0.068361681    0.000046236
      6        1          -0.015698314    0.004370236   -0.000173991
      7        1          -0.015024993   -0.003957654    0.000036429
      8        1           0.012072575    0.028085197    0.005151879
      9        6          -0.003089545    0.010095174   -0.002734387
     10        8          -0.064228371    0.128703277   -0.036951446
     11        8           0.063116619   -0.136105828    0.038502995
     12        8          -0.042968417   -0.029074127    0.020678741
     13        1          -0.001559116    0.036826932   -0.026346063
     14        1           0.043953277   -0.017879887    0.007085387
 -------------------------------------------------------------------
 Cartesian Forces:  Max     0.136105828 RMS     0.039718445

 GradGradGradGradGradGradGradGradGradGradGradGradGradGradGradGradGradGrad
 Berny optimization.
 Using GEDIIS/GDIIS optimizer.
 FormGI is forming the generalized inverse of G from B-inverse, IUseBI=4.
 Internal  Forces:  Max     0.154889252 RMS     0.033982247
 Search for a local minimum.
 Step number   3 out of a maximum of   63
 All quantities printed in internal units (Hartrees-Bohrs-Radians)
 Mixed Optimization -- RFO/linear search
 Update second derivatives using D2CorX and points    2    3
 ITU=  0  1  0
 Use linear search instead of GDIIS.
     Eigenvalues ---    0.00230   0.00230   0.00230   0.00230   0.00230
     Eigenvalues ---    0.00237   0.00237   0.00250   0.00264   0.00328
     Eigenvalues ---    0.00337   0.00368   0.00414   0.06413   0.08425
     Eigenvalues ---    0.15952   0.15958   0.16000   0.16000   0.16000
     Eigenvalues ---    0.16006   0.22218   0.23873   0.24986   0.27525
     Eigenvalues ---    0.29619   0.29647   0.30123   0.31346   0.31450
     Eigenvalues ---    0.32219   0.32459   0.32598   0.32602   0.33086
     Eigenvalues ---    0.34312
 RFO step:  Lambda=-1.40871085D-02 EMin= 2.29926250D-03
 Quartic linear search produced a step of  0.57409.
 Iteration  1 RMS(Cart)=  0.28946113 RMS(Int)=  0.02927059
 Iteration  2 RMS(Cart)=  0.08112323 RMS(Int)=  0.00125357
 Iteration  3 RMS(Cart)=  0.00210959 RMS(Int)=  0.00023579
 Iteration  4 RMS(Cart)=  0.00000281 RMS(Int)=  0.00023579
 Iteration  5 RMS(Cart)=  0.00000000 RMS(Int)=  0.00023579
 Variable       Old X    -DE/DX   Delta X   Delta X   Delta X     New X
                                 (Linear)    (Quad)   (Total)
    R1        2.63367  -0.04730  -0.06969  -0.00532  -0.07482   2.55885
    R2        2.57918  -0.06213  -0.09063  -0.00633  -0.09667   2.48252
    R3        2.62289  -0.04358  -0.08554   0.05624  -0.02946   2.59343
    R4        2.01827  -0.02171  -0.03036  -0.00806  -0.03843   1.97984
    R5        2.64878  -0.03287  -0.09117   0.12307   0.03160   2.68038
    R6        2.07964  -0.01509  -0.02859   0.01326  -0.01533   2.06431
    R7        2.66065  -0.04255  -0.07108   0.01738  -0.05370   2.60695
    R8        2.07760  -0.01440  -0.02933   0.01859  -0.01074   2.06686
    R9        3.10030   0.00786   0.00331   0.08652   0.08983   3.19013
   R10        2.37337  -0.14407  -0.18375  -0.06276  -0.24652   2.12685
   R11        2.35222  -0.15489  -0.19185  -0.08075  -0.27260   2.07962
   R12        3.36235   0.00507   0.00353   0.05716   0.06069   3.42304
   R13        1.91266  -0.04521  -0.07078   0.00678  -0.06400   1.84866
   R14        1.92808  -0.04299  -0.06488  -0.00056  -0.06543   1.86265
    A1        1.89295  -0.00258  -0.02304   0.05527   0.03280   1.92575
    A2        1.91125   0.00869   0.02454  -0.03477  -0.01030   1.90095
    A3        2.05376  -0.00783  -0.01687   0.01047  -0.00641   2.04735
    A4        2.31817  -0.00086  -0.00767   0.02430   0.01663   2.33480
    A5        1.84435  -0.01036  -0.01696   0.00675  -0.01070   1.83365
    A6        2.19889  -0.00122   0.00063  -0.01968  -0.01880   2.18009
    A7        2.23994   0.01158   0.01633   0.01292   0.02950   2.26944
    A8        1.90480  -0.00314   0.00614  -0.03432  -0.02851   1.87629
    A9        2.20251   0.00763   0.00206   0.04243   0.04465   2.24716
   A10        2.17587  -0.00448  -0.00819  -0.00811  -0.01614   2.15973
   A11        1.87142   0.00739   0.00932   0.00707   0.01671   1.88813
   A12        2.57690   0.00457   0.00521   0.00755   0.01280   2.58969
   A13        2.43609  -0.00424  -0.00853   0.00402  -0.00451   2.43159
   A14        2.29952   0.00525   0.00676   0.01054   0.01739   2.31691
   A15        2.06649  -0.00514  -0.00247  -0.03152  -0.03404   2.03245
   A16        1.89754  -0.00056  -0.00501   0.01667   0.01150   1.90904
   A17        3.15622   0.00217   0.00588  -0.05904  -0.05316   3.10306
   A18        3.05876  -0.00629  -0.00665  -0.26401  -0.27050   2.78826
   A19        3.13941  -0.00015  -0.00059   0.01204   0.01145   3.15086
   A20        3.32383  -0.00129  -0.00082  -0.07288  -0.07335   3.25048
    D1       -0.00125  -0.00014  -0.00031   0.00095   0.00060  -0.00065
    D2        3.14076  -0.00022  -0.00016  -0.01159  -0.01156   3.12920
    D3        0.00078   0.00001   0.00008  -0.00222  -0.00217  -0.00139
    D4        0.00118   0.00020   0.00039   0.00071   0.00114   0.00232
    D5       -3.14129   0.00002   0.00012  -0.00301  -0.00280   3.13910
    D6       -3.14091   0.00030   0.00022   0.01584   0.01609  -3.12482
    D7       -0.00020   0.00012  -0.00006   0.01212   0.01215   0.01196
    D8       -0.64311   0.00083   0.00089   0.03377   0.03463  -0.60848
    D9        2.49901   0.00071   0.00107   0.01767   0.01872   2.51773
   D10       -0.00070  -0.00018  -0.00034  -0.00212  -0.00242  -0.00312
   D11        3.14051  -0.00016  -0.00027  -0.00288  -0.00320   3.13732
   D12       -3.14138   0.00000  -0.00004   0.00175   0.00183  -3.13955
   D13       -0.00017   0.00002   0.00002   0.00098   0.00106   0.00089
   D14       -0.00005   0.00011   0.00016   0.00274   0.00287   0.00282
   D15       -3.14126   0.00009   0.00009   0.00348   0.00358  -3.13769
   D16       -2.02183  -0.00026   0.00027  -0.04145  -0.04177  -2.06360
   D17        0.88151  -0.00319  -0.00491  -0.06605  -0.07045   0.81107
   D18       -0.36571   0.00154   0.00180   0.06487   0.06734  -0.29837
   D19        2.66695  -0.00127  -0.00182  -0.04236  -0.04484   2.62211
         Item               Value     Threshold  Converged?
 Maximum Force            0.154889     0.000450     NO 
 RMS     Force            0.033982     0.000300     NO 
 Maximum Displacement     1.749492     0.001800     NO 
 RMS     Displacement     0.359355     0.001200     NO 
 Predicted change in Energy=-7.637948D-02
 GradGradGradGradGradGradGradGradGradGradGradGradGradGradGradGradGradGrad

                          Input orientation:                          
 ---------------------------------------------------------------------
 Center     Atomic      Atomic             Coordinates (Angstroms)
 Number     Number       Type             X           Y           Z
 ---------------------------------------------------------------------
      1          7           0       -3.447579    0.395508   -0.088363
      2          7           0       -2.583696   -0.644905   -0.019146
      3          6           0       -1.301062   -0.157352    0.004894
      4          6           0       -1.441751    1.252934   -0.051258
      5          7           0       -2.791238    1.533290   -0.109666
      6          1           0       -0.399639   -0.771829    0.061106
      7          1           0       -0.661496    2.019392   -0.050161
      8          1           0       -2.993607   -1.608455    0.015407
      9          6           0       -6.668964   -0.125662   -0.394271
     10          8           0       -6.500365   -1.207107   -0.132052
     11          8           0       -6.793415    0.940527   -0.636796
     12          8           0       -4.236490   -2.623976    0.538658
     13          1           0       -4.252456   -3.404620    1.128018
     14          1           0       -5.156599   -2.297403    0.403392
 ---------------------------------------------------------------------
                    Distance matrix (angstroms):
                    1          2          3          4          5
     1  N    0.000000
     2  N    1.354085   0.000000
     3  C    2.218533   1.372383   0.000000
     4  C    2.181720   2.215144   1.418398   0.000000
     5  N    1.313691   2.189931   2.256550   1.379539   0.000000
     6  H    3.267255   2.189213   1.092385   2.279975   3.326031
     7  H    3.225014   3.285466   2.269424   1.093735   2.185323
     8  H    2.057360   1.047688   2.229466   3.255802   3.150739
     9  C    3.277578   4.135184   5.382816   5.416820   4.227278
    10  O    3.448157   3.958424   5.305986   5.625647   4.611713
    11  O    3.434012   4.540575   5.637645   5.392658   4.080030
    12  O    3.183209   2.638105   3.871160   4.815496   4.448813
    13  H    4.070428   3.422978   4.529557   5.566289   5.296223
    14  H    3.227126   3.086927   4.427616   5.158652   4.531265
                    6          7          8          9         10
     6  H    0.000000
     7  H    2.805684   0.000000
     8  H    2.725931   4.313272   0.000000
     9  C    6.318966   6.388218   3.984314   0.000000
    10  O    6.119284   6.671535   3.532729   1.125480   0.000000
    11  O    6.655794   6.253680   4.621820   1.100485   2.225528
    12  O    4.287182   5.889665   1.688145   3.609551   2.753634
    13  H    4.786866   6.610825   2.459434   4.348384   3.386730
    14  H    5.007314   6.248709   2.302980   2.764050   1.811396
                   11         12         13         14
    11  O    0.000000
    12  O    4.541502   0.000000
    13  H    5.333981   0.978267   0.000000
    14  H    3.774301   0.985671   1.602650   0.000000
 Stoichiometry    C3H5N3O3
 Framework group  C1[X(C3H5N3O3)]
 Deg. of freedom    36
 Full point group                 C1      NOp   1
 Largest Abelian subgroup         C1      NOp   1
 Largest concise Abelian subgroup C1      NOp   1
                         Standard orientation:                         
 ---------------------------------------------------------------------
 Center     Atomic      Atomic             Coordinates (Angstroms)
 Number     Number       Type             X           Y           Z
 ---------------------------------------------------------------------
      1          7           0       -0.669275   -0.471776    0.050591
      2          7           0       -1.286598    0.711794   -0.176610
      3          6           0       -2.644529    0.513177   -0.173304
      4          6           0       -2.813634   -0.873079    0.074785
      5          7           0       -1.557105   -1.428139    0.201957
      6          1           0       -3.391107    1.295235   -0.329227
      7          1           0       -3.741962   -1.445078    0.160106
      8          1           0       -0.677720    1.555060   -0.302390
      9          6           0        2.598861   -0.698010   -0.052472
     10          8           0        2.658931    0.425729   -0.034901
     11          8           0        2.498169   -1.793864   -0.058127
     12          8           0        0.731055    2.386144    0.115325
     13          1           0        0.889538    3.257570    0.530663
     14          1           0        1.562666    1.857460    0.136863
 ---------------------------------------------------------------------
 Rotational constants (GHZ):           2.2493040           0.8767280           0.6345050
 Standard basis: 6-31+G(d,p) (6D, 7F)
 There are   196 symmetry adapted cartesian basis functions of A   symmetry.
 There are   196 symmetry adapted basis functions of A   symmetry.
   196 basis functions,   323 primitive gaussians,   196 cartesian basis functions
    34 alpha electrons       34 beta electrons
       nuclear repulsion energy       413.4785738475 Hartrees.
 NAtoms=   14 NActive=   14 NUniq=   14 SFac= 1.00D+00 NAtFMM=   60 NAOKFM=F Big=F
 Integral buffers will be    131072 words long.
 Raffenetti 2 integral format.
 Two-electron integral symmetry is turned on.
 One-electron integrals computed using PRISM.
 NBasis=   196 RedAO= T EigKep=  5.16D-05  NBF=   196
 NBsUse=   196 1.00D-06 EigRej= -1.00D+00 NBFU=   196
 Initial guess from the checkpoint file:  "/scratch/gongke2021/1-H-Tz-RC/Gau-11960.chk"
 B after Tr=    -0.000000    0.000000   -0.000000
         Rot=    0.999397    0.003615   -0.003730    0.034325 Ang=   3.98 deg.
 ExpMin= 4.38D-02 ExpMax= 5.48D+03 ExpMxC= 8.25D+02 IAcc=2 IRadAn=         4 AccDes= 0.00D+00
 Harris functional with IExCor= 1009 and IRadAn=       4 diagonalized for initial guess.
 HarFok:  IExCor= 1009 AccDes= 0.00D+00 IRadAn=         4 IDoV= 1 UseB2=F ITyADJ=14
 ICtDFT=  3500011 ScaDFX=  1.000000  1.000000  1.000000  1.000000
 FoFCou: FMM=F IPFlag=           0 FMFlag=      100000 FMFlg1=           0
         NFxFlg=           0 DoJE=T BraDBF=F KetDBF=T FulRan=T
         wScrn=  0.000000 ICntrl=       500 IOpCl=  0 I1Cent=   200000004 NGrid=           0
         NMat0=    1 NMatS0=      1 NMatT0=    0 NMatD0=    1 NMtDS0=    0 NMtDT0=    0
 Petite list used in FoFCou.
 Requested convergence on RMS density matrix=1.00D-08 within 128 cycles.
 Requested convergence on MAX density matrix=1.00D-06.
 Requested convergence on             energy=1.00D-06.
 No special actions if energy rises.
 SCF Done:  E(RM062X) =  -507.051169069     A.U. after   15 cycles
            NFock= 15  Conv=0.31D-08     -V/T= 2.0080
 Calling FoFJK, ICntrl=      2127 FMM=F ISym2X=0 I1Cent= 0 IOpClX= 0 NMat=1 NMatS=1 NMatT=0.
 ***** Axes restored to original set *****
 -------------------------------------------------------------------
 Center     Atomic                   Forces (Hartrees/Bohr)
 Number     Number              X              Y              Z
 -------------------------------------------------------------------
      1        7           0.002261146    0.000328763   -0.000040225
      2        7           0.017236296    0.032576957   -0.004618175
      3        6          -0.007791681    0.019603025   -0.000984391
      4        6          -0.011625824   -0.033094367    0.000699839
      5        7           0.013555507   -0.027265409    0.001749856
      6        1          -0.010226298    0.002592008   -0.000564009
      7        1          -0.009366183   -0.006416854   -0.000140878
      8        1           0.007755720    0.016908824    0.003677858
      9        6           0.015423811   -0.035997931    0.010760232
     10        8           0.007674897   -0.109496612    0.024242301
     11        8          -0.024568931    0.149469912   -0.036027523
     12        8          -0.016186408   -0.015648791    0.007527421
     13        1          -0.002112675    0.014016893   -0.010454746
     14        1           0.017970623   -0.007576418    0.004172441
 -------------------------------------------------------------------
 Cartesian Forces:  Max     0.149469912 RMS     0.032510847

 GradGradGradGradGradGradGradGradGradGradGradGradGradGradGradGradGradGrad
 Berny optimization.
 Using GEDIIS/GDIIS optimizer.
 FormGI is forming the generalized inverse of G from B-inverse, IUseBI=4.
 Internal  Forces:  Max     0.155529592 RMS     0.028735488
 Search for a local minimum.
 Step number   4 out of a maximum of   63
 All quantities printed in internal units (Hartrees-Bohrs-Radians)
 Mixed Optimization -- RFO/linear search
 Update second derivatives using D2CorX and points    3    4
 DE= -3.25D-02 DEPred=-7.64D-02 R= 4.25D-01
 Trust test= 4.25D-01 RLast= 5.31D-01 DXMaxT set to 5.05D-01
 ITU=  0  0  1  0
 Use linear search instead of GDIIS.
     Eigenvalues ---    0.00224   0.00230   0.00230   0.00230   0.00230
     Eigenvalues ---    0.00237   0.00242   0.00249   0.00265   0.00327
     Eigenvalues ---    0.00339   0.00370   0.00461   0.06390   0.08359
     Eigenvalues ---    0.15682   0.15760   0.15999   0.16000   0.16005
     Eigenvalues ---    0.16007   0.22332   0.23901   0.24973   0.28231
     Eigenvalues ---    0.29619   0.29764   0.30040   0.31346   0.31465
     Eigenvalues ---    0.32197   0.32595   0.32599   0.32929   0.33262
     Eigenvalues ---    1.09326
 RFO step:  Lambda=-4.79995745D-02 EMin= 2.24277249D-03
 Quartic linear search produced a step of -0.28050.
 Maximum step size (   0.505) exceeded in Quadratic search.
    -- Step size scaled by   0.843
 Iteration  1 RMS(Cart)=  0.28372538 RMS(Int)=  0.02239367
 Iteration  2 RMS(Cart)=  0.16148707 RMS(Int)=  0.00429753
 Iteration  3 RMS(Cart)=  0.00722872 RMS(Int)=  0.00070443
 Iteration  4 RMS(Cart)=  0.00001183 RMS(Int)=  0.00070442
 Iteration  5 RMS(Cart)=  0.00000005 RMS(Int)=  0.00070442
 Variable       Old X    -DE/DX   Delta X   Delta X   Delta X     New X
                                 (Linear)    (Quad)   (Total)
    R1        2.55885  -0.01808   0.02099  -0.08134  -0.06040   2.49845
    R2        2.48252  -0.02392   0.02711  -0.10559  -0.07855   2.40397
    R3        2.59343  -0.02691   0.00826  -0.07949  -0.07117   2.52225
    R4        1.97984  -0.01291   0.01078  -0.04588  -0.03513   1.94472
    R5        2.68038  -0.04096  -0.00886  -0.07768  -0.08649   2.59390
    R6        2.06431  -0.00993   0.00430  -0.03199  -0.02769   2.03662
    R7        2.60695  -0.01760   0.01506  -0.07202  -0.05698   2.54997
    R8        2.06686  -0.01118   0.00301  -0.03201  -0.02900   2.03786
    R9        3.19013   0.00449  -0.02520   0.07818   0.05301   3.24314
   R10        2.12685   0.11629   0.06915   0.00657   0.07572   2.20257
   R11        2.07962   0.15553   0.07646   0.05198   0.12844   2.20806
   R12        3.42304   0.00378  -0.01702   0.06298   0.04591   3.46895
   R13        1.84866  -0.01745   0.01795  -0.07599  -0.05804   1.79062
   R14        1.86265  -0.01703   0.01835  -0.07443  -0.05597   1.80668
    A1        1.92575  -0.01774  -0.00920  -0.02692  -0.03622   1.88953
    A2        1.90095   0.01530   0.00289   0.03459   0.03754   1.93849
    A3        2.04735  -0.01115   0.00180  -0.03543  -0.03369   2.01366
    A4        2.33480  -0.00415  -0.00466   0.00068  -0.00400   2.33080
    A5        1.83365  -0.00751   0.00300  -0.02775  -0.02463   1.80902
    A6        2.18009   0.00002   0.00527  -0.01333  -0.00812   2.17197
    A7        2.26944   0.00749  -0.00827   0.04106   0.03273   2.30217
    A8        1.87629   0.00486   0.00800  -0.00104   0.00699   1.88329
    A9        2.24716  -0.00037  -0.01252   0.02525   0.01270   2.25987
   A10        2.15973  -0.00449   0.00453  -0.02420  -0.01970   2.14003
   A11        1.88813   0.00509  -0.00469   0.02111   0.01631   1.90444
   A12        2.58969  -0.00291  -0.00359   0.00281  -0.00055   2.58915
   A13        2.43159  -0.00324   0.00126  -0.01553  -0.01426   2.41732
   A14        2.31691   0.00733  -0.00488   0.02999   0.02591   2.34282
   A15        2.03245  -0.01036   0.00955  -0.05043  -0.04093   1.99151
   A16        1.90904   0.00233  -0.00322   0.00692   0.00267   1.91171
   A17        3.10306   0.01501   0.01491   0.12640   0.14131   3.24437
   A18        2.78826  -0.01005   0.07587  -0.39673  -0.31999   2.46826
   A19        3.15086  -0.00223  -0.00321  -0.01460  -0.01781   3.13305
   A20        3.25048  -0.00024   0.02058  -0.07601  -0.05427   3.19621
    D1       -0.00065  -0.00005  -0.00017  -0.00073  -0.00090  -0.00155
    D2        3.12920  -0.00006   0.00324  -0.01245  -0.00917   3.12003
    D3       -0.00139   0.00009   0.00061  -0.00099  -0.00037  -0.00175
    D4        0.00232  -0.00000  -0.00032   0.00203   0.00171   0.00404
    D5        3.13910   0.00006   0.00078  -0.00184  -0.00102   3.13808
    D6       -3.12482   0.00003  -0.00451   0.01673   0.01221  -3.11261
    D7        0.01196   0.00010  -0.00341   0.01286   0.00948   0.02144
    D8       -0.60848   0.00051  -0.00971   0.04279   0.03274  -0.57574
    D9        2.51773   0.00064  -0.00525   0.02761   0.02236   2.54009
   D10       -0.00312   0.00007   0.00068  -0.00253  -0.00183  -0.00495
   D11        3.13732   0.00003   0.00090  -0.00352  -0.00262   3.13470
   D12       -3.13955   0.00003  -0.00051   0.00184   0.00137  -3.13818
   D13        0.00089  -0.00001  -0.00030   0.00085   0.00058   0.00147
   D14        0.00282  -0.00007  -0.00080   0.00227   0.00148   0.00430
   D15       -3.13769  -0.00003  -0.00100   0.00316   0.00218  -3.13551
   D16       -2.06360  -0.00068   0.01172  -0.05449  -0.04515  -2.10875
   D17        0.81107  -0.00460   0.01976  -0.12741  -0.10575   0.70531
   D18       -0.29837   0.00227  -0.01889   0.10072   0.08438  -0.21399
   D19        2.62211  -0.00210   0.01258  -0.07627  -0.06624   2.55587
         Item               Value     Threshold  Converged?
 Maximum Force            0.155530     0.000450     NO 
 RMS     Force            0.028735     0.000300     NO 
 Maximum Displacement     1.808927     0.001800     NO 
 RMS     Displacement     0.431648     0.001200     NO 
 Predicted change in Energy=-3.224553D-02
 GradGradGradGradGradGradGradGradGradGradGradGradGradGradGradGradGradGrad

                          Input orientation:                          
 ---------------------------------------------------------------------
 Center     Atomic      Atomic             Coordinates (Angstroms)
 Number     Number       Type             X           Y           Z
 ---------------------------------------------------------------------
      1          7           0       -3.699283    0.207565   -0.152706
      2          7           0       -2.736210   -0.690397   -0.033714
      3          6           0       -1.536832   -0.105815    0.001379
      4          6           0       -1.825605    1.232270   -0.099880
      5          7           0       -3.165448    1.361503   -0.194561
      6          1           0       -0.603127   -0.635450    0.097232
      7          1           0       -1.158016    2.079145   -0.107312
      8          1           0       -3.050464   -1.668232    0.030544
      9          6           0       -5.909954    0.109085   -0.325521
     10          8           0       -6.101216   -1.012295   -0.071683
     11          8           0       -5.836172    1.241761   -0.602799
     12          8           0       -4.238407   -2.789344    0.557067
     13          1           0       -4.229219   -3.538464    1.137236
     14          1           0       -5.138403   -2.490992    0.434479
 ---------------------------------------------------------------------
                    Distance matrix (angstroms):
                    1          2          3          4          5
     1  N    0.000000
     2  N    1.322121   0.000000
     3  C    2.190467   1.334720   0.000000
     4  C    2.136231   2.128434   1.372631   0.000000
     5  N    1.272126   2.102478   2.200865   1.349387   0.000000
     6  H    3.218591   2.137805   1.077732   2.240911   3.261664
     7  H    3.156407   3.188491   2.220217   1.078390   2.133636
     8  H    1.993280   1.029100   2.175565   3.151223   3.040262
     9  C    2.219601   3.285875   4.390586   4.241977   3.019605
    10  O    2.695164   3.380581   4.654101   4.829050   3.777400
    11  O    2.416286   3.696871   4.545912   4.041988   2.704397
    12  O    3.126644   2.647867   3.848199   4.735671   4.352668
    13  H    3.997188   3.422233   4.508015   5.483404   5.187964
    14  H    3.114172   3.038401   4.341424   5.012271   4.373781
                    6          7          8          9         10
     6  H    0.000000
     7  H    2.778267   0.000000
     8  H    2.657169   4.200381   0.000000
     9  C    5.375451   5.148754   3.385605   0.000000
    10  O    5.513577   5.830394   3.122146   1.165550   0.000000
    11  O    5.603456   4.778269   4.077910   1.168452   2.330901
    12  O    4.250409   5.799345   1.716196   3.460336   2.650149
    13  H    4.760004   6.522171   2.472245   4.274242   3.368589
    14  H    4.911772   6.084667   2.280260   2.816610   1.835690
                   11         12         13         14
    11  O    0.000000
    12  O    4.488647   0.000000
    13  H    5.334845   0.947554   0.000000
    14  H    3.936531   0.956051   1.554889   0.000000
 Stoichiometry    C3H5N3O3
 Framework group  C1[X(C3H5N3O3)]
 Deg. of freedom    36
 Full point group                 C1      NOp   1
 Largest Abelian subgroup         C1      NOp   1
 Largest concise Abelian subgroup C1      NOp   1
                         Standard orientation:                         
 ---------------------------------------------------------------------
 Center     Atomic      Atomic             Coordinates (Angstroms)
 Number     Number       Type             X           Y           Z
 ---------------------------------------------------------------------
      1          7           0       -0.354348   -0.300698   -0.013982
      2          7           0       -0.907664    0.890006   -0.169131
      3          6           0       -2.238554    0.812770   -0.104004
[...]
 ! A11   A(1,5,4)              108.6678         -DE/DX =    0.0                 !
 ! A12   A(2,8,12)             148.0462         -DE/DX =    0.0                 !
 ! A13   A(9,10,14)            133.3106         -DE/DX =    0.0                 !
 ! A14   A(8,12,13)            132.6549         -DE/DX =    0.0                 !
 ! A15   A(8,12,14)            102.9355         -DE/DX =    0.0                 !
 ! A16   A(13,12,14)           106.8074         -DE/DX =    0.0                 !
 ! A17   L(10,9,11,1,-1)       183.9123         -DE/DX =    0.0                 !
 ! A18   L(10,14,12,1,-1)      167.1043         -DE/DX =    0.0                 !
 ! A19   L(10,9,11,1,-2)       180.0175         -DE/DX =    0.0                 !
 ! A20   L(10,14,12,1,-2)      176.8326         -DE/DX =    0.0                 !
 ! D1    D(5,1,2,3)             -0.0268         -DE/DX =    0.0                 !
 ! D2    D(5,1,2,8)           -179.8545         -DE/DX =    0.0                 !
 ! D3    D(2,1,5,4)             -0.0038         -DE/DX =    0.0                 !
 ! D4    D(1,2,3,4)              0.0446         -DE/DX =    0.0                 !
 ! D5    D(1,2,3,6)           -179.8823         -DE/DX =    0.0                 !
 ! D6    D(8,2,3,4)            179.841          -DE/DX =    0.0                 !
 ! D7    D(8,2,3,6)             -0.0858         -DE/DX =    0.0                 !
 ! D8    D(1,2,8,12)             5.8794         -DE/DX =    0.0                 !
 ! D9    D(3,2,8,12)          -173.9065         -DE/DX =    0.0                 !
 ! D10   D(2,3,4,5)             -0.0457         -DE/DX =    0.0                 !
 ! D11   D(2,3,4,7)            179.9946         -DE/DX =    0.0                 !
 ! D12   D(6,3,4,5)            179.8701         -DE/DX =    0.0                 !
 ! D13   D(6,3,4,7)             -0.0896         -DE/DX =    0.0                 !
 ! D14   D(3,4,5,1)              0.0319         -DE/DX =    0.0                 !
 ! D15   D(7,4,5,1)            179.9955         -DE/DX =    0.0                 !
 ! D16   D(2,8,12,13)         -129.475          -DE/DX =    0.0                 !
 ! D17   D(2,8,12,14)           -1.5218         -DE/DX =    0.0                 !
 ! D18   D(9,10,12,8)           -1.1452         -DE/DX =    0.0                 !
 ! D19   D(9,10,12,13)         138.6969         -DE/DX =    0.0                 !
 --------------------------------------------------------------------------------
 GradGradGradGradGradGradGradGradGradGradGradGradGradGradGradGradGradGrad


 ----------------------------------------------------------------------

 Electric dipole moment (input orientation):
 (Debye = 10**-18 statcoulomb cm , SI units = C m)
                  (au)            (Debye)         (10**-30 SI)
   Tot        0.158841D+01      0.403734D+01      0.134671D+02
   x          0.576452D+00      0.146520D+01      0.488737D+01
   y         -0.133235D+01     -0.338649D+01     -0.112961D+02
   z          0.644674D+00      0.163860D+01      0.546577D+01

 Dipole polarizability, Alpha (input orientation).
 (esu units = cm**3 , SI units = C**2 m**2 J**-1)
 Alpha(0;0):
               (au)            (10**-24 esu)      (10**-40 SI)
   iso        0.649162D+02      0.961959D+01      0.107032D+02
   aniso      0.357698D+02      0.530054D+01      0.589765D+01
   xx         0.714245D+02      0.105840D+02      0.117763D+02
   yx         0.222334D+01      0.329464D+00      0.366578D+00
   yy         0.798266D+02      0.118291D+02      0.131616D+02
   zx         0.115714D+01      0.171471D+00      0.190787D+00
   zy        -0.764814D+01     -0.113334D+01     -0.126101D+01
   zz         0.434976D+02      0.644567D+01      0.717178D+01

 ----------------------------------------------------------------------

 Dipole orientation:
     7         -5.98216947         -1.39087561         -2.80890585
     7         -4.81198897         -1.47066764         -0.57972179
     6         -2.45458911         -0.52240806         -0.74724020
     6         -2.23631699          0.15940956         -3.24914113
     7         -4.43867551         -0.40667982         -4.43991077
     1         -1.18697586         -0.41643096          0.84349191
     1         -0.66776115          1.00071823         -4.24076371
     1         -5.78758681         -2.20788600          0.91478184
     6        -10.51321868         -2.93211515         -4.78676749
     8        -11.23198475         -3.76099423         -2.86749093
     8         -9.93194866         -2.15453636         -6.74547512
     8         -8.70306842         -3.82879014          2.07745397
     1         -9.85311576         -3.48208958          3.44107156
     1         -9.71428083         -3.99261606          0.56091274

 Electric dipole moment (dipole orientation):
 (Debye = 10**-18 statcoulomb cm , SI units = C m)
                  (au)            (Debye)         (10**-30 SI)
   Tot        0.158841D+01      0.403734D+01      0.134671D+02
   x          0.000000D+00      0.000000D+00      0.000000D+00
   y          0.000000D+00      0.000000D+00      0.000000D+00
   z          0.158841D+01      0.403734D+01      0.134671D+02

 Dipole polarizability, Alpha (dipole orientation).
 (esu units = cm**3 , SI units = C**2 m**2 J**-1)
 Alpha(0;0):
               (au)            (10**-24 esu)      (10**-40 SI)
   iso        0.649162D+02      0.961959D+01      0.107032D+02
   aniso      0.357698D+02      0.530054D+01      0.589765D+01
   xx         0.694537D+02      0.102920D+02      0.114514D+02
   yx         0.113070D+02      0.167553D+01      0.186427D+01
   yy         0.483645D+02      0.716688D+01      0.797423D+01
   zx        -0.165514D+01     -0.245266D+00     -0.272896D+00
   zy        -0.874424D+01     -0.129576D+01     -0.144173D+01
   zz         0.769304D+02      0.113999D+02      0.126841D+02

 ----------------------------------------------------------------------
 1\1\GINC-NODE4\Freq\RM062X\6-31+G(d,p)\C3H5N3O3\GONGKE2021\25-May-2023
 \0\\#N Geom=AllCheck Guess=TCheck SCRF=Check GenChk RM062X/6-31+G(d,p)
  Freq\\h2o-opt\\0,1\N,-3.5678665922,0.1936704542,-0.0718010627\N,-2.58
 76855956,-0.6828090853,0.146821907\C,-1.3805886855,-0.0876694611,0.079
 0222452\C,-1.6782570718,1.22809507,-0.1975961329\N,-3.0280576755,1.354
 6488278,-0.2816599397\H,-0.4550040793,-0.6204879994,0.2242693981\H,-1.
 0200108713,2.070370789,-0.3383697383\H,-2.8530453687,-1.6528406993,0.3
 27928727\C,-6.2974037436,0.1449884364,-0.3105383164\O,-6.3685137253,-1
 .0083891769,-0.1282105881\O,-6.30568779,1.286552773,-0.4977000566\O,-4
 .2137586076,-2.9314561867,0.4180695197\H,-4.4637239268,-3.5768495833,1
 .0856865903\H,-5.0087531668,-2.4174821584,0.2138388372\\Version=ES64L-
 G16RevA.03\State=1-A\HF=-507.076034\RMSD=2.249e-09\RMSF=1.216e-05\Zero
 Point=0.0979996\Thermal=0.1088143\Dipole=0.5764522,-1.3323475,0.644673
 7\DipoleDeriv=-0.5143992,-0.1805988,0.0171829,-0.2353009,0.231829,-0.0
 844171,0.0256965,-0.0776807,-0.1215423,0.045672,-0.0972373,0.0245644,-
 0.1479614,-0.7865544,0.1282254,0.0369784,0.1315163,-0.1511686,-0.05433
 51,0.163182,-0.0350122,-0.0723566,0.2308906,-0.0655948,0.0141215,-0.05
 45074,-0.0689943,-0.0718703,0.0744279,-0.0141692,0.1428692,0.0932879,-
 0.034768,-0.0263303,-0.0381203,-0.1059094,0.023092,-0.0694361,0.024844
 1,0.1519386,-0.3886523,0.0394687,-0.0224229,0.0254938,-0.2344389,0.065
 019,0.0241396,-0.0108117,0.0392722,0.0897771,0.0234842,-0.0130696,0.02
 25933,0.1926522,0.0505226,-0.0377124,0.0020334,-0.0572192,0.0512954,0.
 0223457,0.0061705,0.023214,0.1706217,0.3660994,0.2486849,-0.0466059,0.
 2568744,0.6392289,-0.0574528,-0.0459073,-0.0521504,0.3003574,0.9807366
 ,0.0838308,0.0179656,-0.0130026,2.4709653,-0.3215912,0.0416497,-0.3054
 732,0.6059441,-0.5087589,-0.022001,-0.0147645,-0.0233039,-1.4165353,0.
 1901451,-0.0143057,0.1834749,-0.3337614,-0.3787509,0.0465685,-0.016390
 2,0.0978409,-1.1956494,0.1650698,-0.0268084,0.1557897,-0.2845266,-0.64
 47953,-0.047462,-0.0668255,-0.0783892,-0.9053757,-0.010588,-0.0730318,
 -0.024387,-0.598539,0.2698617,-0.0574888,0.053277,-0.0136008,0.35707,0
 .0368619,0.0396034,0.0397449,0.3064733,0.3719062,-0.1288973,0.0647119,
 -0.0476607,0.5284228,-0.0311887,0.0576562,-0.0295079,0.3228318\Polar=7
 1.4244605,2.2233353,79.8265889,1.1571416,-7.6481402,43.4975669\Quadrup
 ole=5.1891631,-2.625888,-2.5632751,2.1112575,-0.1904297,-3.2038551\PG=
 C01 [X(C3H5N3O3)]\NImag=0\\0.60378076,0.07634756,0.53896677,0.00617258
 ,-0.07983475,0.14099756,-0.23697325,0.10439442,-0.02803586,0.68371298,
 0.05299247,-0.15837265,0.01898175,0.14633847,0.94845981,-0.01748001,0.
 02091096,-0.08034311,-0.00477521,-0.16002813,0.14496599,-0.11029239,0.
 04290947,-0.01428487,-0.31163934,-0.10709518,0.01070561,0.84409628,-0.
 01895941,-0.01883251,0.00712543,-0.09036903,-0.17386984,0.01838003,-0.
 14423952,0.69791182,-0.00195089,0.00998776,0.01849982,0.00765757,0.017
 77247,-0.06432944,0.05932021,-0.12076198,0.15154852,-0.09026243,-0.102
 50287,0.01562423,0.00826676,0.00639654,-0.00161986,-0.12381421,0.02791
 179,-0.00778007,0.67057775,-0.01891086,-0.01996824,0.00780311,-0.09212
 892,-0.07624190,0.01365514,0.06823497,-0.36138558,0.06139505,0.1606316
 0,0.82764833,-0.00107728,0.00411751,0.02230506,0.01841095,0.01782785,0
 .00798712,-0.01603526,0.05979698,-0.08150589,-0.00922136,-0.13205956,0
 .16080790,-0.16137173,-0.14272203,0.02576502,-0.01996981,-0.01835595,0
 .00193230,-0.03042492,0.10750329,-0.02383353,-0.29693022,0.03217936,-0
 .01608685,0.52629350,-0.08151967,-0.32076784,0.04148652,0.03988412,-0.
 15314191,0.03789938,0.01306484,0.00038799,0.00415885,0.03798835,-0.121
 25523,0.01116803,0.01042174,0.58933179,0.01346606,0.03880260,-0.104580
 14,-0.00996188,0.03520983,0.01866575,-0.00477091,0.00832232,0.01687120
 ,-0.01728285,0.01089621,-0.07709929,0.01559745,-0.09409854,0.13895060,
 -0.00254505,-0.00280429,0.00016276,-0.01737000,0.01760994,-0.00408820,
 -0.28648748,0.13204531,-0.03721943,0.00520660,-0.00132394,0.00050469,0
 .00098742,-0.00247987,0.00026312,0.30052243,-0.00562928,-0.00384214,0.
 00194272,-0.01857888,0.01513667,-0.00463315,0.14224864,-0.13876519,0.0
 2826390,0.02037306,0.00368880,0.00003307,0.00472991,-0.00502860,0.0025
 6459,-0.14330993,0.12933772,0.00070795,0.00207004,0.00680705,0.0031017
 0,-0.00307506,-0.00335490,-0.03917384,0.02776029,-0.03486547,-0.003874
 54,-0.00085223,-0.00037945,-0.00119010,0.00226648,0.00621717,0.0402844
 7,-0.02758139,0.02906855,-0.00711873,-0.00096776,-0.00049549,-0.001283
 92,0.00519593,-0.00134623,0.01121410,0.00847862,-0.00118425,-0.1666389
 1,-0.14534255,0.02335391,-0.01318081,-0.02618471,0.00501962,-0.0003542
 8,-0.00058571,0.00019077,0.17638783,0.00355561,0.00245982,0.00133313,0
 .00123092,-0.00467705,0.00216560,-0.01686901,-0.00745179,0.00060151,-0
 .15026208,-0.25446273,0.03865205,0.00316034,0.00859806,-0.00304457,0.0
 0037447,-0.00029940,-0.00033676,0.15973037,0.25539026,-0.00137252,0.00
 113216,0.00797748,-0.00055608,0.00236663,0.00540347,0.00389494,0.00168
 567,-0.00104236,0.02437321,0.03887518,-0.03650307,-0.00090686,-0.00433
 174,-0.00639623,-0.00000647,-0.00037082,-0.00197598,-0.02558451,-0.039
 56787,0.03095618,0.01875773,0.02520063,-0.00370212,-0.09685237,-0.0942
 1991,0.01523254,0.00386129,-0.02247610,0.00483939,-0.00799292,-0.00177
 490,-0.00016494,-0.00391263,0.01197210,-0.00294679,-0.00003342,0.00056
 770,-0.00004240,0.00075757,-0.00072419,0.00011104,0.08888507,-0.006056
 72,-0.01925490,0.00151841,-0.08040579,-0.38877538,0.07026895,-0.001687
 44,0.00340775,-0.00194766,-0.00002585,0.00389285,0.00005900,0.00576200
 ,0.00428987,0.00096546,-0.00010895,-0.00027540,-0.00025162,-0.00040771
 ,0.00068387,0.00017889,0.07840584,0.39759070,0.00251549,0.00301535,-0.
 01100186,0.01227502,0.06915709,-0.03121697,0.00075849,-0.00281378,-0.0
 0558399,-0.00050540,0.00000638,0.00428317,-0.00169783,0.00131739,0.007
 70771,0.00008406,-0.00023080,-0.00150725,0.00004019,0.00017507,0.00166
 864,-0.01139175,-0.07046131,0.03984441,-0.00633958,-0.00213712,0.00050
 917,0.00067060,0.00194993,-0.00021841,0.00320410,0.00072782,-0.0000677
 2,0.00260057,-0.00096660,0.00021734,0.00011145,-0.00119128,0.00035127,
 0.00022899,0.00023665,-0.00006871,0.00033688,-0.00003600,0.00000852,0.
 00076420,0.00207383,-0.00038268,0.13827605,-0.00225029,-0.00202363,-0.
 00052570,0.00439993,-0.00411063,0.00094013,0.00268218,-0.00083515,0.00
 032954,-0.00234653,-0.00269952,0.00058507,-0.00313295,-0.00152940,-0.0
 0002159,0.00017861,-0.00006993,0.00006085,-0.00029368,0.00006290,0.000
 01292,0.00438586,0.00384246,-0.00037760,0.03756865,1.95736171,-0.00010
 284,-0.00038180,-0.00222682,-0.00057132,0.00079523,-0.00076647,-0.0001
 5645,0.00023697,0.00021432,0.00064193,0.00046679,0.00025304,0.00068827
 ,0.00005953,-0.00069119,-0.00001086,0.00007283,0.00016428,0.00008196,0
 .00000653,0.00010708,-0.00070726,-0.00040686,0.00036313,-0.00745246,-0
 .29215817,0.19744222,-0.00261173,-0.00276957,-0.00026424,0.00024153,-0
 .00087929,0.00016994,-0.00073902,-0.00033495,0.00006896,-0.00117285,-0
 .00020504,0.00004310,-0.00181957,-0.00017802,-0.00010965,-0.00005524,-
 0.00006338,0.00002533,-0.00020473,0.00002740,0.00000460,0.00040275,-0.
 00005012,0.00005558,-0.07284619,-0.04585184,0.00773297,0.05243281,0.00
 134948,-0.00037432,0.00038742,-0.00188686,0.00215141,-0.00051687,-0.00
 196384,0.00012860,-0.00011558,0.00050479,0.00139563,-0.00029800,0.0002
 3345,0.00079996,-0.00008854,-0.00012076,-0.00001002,-0.00001631,0.0000
 4873,-0.00000187,-0.00001379,-0.00276561,-0.00294470,0.00034452,-0.040
 61688,-0.92633825,0.13601494,0.04602311,1.02701747,-0.00049183,0.00006
 150,0.00128736,0.00026646,-0.00041864,0.00024163,0.00026765,-0.0000492
 9,-0.00005618,-0.00017099,-0.00030803,-0.00010518,-0.00030342,-0.00010
 842,0.00037264,0.00001416,-0.00001628,-0.00006012,-0.00002502,-0.00001
 290,-0.00006476,0.00054709,0.00048154,-0.00036206,0.00684790,0.1353781
 7,-0.09524031,-0.00597341,-0.15799953,0.06237784,-0.00292918,0.0038195
 0,-0.00105376,-0.00131217,-0.00091847,0.00003925,-0.00117592,0.0001792
 4,-0.00007954,-0.00039340,0.00051563,-0.00012272,0.00041421,0.00047701
 ,-0.00010649,-0.00013405,-0.00007569,0.00002859,-0.00007518,-0.0000131
 5,0.00000261,-0.00034890,-0.00072961,0.00012314,-0.06793387,0.00293575
 ,0.00008350,0.03303109,-0.00597655,0.00066868,0.04091658,0.00087455,-0
 .00183249,0.00063871,-0.00106007,0.00254244,-0.00045385,-0.00092639,0.
 00023378,-0.00010129,0.00118450,0.00114494,-0.00021869,0.00113544,0.00
 078101,-0.00003738,-0.00004385,0.00008257,-0.00004200,0.00015089,-0.00
 003143,-0.00000176,-0.00200065,-0.00177404,0.00019359,0.00340191,-1.01
 414202,0.15383498,-0.00022025,-0.10174792,0.02258527,-0.00080690,1.110
 62275,-0.00044665,0.00084570,0.00040833,0.00000964,-0.00045301,0.00052
 762,0.00003734,-0.00004339,-0.00008199,-0.00025799,-0.00014856,0.00002
 788,-0.00015302,-0.00005596,0.00020893,-0.00000448,-0.00004330,-0.0000
 9079,-0.00003335,-0.00000244,-0.00003812,0.00030720,0.00020882,-0.0000
 9789,0.00001946,0.15384253,-0.09921141,-0.00028022,0.02192708,0.032403
 93,0.00053004,-0.17549965,0.06554832,-0.00178576,0.00181809,-0.0003601
 8,-0.00542050,-0.00749208,0.00191859,0.00276601,-0.00009689,0.00027128
 ,0.00050715,-0.00121823,0.00024194,-0.00057091,-0.00265060,0.00042968,
 0.00012371,0.00013845,-0.00003035,0.00012785,-0.00017391,0.00001167,-0
 .00268689,0.00161649,-0.00346448,-0.00275138,-0.00742472,0.00094188,-0
 .00008790,0.00715946,-0.00171380,0.00064655,0.00378181,-0.00050867,0.4
 6210553,-0.00138558,0.00273701,-0.00050428,-0.00967569,-0.00780134,0.0
 0120580,0.00262858,-0.00120960,0.00046314,-0.00071920,-0.00151267,0.00
 023248,-0.00126382,-0.00144809,0.00038380,-0.00010032,-0.00005434,-0.0
 0002632,0.00004485,-0.00024763,0.00000369,0.00381229,-0.00468969,-0.00
 019185,-0.00024156,0.00513763,-0.00105362,0.00315707,-0.00482598,0.001
 51857,0.00010970,-0.00232006,0.00038933,-0.11984536,0.42746749,-0.0000
 5744,-0.00033764,0.00050561,0.00303656,0.00271856,0.00231636,-0.000263
 37,0.00066947,0.00035531,0.00031890,0.00015688,-0.00017921,0.00013535,
 -0.00000356,0.00018228,0.00006453,0.00000381,-0.00012409,0.00000620,0.
 00002380,-0.00017898,-0.00281065,-0.00072574,-0.00573988,-0.00046744,-
 0.00246972,-0.00015019,-0.00106635,0.00254808,0.00121567,0.00012806,0.
 00119132,-0.00022338,-0.02563959,-0.32734078,0.31137454,-0.00030145,0.
 00051439,-0.00021994,-0.00169932,-0.00171557,-0.00032835,0.00047403,-0
 .00029703,-0.00003406,-0.00006263,-0.00027414,0.00006255,-0.00017812,-
 0.00026227,0.00012754,-0.00005560,-0.00003158,0.00003654,0.00002129,-0
 .00003935,0.00003318,0.00268662,0.00174981,0.00187448,-0.00005100,-0.0
 0005891,0.00005427,-0.00106948,0.00061758,0.00013882,0.00007061,-0.000
 00088,-0.00003999,-0.08177032,-0.10393774,0.11616027,0.07181435,0.0002
 3105,-0.00005560,-0.00012405,-0.00082120,0.00030305,-0.00016913,0.0000
 0532,-0.00022228,-0.00000172,-0.00005769,-0.00000892,0.00002006,0.0000
 4469,0.00006459,-0.00006144,-0.00001993,0.00001514,0.00002656,0.000008
 58,-0.00000040,0.00002207,0.00015880,-0.00103709,0.00095151,0.00000745
 ,-0.00119653,0.00031080,0.00019447,0.00054854,-0.00038367,-0.00000972,
 0.00062692,-0.00009533,-0.06363233,-0.25081543,0.24718426,0.07674413,0
 .26579791,-0.00003073,0.00011044,-0.00006617,-0.00122956,-0.00135731,0
 .00012340,0.00011404,-0.00022521,0.00006348,-0.00010955,-0.00010695,0.
 00001604,-0.00007545,-0.00008049,-0.00002710,-0.00001898,0.00000845,0.
 00004738,-0.00000126,-0.00003066,0.00001240,0.00199132,0.00150655,0.00
 011948,0.00007716,0.00083483,0.00001431,0.00013171,-0.00057033,-0.0000
 1942,-0.00002205,-0.00049441,0.00004914,0.08036291,0.26123076,-0.26455
 396,-0.08992136,-0.26513410,0.27080338,-0.00000720,-0.00110042,0.00018
 269,-0.00037120,0.00019318,-0.00014198,-0.00104254,-0.00007314,-0.0000
 0790,0.00010872,0.00058363,-0.00012606,0.00055212,0.00065826,-0.000076
 18,-0.00003403,-0.00001996,0.00000461,0.00001104,0.00003858,-0.0000133
 2,-0.00428810,-0.00013578,-0.00028432,0.00372918,0.00920795,-0.0012235
 9,-0.00550148,-0.00260610,-0.00007229,-0.00077636,-0.00547011,0.000820
 69,-0.37120315,0.22741677,-0.08954503,0.01012103,-0.01285362,0.0087317
 9,0.36870197,-0.00063891,0.00116071,-0.00022842,-0.00132142,-0.0016026
 8,0.00037513,0.00100737,0.00050200,-0.00004398,0.00092361,-0.00023576,
 0.00008416,0.00030453,-0.00108219,0.00020725,0.00010351,0.00008411,-0.
 00000253,0.00012416,-0.00002260,0.00000876,-0.00054186,0.00504371,-0.0
 0108556,-0.00077679,-0.01345964,0.00220186,0.00115041,0.00420144,-0.00
 072830,0.00049327,0.00581355,-0.00087183,0.18801982,-0.16041731,0.0763
 8127,0.02699155,-0.01401992,0.00430843,-0.21583926,0.17403458,0.000148
 12,-0.00049983,-0.00057018,0.00037201,0.00050276,-0.00022043,-0.000413
 58,-0.00008351,-0.00008732,-0.00013565,0.00022058,0.00009188,0.0001286
 8,0.00032254,-0.00038234,-0.00002936,-0.00001365,0.00005361,-0.0000225
 6,0.00003751,0.00007426,-0.00126267,-0.00139443,0.00152337,0.00062660,
 0.00356875,-0.00027200,-0.00053832,-0.00160309,-0.00199103,-0.00021930
 ,-0.00159484,0.00056942,-0.05246091,0.06368927,-0.04480008,-0.02794394
 ,0.01745419,-0.00658234,0.08175089,-0.08060623,0.05259319\\-0.00001256
 ,-0.00001060,0.00000331,0.00001165,-0.00001351,-0.00000218,-0.00000771
 ,-0.00001616,0.00000515,0.00000086,0.00000636,-0.00000030,0.00000224,0
 .00002129,-0.00000342,0.00000637,0.00000991,-0.00000145,0.00000614,-0.
 00000643,-0.00000014,0.00000717,0.00001097,-0.00000551,0.00000654,-0.0
 0002147,-0.00000142,-0.00001092,-0.00001775,0.00000809,0.00000369,0.00
 003606,-0.00000390,0.00002857,0.00000202,0.00000319,-0.00002174,-0.000
 01209,-0.00000066,-0.00002031,0.00001138,-0.00000076\\\@


 GOORD'S AXIOM:  A MEETING IS AN EVENT AT WHICH
 THE MINUTES ARE KEPT AND THE HOURS ARE LOST.
 Job cpu time:       0 days  0 hours 18 minutes 57.5 seconds.
 Elapsed time:       0 days  0 hours  0 minutes 48.0 seconds.
 File lengths (MBytes):  RWF=     66 Int=      0 D2E=      0 Chk=      4 Scr=      1
 Normal termination of Gaussian 16 at Thu May 25 04:16:48 2023.
