 Entering Gaussian System, Link 0=/opt/soft/g16b/g16/g16
 Initial command:
 /opt/soft/g16b/g16/l1.exe "/scratch/gongke2021/1-H-Tz-1-eletron/Gau-27585.inp" -scrdir="/scratch/gongke2021/1-H-Tz-1-eletron/"
 Entering Link 1 = /opt/soft/g16b/g16/l1.exe PID=     27586.
  
 Copyright (c) 1988,1990,1992,1993,1995,1998,2003,2009,2016,
            Gaussian, Inc.  All Rights Reserved.
  
 This is part of the Gaussian(R) 16 program.  It is based on
 the Gaussian(R) 09 system (copyright 2009, Gaussian, Inc.),
 the Gaussian(R) 03 system (copyright 2003, Gaussian, Inc.),
 the Gaussian(R) 98 system (copyright 1998, Gaussian, Inc.),
 the Gaussian(R) 94 system (copyright 1995, Gaussian, Inc.),
 the Gaussian 92(TM) system (copyright 1992, Gaussian, Inc.),
 the Gaussian 90(TM) system (copyright 1990, Gaussian, Inc.),
 the Gaussian 88(TM) system (copyright 1988, Gaussian, Inc.),
 the Gaussian 86(TM) system (copyright 1986, Carnegie Mellon
 University), and the Gaussian 82(TM) system (copyright 1983,
 Carnegie Mellon University). Gaussian is a federally registered
 trademark of Gaussian, Inc.
  
 This software contains proprietary and confidential information,
 including trade secrets, belonging to Gaussian, Inc.
  
 This software is provided under written license and may be
 used, copied, transmitted, or stored only in accord with that
 written license.
  
 The following legend is applicable only to US Government
 contracts under FAR:
  
                    RESTRICTED RIGHTS LEGEND
  
 Use, reproduction and disclosure by the US Government is
 subject to restrictions as set forth in subparagraphs (a)
 and (c) of the Commercial Computer Software - Restricted
 Rights clause in FAR 52.227-19.
  
 Gaussian, Inc.
 340 Quinnipiac St., Bldg. 40, Wallingford CT 06492
  
  
 ---------------------------------------------------------------
 Warning -- This program may not be used in any manner that
 competes with the business of Gaussian, Inc. or will provide
 assistance to any competitor of Gaussian, Inc.  The licensee
 of this program is prohibited from giving any competitor of
 Gaussian, Inc. access to this program.  By using this program,
 the user acknowledges that Gaussian, Inc. is engaged in the
 business of creating and licensing software in the field of
 computational chemistry and represents and warrants to the
 licensee that it is not a competitor of Gaussian, Inc. and that
 it will not use this program in any manner prohibited above.
 ---------------------------------------------------------------
  

 Cite this work as:
 Gaussian 16, Revision A.03,
 M. J. Frisch, G. W. Trucks, H. B. Schlegel, G. E. Scuseria, 
 M. A. Robb, J. R. Cheeseman, G. Scalmani, V. Barone, 
 G. A. Petersson, H. Nakatsuji, X. Li, M. Caricato, A. V. Marenich, 
 J. Bloino, B. G. Janesko, R. Gomperts, B. Mennucci, H. P. Hratchian, 
 J. V. Ortiz, A. F. Izmaylov, J. L. Sonnenberg, D. Williams-Young, 
 F. Ding, F. Lipparini, F. Egidi, J. Goings, B. Peng, A. Petrone, 
 T. Henderson, D. Ranasinghe, V. G. Zakrzewski, J. Gao, N. Rega, 
 G. Zheng, W. Liang, M. Hada, M. Ehara, K. Toyota, R. Fukuda, 
 J. Hasegawa, M. Ishida, T. Nakajima, Y. Honda, O. Kitao, H. Nakai, 
 T. Vreven, K. Throssell, J. A. Montgomery, Jr., J. E. Peralta, 
 F. Ogliaro, M. J. Bearpark, J. J. Heyd, E. N. Brothers, K. N. Kudin, 
 V. N. Staroverov, T. A. Keith, R. Kobayashi, J. Normand, 
 K. Raghavachari, A. P. Rendell, J. C. Burant, S. S. Iyengar, 
 J. Tomasi, M. Cossi, J. M. Millam, M. Klene, C. Adamo, R. Cammi, 
 J. W. Ochterski, R. L. Martin, K. Morokuma, O. Farkas, 
 J. B. Foresman, and D. J. Fox, Gaussian, Inc., Wallingford CT, 2016.
 
 ******************************************
 Gaussian 16:  ES64L-G16RevA.03 25-Dec-2016
                 6-May-2023 
 ******************************************
 %mem=10GB
 %nprocshared=20
 Will use up to   20 processors via shared memory.
 ----------------------------
 # opt freq 6-31+g(d,p) m062x
 ----------------------------
 1/18=20,19=15,26=3,38=1/1,3;
 2/9=110,12=2,17=6,18=5,40=1/2;
 3/5=1,6=6,7=111,11=2,25=1,30=1,71=1,74=-55/1,2,3;
 4//1;
 5/5=2,38=5/2;
 6/7=2,8=2,9=2,10=2,28=1/1;
 7//1,2,3,16;
 1/18=20,19=15,26=3/3(2);
 2/9=110/2;
 99//99;
 2/9=110/2;
 3/5=1,6=6,7=111,11=2,25=1,30=1,71=1,74=-55/1,2,3;
 4/5=5,16=3,69=1/1;
 5/5=2,38=5/2;
 7//1,2,3,16;
 1/18=20,19=15,26=3/3(-5);
 2/9=110/2;
 6/7=2,8=2,9=2,10=2,19=2,28=1/1;
 99/9=1/99;
 ----------
 "Sketch 2"
 ----------
 Symbolic Z-matrix:
 Charge = -1 Multiplicity = 2
 N                     0.05085  -0.05768   0.00004 
 N                     0.71356   1.10294  -0.00037 
 C                     1.98021   0.74162   0.00031 
 C                     2.04042  -0.6738   -0.00005 
 N                     0.81236  -1.15232  -0.00008 
 H                     2.7779    1.46906   0.00051 
 H                     2.90065  -1.32586  -0.00003 
 H                    -1.32405   1.79927  -0.00041 
 C                    -1.36578  -0.11933  -0.00005 
 O                    -1.96088   1.05872   0.00013 
 O                    -1.95423  -1.16922   0.00006 
 

 GradGradGradGradGradGradGradGradGradGradGradGradGradGradGradGradGradGrad
 Berny optimization.
 Initialization pass.
                           ----------------------------
                           !    Initial Parameters    !
                           ! (Angstroms and Degrees)  !
 --------------------------                            --------------------------
 ! Name  Definition              Value          Derivative Info.                !
 --------------------------------------------------------------------------------
 ! R1    R(1,2)                  1.3365         estimate D2E/DX2                !
 ! R2    R(1,5)                  1.3335         estimate D2E/DX2                !
 ! R3    R(1,9)                  1.418          estimate D2E/DX2                !
 ! R4    R(2,3)                  1.3172         estimate D2E/DX2                !
 ! R5    R(3,4)                  1.4167         estimate D2E/DX2                !
 ! R6    R(3,6)                  1.0796         estimate D2E/DX2                !
 ! R7    R(4,5)                  1.318          estimate D2E/DX2                !
 ! R8    R(4,7)                  1.0794         estimate D2E/DX2                !
 ! R9    R(8,10)                 0.9767         estimate D2E/DX2                !
 ! R10   R(9,10)                 1.3198         estimate D2E/DX2                !
 ! R11   R(9,11)                 1.2036         estimate D2E/DX2                !
 ! A1    A(2,1,5)              115.4489         estimate D2E/DX2                !
 ! A2    A(2,1,9)              122.2175         estimate D2E/DX2                !
 ! A3    A(5,1,9)              122.3336         estimate D2E/DX2                !
 ! A4    A(1,2,3)              103.8046         estimate D2E/DX2                !
 ! A5    A(2,3,4)              108.3573         estimate D2E/DX2                !
 ! A6    A(2,3,6)              121.7159         estimate D2E/DX2                !
 ! A7    A(4,3,6)              129.9268         estimate D2E/DX2                !
 ! A8    A(3,4,5)              108.8526         estimate D2E/DX2                !
 ! A9    A(3,4,7)              129.5983         estimate D2E/DX2                !
 ! A10   A(5,4,7)              121.5491         estimate D2E/DX2                !
 ! A11   A(1,5,4)              103.5365         estimate D2E/DX2                !
 ! A12   A(1,9,10)             114.3096         estimate D2E/DX2                !
 ! A13   A(1,9,11)             121.7618         estimate D2E/DX2                !
 ! A14   A(10,9,11)            123.9286         estimate D2E/DX2                !
 ! A15   A(8,10,9)             112.5051         estimate D2E/DX2                !
 ! D1    D(5,1,2,3)             -0.0488         estimate D2E/DX2                !
 ! D2    D(9,1,2,3)            179.981          estimate D2E/DX2                !
 ! D3    D(2,1,5,4)              0.0248         estimate D2E/DX2                !
 ! D4    D(9,1,5,4)            179.9949         estimate D2E/DX2                !
 ! D5    D(2,1,9,10)            -0.0336         estimate D2E/DX2                !
 ! D6    D(2,1,9,11)           179.9855         estimate D2E/DX2                !
 ! D7    D(5,1,9,10)           179.9983         estimate D2E/DX2                !
 ! D8    D(5,1,9,11)             0.0173         estimate D2E/DX2                !
 ! D9    D(1,2,3,4)              0.0502         estimate D2E/DX2                !
 ! D10   D(1,2,3,6)           -179.9802         estimate D2E/DX2                !
 ! D11   D(2,3,4,5)             -0.039          estimate D2E/DX2                !
 ! D12   D(2,3,4,7)            179.9775         estimate D2E/DX2                !
 ! D13   D(6,3,4,5)            179.9946         estimate D2E/DX2                !
 ! D14   D(6,3,4,7)              0.0112         estimate D2E/DX2                !
 ! D15   D(3,4,5,1)              0.0089         estimate D2E/DX2                !
 ! D16   D(7,4,5,1)            179.9939         estimate D2E/DX2                !
 ! D17   D(1,9,10,8)             0.0454         estimate D2E/DX2                !
 ! D18   D(11,9,10,8)         -179.9741         estimate D2E/DX2                !
 --------------------------------------------------------------------------------
 Trust Radius=3.00D-01 FncErr=1.00D-07 GrdErr=1.00D-06 EigMax=2.50D+02 EigMin=1.00D-04
 Number of steps in this run=     54 maximum allowed number of steps=    100.
 GradGradGradGradGradGradGradGradGradGradGradGradGradGradGradGradGradGrad

                          Input orientation:                          
 ---------------------------------------------------------------------
 Center     Atomic      Atomic             Coordinates (Angstroms)
 Number     Number       Type             X           Y           Z
 ---------------------------------------------------------------------
      1          7           0        0.050851   -0.057684    0.000042
      2          7           0        0.713556    1.102942   -0.000368
      3          6           0        1.980205    0.741618    0.000306
      4          6           0        2.040419   -0.673799   -0.000049
      5          7           0        0.812356   -1.152320   -0.000082
      6          1           0        2.777899    1.469063    0.000509
      7          1           0        2.900652   -1.325860   -0.000030
      8          1           0       -1.324053    1.799271   -0.000409
      9          6           0       -1.365776   -0.119326   -0.000051
     10          8           0       -1.960882    1.058724    0.000132
     11          8           0       -1.954233   -1.169223    0.000061
 ---------------------------------------------------------------------
                    Distance matrix (angstroms):
                    1          2          3          4          5
     1  N    0.000000
     2  N    1.336499   0.000000
     3  C    2.088370   1.317177   0.000000
     4  C    2.082781   2.217515   1.416697   0.000000
     5  N    1.333461   2.257425   2.225056   1.317999   0.000000
     6  H    3.125340   2.096558   1.079580   2.266216   3.276432
     7  H    3.119236   3.268405   2.263115   1.079437   2.095494
     8  H    2.310550   2.153305   3.469402   4.175613   3.643643
     9  C    1.417967   2.411962   3.454969   3.451030   2.410671
    10  O    2.300747   2.674804   3.953824   4.360280   3.546768
    11  O    2.292571   3.504259   4.373913   4.025256   2.766641
                    6          7          8          9         10
     6  H    0.000000
     7  H    2.797617   0.000000
     8  H    4.115222   5.254957   0.000000
     9  C    4.437682   4.433749   1.919051   0.000000
    10  O    4.756514   5.414864   0.976709   1.319831   0.000000
    11  O    5.417899   4.857411   3.034647   1.203564   2.227957
                   11
    11  O    0.000000
 Stoichiometry    C3H3N3O2(1-,2)
 Framework group  C1[X(C3H3N3O2)]
 Deg. of freedom    27
 Full point group                 C1      NOp   1
 Largest Abelian subgroup         C1      NOp   1
 Largest concise Abelian subgroup C1      NOp   1
                         Standard orientation:                         
 ---------------------------------------------------------------------
 Center     Atomic      Atomic             Coordinates (Angstroms)
 Number     Number       Type             X           Y           Z
 ---------------------------------------------------------------------
      1          7           0        0.050851   -0.057684    0.000042
      2          7           0        0.713556    1.102942   -0.000368
      3          6           0        1.980205    0.741618    0.000306
      4          6           0        2.040419   -0.673799   -0.000049
      5          7           0        0.812356   -1.152320   -0.000082
      6          1           0        2.777899    1.469063    0.000509
      7          1           0        2.900652   -1.325860   -0.000030
      8          1           0       -1.324053    1.799271   -0.000409
      9          6           0       -1.365776   -0.119326   -0.000051
     10          8           0       -1.960882    1.058724    0.000132
     11          8           0       -1.954233   -1.169223    0.000061
 ---------------------------------------------------------------------
 Rotational constants (GHZ):           5.3286364           1.8292584           1.3617765
 Standard basis: 6-31+G(d,p) (6D, 7F)
 There are   167 symmetry adapted cartesian basis functions of A   symmetry.
 There are   167 symmetry adapted basis functions of A   symmetry.
   167 basis functions,   277 primitive gaussians,   167 cartesian basis functions
    30 alpha electrons       29 beta electrons
       nuclear repulsion energy       363.7420586451 Hartrees.
 NAtoms=   11 NActive=   11 NUniq=   11 SFac= 1.00D+00 NAtFMM=   60 NAOKFM=F Big=F
 Integral buffers will be    131072 words long.
 Raffenetti 2 integral format.
 Two-electron integral symmetry is turned on.
 One-electron integrals computed using PRISM.
 NBasis=   167 RedAO= T EigKep=  2.29D-05  NBF=   167
 NBsUse=   167 1.00D-06 EigRej= -1.00D+00 NBFU=   167
 ExpMin= 4.38D-02 ExpMax= 5.48D+03 ExpMxC= 8.25D+02 IAcc=3 IRadAn=         5 AccDes= 0.00D+00
 Harris functional with IExCor= 1009 and IRadAn=       5 diagonalized for initial guess.
 HarFok:  IExCor= 1009 AccDes= 0.00D+00 IRadAn=         5 IDoV= 1 UseB2=F ITyADJ=14
 ICtDFT=  3500011 ScaDFX=  1.000000  1.000000  1.000000  1.000000
 FoFCou: FMM=F IPFlag=           0 FMFlag=      100000 FMFlg1=           0
         NFxFlg=           0 DoJE=T BraDBF=F KetDBF=T FulRan=T
         wScrn=  0.000000 ICntrl=       500 IOpCl=  0 I1Cent=   200000004 NGrid=           0
         NMat0=    1 NMatS0=      1 NMatT0=    0 NMatD0=    1 NMtDS0=    0 NMtDT0=    0
 Petite list used in FoFCou.
 Initial guess <Sx>= 0.0000 <Sy>= 0.0000 <Sz>= 0.5000 <S**2>= 0.7500 S= 0.5000
 Keep R1 and R2 ints in memory in canonical form, NReq=216648901.
 Requested convergence on RMS density matrix=1.00D-08 within 128 cycles.
 Requested convergence on MAX density matrix=1.00D-06.
 Requested convergence on             energy=1.00D-06.
 No special actions if energy rises.
 SCF Done:  E(UM062X) =  -430.652434961     A.U. after   19 cycles
            NFock= 19  Conv=0.32D-08     -V/T= 2.0072
 <Sx>= 0.0000 <Sy>= 0.0000 <Sz>= 0.5000 <S**2>= 0.7629 S= 0.5064
 <L.S>= 0.000000000000E+00
 Annihilation of the first spin contaminant:
 S**2 before annihilation     0.7629,   after     0.7501

 **********************************************************************

            Population analysis using the SCF density.

 **********************************************************************

 Orbital symmetries:
 Alpha Orbitals:
       Occupied  (A) (A) (A) (A) (A) (A) (A) (A) (A) (A) (A) (A)
                 (A) (A) (A) (A) (A) (A) (A) (A) (A) (A) (A) (A)
                 (A) (A) (A) (A) (A) (A)
       Virtual   (A) (A) (A) (A) (A) (A) (A) (A) (A) (A) (A) (A)
                 (A) (A) (A) (A) (A) (A) (A) (A) (A) (A) (A) (A)
                 (A) (A) (A) (A) (A) (A) (A) (A) (A) (A) (A) (A)
                 (A) (A) (A) (A) (A) (A) (A) (A) (A) (A) (A) (A)
                 (A) (A) (A) (A) (A) (A) (A) (A) (A) (A) (A) (A)
                 (A) (A) (A) (A) (A) (A) (A) (A) (A) (A) (A) (A)
                 (A) (A) (A) (A) (A) (A) (A) (A) (A) (A) (A) (A)
                 (A) (A) (A) (A) (A) (A) (A) (A) (A) (A) (A) (A)
                 (A) (A) (A) (A) (A) (A) (A) (A) (A) (A) (A) (A)
                 (A) (A) (A) (A) (A) (A) (A) (A) (A) (A) (A) (A)
                 (A) (A) (A) (A) (A) (A) (A) (A) (A) (A) (A) (A)
                 (A) (A) (A) (A) (A)
 Beta  Orbitals:
       Occupied  (A) (A) (A) (A) (A) (A) (A) (A) (A) (A) (A) (A)
                 (A) (A) (A) (A) (A) (A) (A) (A) (A) (A) (A) (A)
                 (A) (A) (A) (A) (A)
       Virtual   (A) (A) (A) (A) (A) (A) (A) (A) (A) (A) (A) (A)
                 (A) (A) (A) (A) (A) (A) (A) (A) (A) (A) (A) (A)
                 (A) (A) (A) (A) (A) (A) (A) (A) (A) (A) (A) (A)
                 (A) (A) (A) (A) (A) (A) (A) (A) (A) (A) (A) (A)
                 (A) (A) (A) (A) (A) (A) (A) (A) (A) (A) (A) (A)
                 (A) (A) (A) (A) (A) (A) (A) (A) (A) (A) (A) (A)
                 (A) (A) (A) (A) (A) (A) (A) (A) (A) (A) (A) (A)
                 (A) (A) (A) (A) (A) (A) (A) (A) (A) (A) (A) (A)
                 (A) (A) (A) (A) (A) (A) (A) (A) (A) (A) (A) (A)
                 (A) (A) (A) (A) (A) (A) (A) (A) (A) (A) (A) (A)
                 (A) (A) (A) (A) (A) (A) (A) (A) (A) (A) (A) (A)
                 (A) (A) (A) (A) (A) (A)
 The electronic state is 2-A.
 Alpha  occ. eigenvalues --  -19.53058 -19.44445 -14.68531 -14.60313 -14.59398
 Alpha  occ. eigenvalues --  -10.52304 -10.40260 -10.40067  -1.08748  -1.03098
 Alpha  occ. eigenvalues --   -0.97269  -0.81844  -0.76279  -0.58496  -0.54000
 Alpha  occ. eigenvalues --   -0.53270  -0.45603  -0.41290  -0.37623  -0.37243
 Alpha  occ. eigenvalues --   -0.34179  -0.33859  -0.30965  -0.23814  -0.22325
 Alpha  occ. eigenvalues --   -0.19791  -0.19379  -0.18172  -0.16466   0.03644
 Alpha virt. eigenvalues --    0.14052   0.14907   0.16396   0.18212   0.19155
 Alpha virt. eigenvalues --    0.19762   0.21382   0.21542   0.22397   0.23060
 Alpha virt. eigenvalues --    0.25174   0.27131   0.27950   0.28336   0.29331
 Alpha virt. eigenvalues --    0.33743   0.34763   0.35160   0.35992   0.36247
 Alpha virt. eigenvalues --    0.37098   0.38661   0.39688   0.39971   0.41545
 Alpha virt. eigenvalues --    0.41840   0.42865   0.43000   0.44494   0.45020
 Alpha virt. eigenvalues --    0.45536   0.46659   0.49075   0.49189   0.50133
 Alpha virt. eigenvalues --    0.51281   0.53509   0.55434   0.57039   0.58216
 Alpha virt. eigenvalues --    0.62334   0.64830   0.67819   0.73348   0.83412
 Alpha virt. eigenvalues --    0.88819   0.89854   0.92359   0.96575   0.98229
 Alpha virt. eigenvalues --    1.04448   1.06116   1.06485   1.10375   1.11584
 Alpha virt. eigenvalues --    1.14943   1.15661   1.18746   1.20073   1.20310
 Alpha virt. eigenvalues --    1.23423   1.27585   1.28013   1.31034   1.35190
 Alpha virt. eigenvalues --    1.38031   1.38856   1.44909   1.45854   1.48880
 Alpha virt. eigenvalues --    1.50118   1.50789   1.53808   1.56032   1.56089
 Alpha virt. eigenvalues --    1.57960   1.58455   1.61271   1.61658   1.66128
 Alpha virt. eigenvalues --    1.67179   1.73566   1.75347   1.79281   1.81115
 Alpha virt. eigenvalues --    1.85999   1.95550   2.01079   2.05920   2.06618
 Alpha virt. eigenvalues --    2.11757   2.13295   2.19300   2.19503   2.21038
 Alpha virt. eigenvalues --    2.23358   2.25998   2.32761   2.39020   2.45092
 Alpha virt. eigenvalues --    2.46481   2.47738   2.51023   2.53545   2.60989
 Alpha virt. eigenvalues --    2.62235   2.66840   2.68022   2.69218   2.74529
 Alpha virt. eigenvalues --    2.76546   2.78218   2.86753   2.89495   2.90037
 Alpha virt. eigenvalues --    2.96491   2.97024   3.00788   3.03875   3.12682
 Alpha virt. eigenvalues --    3.17913   3.22229   3.32473   3.36304   3.42914
 Alpha virt. eigenvalues --    3.47519   3.54705   3.72388   3.89947   4.23120
 Alpha virt. eigenvalues --    4.39870   4.45404   4.51418   4.59461   4.73130
 Alpha virt. eigenvalues --    4.83267   4.97153
  Beta  occ. eigenvalues --  -19.53016 -19.44186 -14.68461 -14.59861 -14.58953
  Beta  occ. eigenvalues --  -10.52187 -10.40239 -10.40084  -1.08304  -1.02431
  Beta  occ. eigenvalues --   -0.96630  -0.80509  -0.75571  -0.57824  -0.53603
  Beta  occ. eigenvalues --   -0.52934  -0.44650  -0.39646  -0.37310  -0.36797
  Beta  occ. eigenvalues --   -0.33412  -0.32787  -0.30649  -0.21889  -0.21341
  Beta  occ. eigenvalues --   -0.19161  -0.17172  -0.15453  -0.14569
  Beta virt. eigenvalues --    0.13057   0.14449   0.15591   0.16353   0.18014
  Beta virt. eigenvalues --    0.18281   0.18655   0.19923   0.20468   0.21779
  Beta virt. eigenvalues --    0.21963   0.23337   0.26591   0.27506   0.28403
  Beta virt. eigenvalues --    0.30092   0.33490   0.34644   0.34952   0.35801
  Beta virt. eigenvalues --    0.35849   0.36936   0.38066   0.39357   0.39609
  Beta virt. eigenvalues --    0.41122   0.41331   0.42773   0.42897   0.44136
  Beta virt. eigenvalues --    0.44737   0.45376   0.46472   0.48869   0.49163
  Beta virt. eigenvalues --    0.50257   0.50329   0.52714   0.54894   0.56590
  Beta virt. eigenvalues --    0.58414   0.62536   0.64429   0.67998   0.73609
  Beta virt. eigenvalues --    0.83768   0.88720   0.90032   0.92187   0.97277
  Beta virt. eigenvalues --    0.98435   1.04688   1.06126   1.06530   1.10389
  Beta virt. eigenvalues --    1.11590   1.15070   1.16588   1.20412   1.20572
  Beta virt. eigenvalues --    1.22021   1.23497   1.27651   1.27977   1.31096
  Beta virt. eigenvalues --    1.35516   1.38390   1.39003   1.45825   1.45972
  Beta virt. eigenvalues --    1.48982   1.50040   1.51571   1.53871   1.56230
  Beta virt. eigenvalues --    1.56847   1.58029   1.58465   1.62181   1.62541
  Beta virt. eigenvalues --    1.67056   1.67278   1.73715   1.76352   1.79448
  Beta virt. eigenvalues --    1.81541   1.86455   1.95731   2.01620   2.06015
  Beta virt. eigenvalues --    2.06794   2.12076   2.13623   2.19765   2.20021
  Beta virt. eigenvalues --    2.21372   2.23645   2.26539   2.33154   2.39413
  Beta virt. eigenvalues --    2.45946   2.46825   2.48394   2.51575   2.53957
  Beta virt. eigenvalues --    2.61422   2.62499   2.67286   2.68314   2.69532
  Beta virt. eigenvalues --    2.74948   2.77478   2.78574   2.87248   2.89863
  Beta virt. eigenvalues --    2.90592   2.96928   2.97916   3.01159   3.04276
  Beta virt. eigenvalues --    3.13346   3.18252   3.22557   3.33061   3.36598
  Beta virt. eigenvalues --    3.43313   3.47989   3.55102   3.72511   3.90244
  Beta virt. eigenvalues --    4.23395   4.40084   4.45413   4.51564   4.59786
  Beta virt. eigenvalues --    4.74508   4.83481   4.97191
          Condensed to atoms (all electrons):
               1          2          3          4          5          6
     1  N    7.513676  -0.112466   0.081028  -0.015246  -0.059310  -0.010894
     2  N   -0.112466   7.728218   0.143064  -0.111832  -0.318565  -0.043117
     3  C    0.081028   0.143064   5.591464   0.248738  -0.108817   0.386049
     4  C   -0.015246  -0.111832   0.248738   5.590624   0.119187  -0.020223
     5  N   -0.059310  -0.318565  -0.108817   0.119187   7.629276   0.001874
     6  H   -0.010894  -0.043117   0.386049  -0.020223   0.001874   0.574303
     7  H   -0.011164   0.002402  -0.039879   0.406634  -0.050305   0.000872
     8  H   -0.017998   0.045838   0.007852  -0.003695  -0.006565  -0.000038
     9  C    0.142388  -0.014653  -0.006938  -0.009690  -0.009262   0.000281
    10  O   -0.173162  -0.052186  -0.005648  -0.013858   0.035695  -0.000011
    11  O   -0.128285   0.037129  -0.006173  -0.009451  -0.034191  -0.000011
               7          8          9         10         11
     1  N   -0.011164  -0.017998   0.142388  -0.173162  -0.128285
     2  N    0.002402   0.045838  -0.014653  -0.052186   0.037129
     3  C   -0.039879   0.007852  -0.006938  -0.005648  -0.006173
     4  C    0.406634  -0.003695  -0.009690  -0.013858  -0.009451
     5  N   -0.050305  -0.006565  -0.009262   0.035695  -0.034191
     6  H    0.000872  -0.000038   0.000281  -0.000011  -0.000011
     7  H    0.579515  -0.000002   0.000428   0.000015  -0.000158
     8  H   -0.000002   0.340977  -0.000935   0.228453   0.010751
     9  C    0.000428  -0.000935   4.577970   0.192576   0.478724
    10  O    0.000015   0.228453   0.192576   8.392292  -0.080242
    11  O   -0.000158   0.010751   0.478724  -0.080242   8.291659
          Atomic-Atomic Spin Densities.
               1          2          3          4          5          6
     1  N    0.279901  -0.288427   0.122187   0.097739  -0.284050   0.003398
     2  N   -0.288427   0.780758  -0.253273  -0.111360   0.173953  -0.003426
     3  C    0.122187  -0.253273   0.191097   0.169069  -0.125358  -0.005799
     4  C    0.097739  -0.111360   0.169069   0.056649  -0.197220   0.008804
     5  N   -0.284050   0.173953  -0.125358  -0.197220   0.757670  -0.002009
     6  H    0.003398  -0.003426  -0.005799   0.008804  -0.002009  -0.004203
     7  H    0.003613  -0.001450   0.008618  -0.005779  -0.004114  -0.000036
     8  H   -0.002420   0.001056  -0.001254   0.000741  -0.000167   0.000003
     9  C    0.125651  -0.032425   0.000083   0.003382  -0.034283  -0.000205
    10  O   -0.026181   0.017332  -0.000952  -0.004620   0.008636   0.000034
    11  O   -0.044555   0.014982  -0.006306  -0.002977   0.026115   0.000006
               7          8          9         10         11
     1  N    0.003613  -0.002420   0.125651  -0.026181  -0.044555
     2  N   -0.001450   0.001056  -0.032425   0.017332   0.014982
     3  C    0.008618  -0.001254   0.000083  -0.000952  -0.006306
     4  C   -0.005779   0.000741   0.003382  -0.004620  -0.002977
     5  N   -0.004114  -0.000167  -0.034283   0.008636   0.026115
     6  H   -0.000036   0.000003  -0.000205   0.000034   0.000006
     7  H   -0.001196   0.000000  -0.000203   0.000008   0.000028
     8  H    0.000000  -0.000492   0.000464   0.000875  -0.000227
     9  C   -0.000203   0.000464   0.208657  -0.028072  -0.085611
    10  O    0.000008   0.000875  -0.028072   0.032707   0.011756
    11  O    0.000028  -0.000227  -0.085611   0.011756   0.206904
 Mulliken charges and spin densities:
               1          2
     1  N   -0.208569  -0.013145
     2  N   -0.303833   0.297720
     3  C   -0.290742   0.098111
     4  C   -0.181188   0.014428
     5  N   -0.199019   0.319173
     6  H    0.110913  -0.003433
     7  H    0.111643  -0.000511
     8  H    0.395362  -0.001420
     9  C    0.649111   0.157437
    10  O   -0.523925   0.011524
    11  O   -0.559752   0.120116
 Sum of Mulliken charges =  -1.00000   1.00000
 Mulliken charges and spin densities with hydrogens summed into heavy atoms:
               1          2
     1  N   -0.208569  -0.013145
     2  N   -0.303833   0.297720
     3  C   -0.179829   0.094678
     4  C   -0.069545   0.013917
     5  N   -0.199019   0.319173
     9  C    0.649111   0.157437
    10  O   -0.128564   0.010103
    11  O   -0.559752   0.120116
 Electronic spatial extent (au):  <R**2>=            835.7832
 Charge=             -1.0000 electrons
 Dipole moment (field-independent basis, Debye):
    X=              2.1196    Y=              3.1301    Z=             -0.0009  Tot=              3.7802
 Quadrupole moment (field-independent basis, Debye-Ang):
   XX=            -64.2984   YY=            -57.2938   ZZ=            -51.0624
   XY=             -4.9501   XZ=              0.0013   YZ=             -0.0004
 Traceless Quadrupole moment (field-independent basis, Debye-Ang):
   XX=             -6.7469   YY=              0.2577   ZZ=              6.4891
   XY=             -4.9501   XZ=              0.0013   YZ=             -0.0004
 Octapole moment (field-independent basis, Debye-Ang**2):
  XXX=             13.0086  YYY=             15.2639  ZZZ=             -0.0052  XYY=             -1.6449
  XXY=              6.2482  XXZ=             -0.0048  XZZ=            -13.1980  YZZ=             -0.2428
  YYZ=             -0.0011  XYZ=              0.0048
 Hexadecapole moment (field-independent basis, Debye-Ang**3):
 XXXX=           -872.1134 YYYY=           -314.5936 ZZZZ=            -66.4879 XXXY=            -15.7455
 XXXZ=             -0.0032 YYYX=            -21.3706 YYYZ=             -0.0030 ZZZX=             -0.0141
 ZZZY=             -0.0008 XXYY=           -191.2297 XXZZ=           -161.1118 YYZZ=            -66.2060
 XXYZ=              0.0012 YYXZ=              0.0045 ZZXY=             -1.8644
 N-N= 3.637420586451D+02 E-N=-1.745816367155D+03  KE= 4.275528375578D+02
                          Isotropic Fermi Contact Couplings
        Atom                 a.u.       MegaHertz       Gauss      10(-4) cm-1
     1  N(14)             -0.01183      -3.82228      -1.36388      -1.27497
     2  N(14)              0.07801      25.20402       8.99342       8.40715
     3  C(13)              0.00126       1.41470       0.50480       0.47189
     4  C(13)             -0.00841      -9.45386      -3.37337      -3.15347
     5  N(14)              0.07940      25.65343       9.15378       8.55706
     6  H(1)              -0.00122      -5.43139      -1.93806      -1.81172
     7  H(1)              -0.00048      -2.14683      -0.76604      -0.71611
     8  H(1)              -0.00042      -1.86890      -0.66687      -0.62340
     9  C(13)              0.02200      24.73680       8.82671       8.25131
    10  O(17)              0.00131      -0.79320      -0.28303      -0.26458
    11  O(17)              0.03016     -18.28077      -6.52303      -6.09781
 --------------------------------------------------------
       Center         ----  Spin Dipole Couplings  ----
                      3XX-RR        3YY-RR        3ZZ-RR
 --------------------------------------------------------
     1   Atom       -0.079306     -0.084341      0.163647
     2   Atom       -0.345836     -0.337145      0.682981
     3   Atom       -0.016665     -0.029333      0.045998
     4   Atom        0.007326     -0.003619     -0.003706
     5   Atom       -0.344959     -0.340812      0.685771
     6   Atom        0.002597      0.000408     -0.003005
     7   Atom        0.003651      0.000227     -0.003877
     8   Atom        0.002762      0.003880     -0.006642
     9   Atom       -0.088877     -0.101057      0.189935
    10   Atom       -0.049255     -0.052496      0.101751
    11   Atom       -0.239529     -0.253142      0.492672
 --------------------------------------------------------
                        XY            XZ            YZ
 --------------------------------------------------------
     1   Atom        0.000646     -0.000087     -0.000071
     2   Atom        0.000439     -0.000317      0.000334
     3   Atom       -0.001600      0.000027     -0.000055
     4   Atom        0.003805     -0.000018     -0.000060
     5   Atom       -0.000589     -0.000074      0.000053
     6   Atom        0.008588      0.000006     -0.000001
     7   Atom       -0.004697      0.000000     -0.000004
     8   Atom       -0.002648      0.000003     -0.000001
     9   Atom        0.006460     -0.000027     -0.000016
    10   Atom        0.003508     -0.000010      0.000033
    11   Atom       -0.008185      0.000053      0.000052
 --------------------------------------------------------


 ---------------------------------------------------------------------------------
              Anisotropic Spin Dipole Couplings in Principal Axis System
 ---------------------------------------------------------------------------------

       Atom             a.u.   MegaHertz   Gauss  10(-4) cm-1        Axes

              Baa    -0.0844    -3.256    -1.162    -1.086 -0.1253  0.9921  0.0002
     1 N(14)  Bbb    -0.0792    -3.056    -1.090    -1.019  0.9921  0.1253  0.0004
              Bcc     0.1636     6.312     2.252     2.105 -0.0004 -0.0003  1.0000
 
              Baa    -0.3459   -13.339    -4.760    -4.449  0.9987 -0.0503  0.0003
     2 N(14)  Bbb    -0.3371   -13.002    -4.639    -4.337  0.0503  0.9987 -0.0003
              Bcc     0.6830    26.341     9.399     8.786 -0.0003  0.0003  1.0000
 
              Baa    -0.0295    -3.963    -1.414    -1.322  0.1234  0.9924  0.0007
     3 C(13)  Bbb    -0.0165    -2.210    -0.788    -0.737  0.9924 -0.1234 -0.0005
              Bcc     0.0460     6.172     2.202     2.059  0.0004 -0.0007  1.0000
 
              Baa    -0.0048    -0.646    -0.231    -0.216 -0.2987  0.9532  0.0469
     4 C(13)  Bbb    -0.0037    -0.497    -0.177    -0.166  0.0168 -0.0439  0.9989
              Bcc     0.0085     1.143     0.408     0.381  0.9542  0.2992 -0.0029
 
              Baa    -0.3450   -13.307    -4.748    -4.439  0.9904  0.1379  0.0001
     5 N(14)  Bbb    -0.3407   -13.141    -4.689    -4.383 -0.1379  0.9904 -0.0001
              Bcc     0.6858    26.449     9.438     8.822 -0.0001  0.0001  1.0000
 
              Baa    -0.0072    -3.817    -1.362    -1.273 -0.6609  0.7505  0.0012
     6 H(1)   Bbb    -0.0030    -1.604    -0.572    -0.535  0.0006 -0.0011  1.0000
              Bcc     0.0102     5.421     1.934     1.808  0.7505  0.6609  0.0003
 
              Baa    -0.0039    -2.069    -0.738    -0.690  0.0017  0.0028  1.0000
     7 H(1)   Bbb    -0.0031    -1.633    -0.583    -0.545  0.5734  0.8193 -0.0033
              Bcc     0.0069     3.702     1.321     1.235  0.8193 -0.5734  0.0002
 
              Baa    -0.0066    -3.544    -1.264    -1.182 -0.0003 -0.0000  1.0000
     8 H(1)   Bbb     0.0006     0.328     0.117     0.109  0.7767  0.6298  0.0003
              Bcc     0.0060     3.216     1.148     1.073 -0.6298  0.7767 -0.0002
 
              Baa    -0.1038   -13.935    -4.972    -4.648 -0.3963  0.9181  0.0000
     9 C(13)  Bbb    -0.0861   -11.552    -4.122    -3.853  0.9181  0.3963  0.0001
              Bcc     0.1899    25.487     9.095     8.502 -0.0001 -0.0001  1.0000
 
              Baa    -0.0547     3.961     1.413     1.321 -0.5388  0.8424 -0.0002
    10 O(17)  Bbb    -0.0470     3.402     1.214     1.135  0.8424  0.5388 -0.0001
              Bcc     0.1018    -7.363    -2.627    -2.456 -0.0001  0.0002  1.0000
 
              Baa    -0.2570    18.595     6.635     6.203  0.4246  0.9054 -0.0001
    11 O(17)  Bbb    -0.2357    17.054     6.085     5.689  0.9054 -0.4246 -0.0000
              Bcc     0.4927   -35.649   -12.721   -11.891  0.0001  0.0001  1.0000
 

 ---------------------------------------------------------------------------------

 Calling FoFJK, ICntrl=      2127 FMM=F ISym2X=0 I1Cent= 0 IOpClX= 1 NMat=1 NMatS=1 NMatT=0.
 ***** Axes restored to original set *****
 -------------------------------------------------------------------
 Center     Atomic                   Forces (Hartrees/Bohr)
 Number     Number              X              Y              Z
 -------------------------------------------------------------------
      1        7          -0.069225577   -0.002520072   -0.000040041
      2        7          -0.023275271    0.049069450    0.000050590
      3        6           0.040396000   -0.028103642   -0.000055044
      4        6           0.027388634    0.032669541    0.000055987
      5        7          -0.010643906   -0.043002960   -0.000018411
      6        1           0.000887696    0.000658990   -0.000010564
      7        1           0.000977730   -0.000691514    0.000005883
      8        1           0.004231441   -0.011415135    0.000010972
      9        6           0.072500374   -0.010687828    0.000021034
     10        8          -0.017423672    0.041031438   -0.000015274
     11        8          -0.025813449   -0.027008267   -0.000005133
 -------------------------------------------------------------------
 Cartesian Forces:  Max     0.072500374 RMS     0.026316300

 GradGradGradGradGradGradGradGradGradGradGradGradGradGradGradGradGradGrad
 Berny optimization.
 FormGI is forming the generalized inverse of G from B-inverse, IUseBI=4.
 Internal  Forces:  Max     0.041182141 RMS     0.015603084
 Search for a local minimum.
 Step number   1 out of a maximum of   54
 All quantities printed in internal units (Hartrees-Bohrs-Radians)
 Mixed Optimization -- RFO/linear search
 Second derivative matrix not updated -- first step.
 ITU=  0
     Eigenvalues ---    0.01454   0.01831   0.01901   0.02055   0.02143
     Eigenvalues ---    0.02284   0.02400   0.02752   0.16000   0.16000
     Eigenvalues ---    0.16000   0.22616   0.24748   0.25000   0.25000
     Eigenvalues ---    0.25000   0.36045   0.36062   0.40107   0.42768
     Eigenvalues ---    0.52029   0.53684   0.54689   0.59917   0.61974
     Eigenvalues ---    0.62211   1.03053
 RFO step:  Lambda=-2.13955520D-02 EMin= 1.45410494D-02
 Linear search not attempted -- first point.
 Iteration  1 RMS(Cart)=  0.08698475 RMS(Int)=  0.00549154
 Iteration  2 RMS(Cart)=  0.00614817 RMS(Int)=  0.00009168
 Iteration  3 RMS(Cart)=  0.00004256 RMS(Int)=  0.00008812
 Iteration  4 RMS(Cart)=  0.00000000 RMS(Int)=  0.00008812
 Variable       Old X    -DE/DX   Delta X   Delta X   Delta X     New X
                                 (Linear)    (Quad)   (Total)
    R1        2.52562   0.03576   0.00000   0.06346   0.06359   2.58921
    R2        2.51988   0.03004   0.00000   0.05266   0.05283   2.57270
    R3        2.67957  -0.03311   0.00000  -0.07373  -0.07373   2.60584
    R4        2.48910   0.04118   0.00000   0.06286   0.06277   2.55188
    R5        2.67717  -0.01119   0.00000  -0.03056  -0.03074   2.64643
    R6        2.04011   0.00110   0.00000   0.00288   0.00288   2.04299
    R7        2.49066   0.03694   0.00000   0.05536   0.05533   2.54599
    R8        2.03984   0.00120   0.00000   0.00313   0.00313   2.04297
    R9        1.84571  -0.00589   0.00000  -0.01088  -0.01088   1.83483
   R10        2.49412   0.03238   0.00000   0.05051   0.05051   2.54463
   R11        2.27441   0.03618   0.00000   0.03439   0.03439   2.30880
    A1        2.01496  -0.00455   0.00000  -0.00526  -0.00503   2.00994
    A2        2.13310  -0.00736   0.00000  -0.03286  -0.03298   2.10012
    A3        2.13512   0.01191   0.00000   0.03812   0.03800   2.17313
    A4        1.81173  -0.00550   0.00000  -0.01290  -0.01287   1.79886
    A5        1.89119   0.00518   0.00000   0.00925   0.00900   1.90019
    A6        2.12434  -0.00248   0.00000  -0.00399  -0.00387   2.12048
    A7        2.26765  -0.00271   0.00000  -0.00526  -0.00513   2.26252
    A8        1.89984   0.00998   0.00000   0.02635   0.02616   1.92599
    A9        2.26192  -0.00503   0.00000  -0.01339  -0.01329   2.24862
   A10        2.12143  -0.00495   0.00000  -0.01296  -0.01286   2.10857
   A11        1.80705  -0.00511   0.00000  -0.01743  -0.01726   1.78980
   A12        1.99508  -0.02280   0.00000  -0.08399  -0.08399   1.91109
   A13        2.12514   0.02199   0.00000   0.08102   0.08102   2.20617
   A14        2.16296   0.00081   0.00000   0.00297   0.00297   2.16593
   A15        1.96359  -0.01966   0.00000  -0.10838  -0.10838   1.85521
    D1       -0.00085   0.00003   0.00000   0.00067   0.00066  -0.00019
    D2        3.14126   0.00002   0.00000   0.00046   0.00045  -3.14147
    D3        0.00043  -0.00000   0.00000  -0.00013  -0.00014   0.00029
    D4        3.14150   0.00000   0.00000   0.00006   0.00005   3.14156
    D5       -0.00059   0.00001   0.00000   0.00035   0.00035  -0.00023
    D6        3.14134  -0.00000   0.00000  -0.00007  -0.00007   3.14126
    D7        3.14156   0.00001   0.00000   0.00014   0.00014  -3.14148
    D8        0.00030  -0.00001   0.00000  -0.00028  -0.00029   0.00001
    D9        0.00088  -0.00004   0.00000  -0.00087  -0.00087   0.00000
   D10       -3.14125  -0.00001   0.00000  -0.00033  -0.00033  -3.14157
   D11       -0.00068   0.00004   0.00000   0.00085   0.00086   0.00018
   D12        3.14120   0.00002   0.00000   0.00040   0.00040  -3.14158
   D13        3.14150   0.00001   0.00000   0.00025   0.00025  -3.14143
   D14        0.00019  -0.00001   0.00000  -0.00020  -0.00020  -0.00001
   D15        0.00015  -0.00002   0.00000  -0.00042  -0.00042  -0.00027
   D16        3.14149  -0.00000   0.00000  -0.00002  -0.00001   3.14147
   D17        0.00079  -0.00002   0.00000  -0.00043  -0.00042   0.00037
   D18       -3.14114   0.00000   0.00000   0.00002   0.00001  -3.14113
         Item               Value     Threshold  Converged?
 Maximum Force            0.041182     0.000450     NO 
 RMS     Force            0.015603     0.000300     NO 
 Maximum Displacement     0.403268     0.001800     NO 
 RMS     Displacement     0.089743     0.001200     NO 
 Predicted change in Energy=-1.126697D-02
 GradGradGradGradGradGradGradGradGradGradGradGradGradGradGradGradGradGrad

                          Input orientation:                          
 ---------------------------------------------------------------------
 Center     Atomic      Atomic             Coordinates (Angstroms)
 Number     Number       Type             X           Y           Z
 ---------------------------------------------------------------------
      1          7           0       -0.001682   -0.097747    0.000108
      2          7           0        0.645334    1.110011    0.000043
      3          6           0        1.949032    0.757962    0.000059
      4          6           0        2.040900   -0.639452    0.000127
      5          7           0        0.811180   -1.189858   -0.000068
      6          1           0        2.734612    1.500693    0.000038
      7          1           0        2.925665   -1.260707    0.000165
      8          1           0       -1.110653    1.699137   -0.000129
      9          6           0       -1.379660   -0.149463   -0.000033
     10          8           0       -1.876376    1.102135    0.000068
     11          8           0       -2.067359   -1.159304   -0.000318
 ---------------------------------------------------------------------
                    Distance matrix (angstroms):
                    1          2          3          4          5
     1  N    0.000000
     2  N    1.370149   0.000000
     3  C    2.130146   1.350395   0.000000
     4  C    2.113193   2.237906   1.400431   0.000000
     5  N    1.361415   2.305841   2.255817   1.347278   0.000000
     6  H    3.168961   2.125491   1.081103   2.249768   3.307363
     7  H    3.149894   3.289409   2.242507   1.081095   2.115671
     8  H    2.111542   1.852177   3.201168   3.924447   3.469832
     9  C    1.378949   2.384717   3.450161   3.455477   2.425325
    10  O    2.225803   2.521723   3.840860   4.286978   3.532165
    11  O    2.322482   3.536735   4.450539   4.141019   2.878701
                    6          7          8          9         10
     6  H    0.000000
     7  H    2.768002   0.000000
     8  H    3.850381   5.005251   0.000000
     9  C    4.432860   4.446424   1.868071   0.000000
    10  O    4.628181   5.351881   0.970951   1.346560   0.000000
    11  O    5.489490   4.994053   3.014295   1.221764   2.269489
                   11
    11  O    0.000000
 Stoichiometry    C3H3N3O2(1-,2)
 Framework group  C1[X(C3H3N3O2)]
 Deg. of freedom    27
 Full point group                 C1      NOp   1
 Largest Abelian subgroup         C1      NOp   1
 Largest concise Abelian subgroup C1      NOp   1
                         Standard orientation:                         
 ---------------------------------------------------------------------
 Center     Atomic      Atomic             Coordinates (Angstroms)
 Number     Number       Type             X           Y           Z
 ---------------------------------------------------------------------
      1          7           0        0.016464   -0.098969    0.000115
      2          7           0        0.684947    1.097041    0.000051
      3          6           0        1.982149    0.721765    0.000067
      4          6           0        2.049045   -0.677067    0.000134
      5          7           0        0.809691   -1.205423   -0.000061
      6          1           0        2.780868    1.450347    0.000045
      7          1           0        2.922573   -1.314025    0.000172
      8          1           0       -1.060239    1.717435   -0.000122
      9          6           0       -1.362219   -0.126066   -0.000026
     10          8           0       -1.836503    1.134203    0.000076
     11          8           0       -2.067843   -1.123464   -0.000310
 ---------------------------------------------------------------------
 Rotational constants (GHZ):           5.2190212           1.8360434           1.3582228
 Standard basis: 6-31+G(d,p) (6D, 7F)
 There are   167 symmetry adapted cartesian basis functions of A   symmetry.
 There are   167 symmetry adapted basis functions of A   symmetry.
   167 basis functions,   277 primitive gaussians,   167 cartesian basis functions
    30 alpha electrons       29 beta electrons
       nuclear repulsion energy       362.0505706196 Hartrees.
 NAtoms=   11 NActive=   11 NUniq=   11 SFac= 1.00D+00 NAtFMM=   60 NAOKFM=F Big=F
 Integral buffers will be    131072 words long.
 Raffenetti 2 integral format.
 Two-electron integral symmetry is turned on.
 One-electron integrals computed using PRISM.
 NBasis=   167 RedAO= T EigKep=  2.50D-05  NBF=   167
 NBsUse=   167 1.00D-06 EigRej= -1.00D+00 NBFU=   167
 Initial guess from the checkpoint file:  "/scratch/gongke2021/1-H-Tz-1-eletron/Gau-27586.chk"
 B after Tr=     0.000000    0.000000    0.000000
         Rot=    0.999929   -0.000035    0.000024    0.011940 Ang=  -1.37 deg.
 Initial guess <Sx>= 0.0000 <Sy>= 0.0000 <Sz>= 0.5000 <S**2>= 0.7630 S= 0.5065
 ExpMin= 4.38D-02 ExpMax= 5.48D+03 ExpMxC= 8.25D+02 IAcc=2 IRadAn=         4 AccDes= 0.00D+00
 Harris functional with IExCor= 1009 and IRadAn=       4 diagonalized for initial guess.
 HarFok:  IExCor= 1009 AccDes= 0.00D+00 IRadAn=         4 IDoV= 1 UseB2=F ITyADJ=14
 ICtDFT=  3500011 ScaDFX=  1.000000  1.000000  1.000000  1.000000
 FoFCou: FMM=F IPFlag=           0 FMFlag=      100000 FMFlg1=           0
         NFxFlg=           0 DoJE=T BraDBF=F KetDBF=T FulRan=T
         wScrn=  0.000000 ICntrl=       500 IOpCl=  0 I1Cent=   200000004 NGrid=           0
         NMat0=    1 NMatS0=      1 NMatT0=    0 NMatD0=    1 NMtDS0=    0 NMtDT0=    0
 Petite list used in FoFCou.
 Keep R1 and R2 ints in memory in canonical form, NReq=216648901.
 Requested convergence on RMS density matrix=1.00D-08 within 128 cycles.
 Requested convergence on MAX density matrix=1.00D-06.
 Requested convergence on             energy=1.00D-06.
 No special actions if energy rises.
 SCF Done:  E(UM062X) =  -430.664329543     A.U. after   16 cycles
            NFock= 16  Conv=0.74D-08     -V/T= 2.0079
 <Sx>= 0.0000 <Sy>= 0.0000 <Sz>= 0.5000 <S**2>= 0.7653 S= 0.5076
 <L.S>= 0.000000000000E+00
 Annihilation of the first spin contaminant:
 S**2 before annihilation     0.7653,   after     0.7501
 Calling FoFJK, ICntrl=      2127 FMM=F ISym2X=0 I1Cent= 0 IOpClX= 1 NMat=1 NMatS=1 NMatT=0.
 ***** Axes restored to original set *****
 -------------------------------------------------------------------
 Center     Atomic                   Forces (Hartrees/Bohr)
 Number     Number              X              Y              Z
 -------------------------------------------------------------------
      1        7          -0.013675800   -0.010631252   -0.000014599
      2        7          -0.000987953    0.018010630    0.000001445
      3        6           0.007816365   -0.015396185    0.000011521
      4        6           0.003051387    0.014756341   -0.000019504
      5        7           0.001947023   -0.013368988    0.000021410
      6        1          -0.000993636    0.000312451    0.000002549
      7        1          -0.000304644   -0.000693738   -0.000002768
      8        1           0.005379316    0.004793694    0.000006073
      9        6           0.018517768   -0.004567426   -0.000010996
     10        8          -0.019127997    0.006406861   -0.000004863
     11        8          -0.001621828    0.000377614    0.000009732
 -------------------------------------------------------------------
 Cartesian Forces:  Max     0.019127997 RMS     0.008090729

 GradGradGradGradGradGradGradGradGradGradGradGradGradGradGradGradGradGrad
 Berny optimization.
 Using GEDIIS/GDIIS optimizer.
 FormGI is forming the generalized inverse of G from B-inverse, IUseBI=4.
 Internal  Forces:  Max     0.015479069 RMS     0.005005991
 Search for a local minimum.
 Step number   2 out of a maximum of   54
 All quantities printed in internal units (Hartrees-Bohrs-Radians)
 Mixed Optimization -- RFO/linear search
 Update second derivatives using D2CorX and points    1    2
 DE= -1.19D-02 DEPred=-1.13D-02 R= 1.06D+00
 TightC=F SS=  1.41D+00  RLast= 2.32D-01 DXNew= 5.0454D-01 6.9478D-01
 Trust test= 1.06D+00 RLast= 2.32D-01 DXMaxT set to 5.05D-01
 ITU=  1  0
 Use linear search instead of GDIIS.
     Eigenvalues ---    0.01454   0.01831   0.01871   0.02056   0.02143
     Eigenvalues ---    0.02283   0.02402   0.02752   0.15909   0.16000
     Eigenvalues ---    0.16230   0.22583   0.23693   0.24820   0.25000
     Eigenvalues ---    0.31191   0.35594   0.36066   0.36081   0.43523
     Eigenvalues ---    0.49178   0.53140   0.54868   0.57676   0.59963
     Eigenvalues ---    0.63395   1.03835
 RFO step:  Lambda=-3.10910768D-03 EMin= 1.45410492D-02
 Quartic linear search produced a step of  0.08797.
 Iteration  1 RMS(Cart)=  0.02976004 RMS(Int)=  0.00043908
 Iteration  2 RMS(Cart)=  0.00057648 RMS(Int)=  0.00002333
 Iteration  3 RMS(Cart)=  0.00000035 RMS(Int)=  0.00002333
 Variable       Old X    -DE/DX   Delta X   Delta X   Delta X     New X
                                 (Linear)    (Quad)   (Total)
    R1        2.58921   0.01254   0.00559   0.02930   0.03494   2.62415
    R2        2.57270   0.00934   0.00465   0.02214   0.02682   2.59953
    R3        2.60584  -0.00341  -0.00649  -0.01247  -0.01895   2.58688
    R4        2.55188   0.00780   0.00552   0.01650   0.02202   2.57389
    R5        2.64643  -0.00847  -0.00270  -0.02641  -0.02916   2.61727
    R6        2.04299  -0.00051   0.00025  -0.00137  -0.00112   2.04187
    R7        2.54599   0.00528   0.00487   0.01114   0.01598   2.56197
    R8        2.04297   0.00015   0.00028   0.00060   0.00088   2.04385
    R9        1.83483   0.00719  -0.00096   0.01434   0.01338   1.84821
   R10        2.54463   0.01548   0.00444   0.02985   0.03430   2.57893
   R11        2.30880   0.00060   0.00303   0.00267   0.00569   2.31449
    A1        2.00994  -0.00141  -0.00044   0.00100   0.00062   2.01055
    A2        2.10012   0.00140  -0.00290   0.00089  -0.00204   2.09808
    A3        2.17313   0.00001   0.00334  -0.00189   0.00142   2.17455
    A4        1.79886  -0.00462  -0.00113  -0.01605  -0.01714   1.78172
    A5        1.90019   0.00438   0.00079   0.01371   0.01445   1.91464
    A6        2.12048  -0.00312  -0.00034  -0.01305  -0.01336   2.10711
    A7        2.26252  -0.00126  -0.00045  -0.00066  -0.00109   2.26143
    A8        1.92599   0.00421   0.00230   0.01210   0.01434   1.94033
    A9        2.24862  -0.00135  -0.00117  -0.00102  -0.00216   2.24647
   A10        2.10857  -0.00286  -0.00113  -0.01108  -0.01218   2.09639
   A11        1.78980  -0.00256  -0.00152  -0.01076  -0.01227   1.77753
   A12        1.91109   0.01406  -0.00739   0.05669   0.04930   1.96039
   A13        2.20617  -0.00524   0.00713  -0.01892  -0.01179   2.19437
   A14        2.16593  -0.00882   0.00026  -0.03777  -0.03751   2.12843
   A15        1.85521   0.00087  -0.00953   0.00213  -0.00741   1.84780
    D1       -0.00019   0.00000   0.00006   0.00007   0.00013  -0.00006
    D2       -3.14147  -0.00000   0.00004  -0.00011  -0.00007  -3.14154
    D3        0.00029  -0.00001  -0.00001  -0.00037  -0.00038  -0.00009
    D4        3.14156  -0.00000   0.00000  -0.00019  -0.00018   3.14138
    D5       -0.00023   0.00000   0.00003   0.00001   0.00004  -0.00019
    D6        3.14126   0.00001  -0.00001   0.00039   0.00038  -3.14154
    D7       -3.14148  -0.00000   0.00001  -0.00019  -0.00017   3.14153
    D8        0.00001   0.00000  -0.00003   0.00019   0.00017   0.00018
    D9        0.00000   0.00000  -0.00008   0.00026   0.00018   0.00019
   D10       -3.14157   0.00000  -0.00003   0.00005   0.00002  -3.14155
   D11        0.00018  -0.00001   0.00008  -0.00052  -0.00045  -0.00027
   D12       -3.14158  -0.00000   0.00004  -0.00013  -0.00010   3.14151
   D13       -3.14143  -0.00001   0.00002  -0.00028  -0.00026   3.14149
   D14       -0.00001   0.00000  -0.00002   0.00010   0.00009   0.00008
   D15       -0.00027   0.00001  -0.00004   0.00052   0.00048   0.00021
   D16        3.14147   0.00000  -0.00000   0.00017   0.00017  -3.14155
   D17        0.00037  -0.00000  -0.00004  -0.00003  -0.00007   0.00030
   D18       -3.14113  -0.00001   0.00000  -0.00040  -0.00040  -3.14153
         Item               Value     Threshold  Converged?
 Maximum Force            0.015479     0.000450     NO 
 RMS     Force            0.005006     0.000300     NO 
 Maximum Displacement     0.126229     0.001800     NO 
 RMS     Displacement     0.029918     0.001200     NO 
 Predicted change in Energy=-1.664132D-03
 GradGradGradGradGradGradGradGradGradGradGradGradGradGradGradGradGradGrad

                          Input orientation:                          
 ---------------------------------------------------------------------
 Center     Atomic      Atomic             Coordinates (Angstroms)
 Number     Number       Type             X           Y           Z
 ---------------------------------------------------------------------
      1          7           0        0.001095   -0.097844    0.000045
      2          7           0        0.660555    1.124215    0.000035
      3          6           0        1.968071    0.742678    0.000165
      4          6           0        2.051017   -0.639835   -0.000001
      5          7           0        0.818394   -1.204335    0.000099
      6          1           0        2.758256    1.479641    0.000230
      7          1           0        2.933942   -1.264507   -0.000033
      8          1           0       -1.177450    1.732075   -0.000188
      9          6           0       -1.367104   -0.142238   -0.000134
     10          8           0       -1.926101    1.102734   -0.000068
     11          8           0       -2.049682   -1.159177   -0.000088
 ---------------------------------------------------------------------
                    Distance matrix (angstroms):
                    1          2          3          4          5
     1  N    0.000000
     2  N    1.388638   0.000000
     3  C    2.139035   1.362045   0.000000
     4  C    2.120362   2.246165   1.384999   0.000000
     5  N    1.375610   2.333894   2.261110   1.355736   0.000000
     6  H    3.176538   2.127599   1.080512   2.234360   3.311614
     7  H    3.156374   3.297618   2.227487   1.081560   2.116404
     8  H    2.176596   1.935912   3.297455   4.006115   3.550479
     9  C    1.368919   2.390670   3.450575   3.454150   2.429908
    10  O    2.270566   2.586745   3.910781   4.342121   3.585362
    11  O    2.309137   3.543905   4.445153   4.133454   2.868431
                    6          7          8          9         10
     6  H    0.000000
     7  H    2.749766   0.000000
     8  H    3.943793   5.087539   0.000000
     9  C    4.432729   4.445052   1.883884   0.000000
    10  O    4.699495   5.405909   0.978033   1.364710   0.000000
    11  O    5.484489   4.984737   3.019955   1.224777   2.265284
                   11
    11  O    0.000000
 Stoichiometry    C3H3N3O2(1-,2)
 Framework group  C1[X(C3H3N3O2)]
 Deg. of freedom    27
 Full point group                 C1      NOp   1
 Largest Abelian subgroup         C1      NOp   1
 Largest concise Abelian subgroup C1      NOp   1
                         Standard orientation:                         
 ---------------------------------------------------------------------
 Center     Atomic      Atomic             Coordinates (Angstroms)
 Number     Number       Type             X           Y           Z
 ---------------------------------------------------------------------
      1          7           0        0.017945   -0.098212    0.000042
      2          7           0        0.686399    1.118951    0.000032
      3          6           0        1.991066    0.727782    0.000161
      4          6           0        2.063815   -0.655305   -0.000005
      5          7           0        0.827063   -1.210701    0.000096
      6          1           0        2.786664    1.458897    0.000226
      7          1           0        2.942110   -1.286471   -0.000036
      8          1           0       -1.147073    1.740347   -0.000191
      9          6           0       -1.350544   -0.132516   -0.000137
     10          8           0       -1.900345    1.116544   -0.000071
     11          8           0       -2.040602   -1.144394   -0.000092
 ---------------------------------------------------------------------
 Rotational constants (GHZ):           5.1769980           1.8125094           1.3424920
 Standard basis: 6-31+G(d,p) (6D, 7F)
 There are   167 symmetry adapted cartesian basis functions of A   symmetry.
 There are   167 symmetry adapted basis functions of A   symmetry.
   167 basis functions,   277 primitive gaussians,   167 cartesian basis functions
    30 alpha electrons       29 beta electrons
       nuclear repulsion energy       360.0047662146 Hartrees.
 NAtoms=   11 NActive=   11 NUniq=   11 SFac= 1.00D+00 NAtFMM=   60 NAOKFM=F Big=F
 Integral buffers will be    131072 words long.
 Raffenetti 2 integral format.
 Two-electron integral symmetry is turned on.
 One-electron integrals computed using PRISM.
 NBasis=   167 RedAO= T EigKep=  2.57D-05  NBF=   167
 NBsUse=   167 1.00D-06 EigRej= -1.00D+00 NBFU=   167
 Initial guess from the checkpoint file:  "/scratch/gongke2021/1-H-Tz-1-eletron/Gau-27586.chk"
 B after Tr=    -0.000000   -0.000000    0.000000
         Rot=    0.999983    0.000031   -0.000001   -0.005794 Ang=   0.66 deg.
 Initial guess <Sx>= 0.0000 <Sy>= 0.0000 <Sz>= 0.5000 <S**2>= 0.7652 S= 0.5076
 ExpMin= 4.38D-02 ExpMax= 5.48D+03 ExpMxC= 8.25D+02 IAcc=2 IRadAn=         4 AccDes= 0.00D+00
 Harris functional with IExCor= 1009 and IRadAn=       4 diagonalized for initial guess.
 HarFok:  IExCor= 1009 AccDes= 0.00D+00 IRadAn=         4 IDoV= 1 UseB2=F ITyADJ=14
 ICtDFT=  3500011 ScaDFX=  1.000000  1.000000  1.000000  1.000000
 FoFCou: FMM=F IPFlag=           0 FMFlag=      100000 FMFlg1=           0
         NFxFlg=           0 DoJE=T BraDBF=F KetDBF=T FulRan=T
         wScrn=  0.000000 ICntrl=       500 IOpCl=  0 I1Cent=   200000004 NGrid=           0
         NMat0=    1 NMatS0=      1 NMatT0=    0 NMatD0=    1 NMtDS0=    0 NMtDT0=    0
 Petite list used in FoFCou.
 Keep R1 and R2 ints in memory in canonical form, NReq=216648901.
 Requested convergence on RMS density matrix=1.00D-08 within 128 cycles.
 Requested convergence on MAX density matrix=1.00D-06.
 Requested convergence on             energy=1.00D-06.
 No special actions if energy rises.
 SCF Done:  E(UM062X) =  -430.665820707     A.U. after   16 cycles
            NFock= 16  Conv=0.45D-08     -V/T= 2.0082
 <Sx>= 0.0000 <Sy>= 0.0000 <Sz>= 0.5000 <S**2>= 0.7664 S= 0.5081
 <L.S>= 0.000000000000E+00
 Annihilation of the first spin contaminant:
 S**2 before annihilation     0.7664,   after     0.7501
 Calling FoFJK, ICntrl=      2127 FMM=F ISym2X=0 I1Cent= 0 IOpClX= 1 NMat=1 NMatS=1 NMatT=0.
 ***** Axes restored to original set *****
 -------------------------------------------------------------------
 Center     Atomic                   Forces (Hartrees/Bohr)
 Number     Number              X              Y              Z
 -------------------------------------------------------------------
      1        7          -0.002718991    0.001754148   -0.000006309
      2        7           0.001885929    0.003005585    0.000014895
      3        6          -0.002571228   -0.000681643   -0.000023628
      4        6          -0.001102971    0.000438721    0.000024346
      5        7           0.000628556   -0.001634780   -0.000019616
      6        1          -0.000214577    0.000509723   -0.000002695
      7        1          -0.000309727   -0.000444343    0.000003072
      8        1          -0.001102742   -0.000673282    0.000004412
      9        6           0.000603379   -0.007185813    0.000027401
     10        8           0.003658850    0.001702662   -0.000012534
     11        8           0.001243523    0.003209023   -0.000009345
 -------------------------------------------------------------------
 Cartesian Forces:  Max     0.007185813 RMS     0.001883054

 GradGradGradGradGradGradGradGradGradGradGradGradGradGradGradGradGradGrad
 Berny optimization.
 Using GEDIIS/GDIIS optimizer.
 FormGI is forming the generalized inverse of G from B-inverse, IUseBI=4.
 Internal  Forces:  Max     0.005073033 RMS     0.001462516
 Search for a local minimum.
 Step number   3 out of a maximum of   54
 All quantities printed in internal units (Hartrees-Bohrs-Radians)
 Mixed Optimization -- RFO/linear search
 Update second derivatives using D2CorX and points    1    2    3
 DE= -1.49D-03 DEPred=-1.66D-03 R= 8.96D-01
 TightC=F SS=  1.41D+00  RLast= 1.03D-01 DXNew= 8.4853D-01 3.0756D-01
 Trust test= 8.96D-01 RLast= 1.03D-01 DXMaxT set to 5.05D-01
 ITU=  1  1  0
 Use linear search instead of GDIIS.
     Eigenvalues ---    0.01454   0.01831   0.01862   0.02054   0.02142
     Eigenvalues ---    0.02279   0.02402   0.02752   0.15630   0.16000
     Eigenvalues ---    0.16573   0.21017   0.22594   0.24975   0.25239
     Eigenvalues ---    0.33010   0.34536   0.36063   0.36095   0.44154
     Eigenvalues ---    0.50094   0.54328   0.55035   0.59150   0.60516
     Eigenvalues ---    0.63466   1.04952
 RFO step:  Lambda=-2.23043939D-04 EMin= 1.45410515D-02
 Quartic linear search produced a step of -0.07092.
 Iteration  1 RMS(Cart)=  0.01038039 RMS(Int)=  0.00003107
 Iteration  2 RMS(Cart)=  0.00004011 RMS(Int)=  0.00000196
 Iteration  3 RMS(Cart)=  0.00000000 RMS(Int)=  0.00000196
 Variable       Old X    -DE/DX   Delta X   Delta X   Delta X     New X
                                 (Linear)    (Quad)   (Total)
    R1        2.62415   0.00162  -0.00248   0.00806   0.00558   2.62972
    R2        2.59953   0.00020  -0.00190   0.00447   0.00256   2.60208
    R3        2.58688  -0.00430   0.00134  -0.01188  -0.01053   2.57635
    R4        2.57389  -0.00222  -0.00156  -0.00063  -0.00219   2.57171
    R5        2.61727   0.00065   0.00207  -0.00351  -0.00144   2.61583
    R6        2.04187   0.00019   0.00008   0.00028   0.00035   2.04223
    R7        2.56197  -0.00124  -0.00113  -0.00001  -0.00115   2.56082
    R8        2.04385   0.00000  -0.00006   0.00011   0.00005   2.04390
    R9        1.84821  -0.00128  -0.00095   0.00010  -0.00085   1.84737
   R10        2.57893  -0.00011  -0.00243   0.00504   0.00260   2.58153
   R11        2.31449  -0.00336  -0.00040  -0.00263  -0.00304   2.31145
    A1        2.01055   0.00155  -0.00004   0.00692   0.00688   2.01743
    A2        2.09808  -0.00101   0.00014  -0.00412  -0.00397   2.09411
    A3        2.17455  -0.00053  -0.00010  -0.00280  -0.00290   2.17165
    A4        1.78172  -0.00172   0.00122  -0.00924  -0.00803   1.77370
    A5        1.91464   0.00105  -0.00102   0.00581   0.00479   1.91943
    A6        2.10711  -0.00106   0.00095  -0.00715  -0.00621   2.10090
    A7        2.26143   0.00001   0.00008   0.00134   0.00142   2.26285
    A8        1.94033   0.00072  -0.00102   0.00416   0.00315   1.94348
    A9        2.24647   0.00019   0.00015   0.00209   0.00224   2.24871
   A10        2.09639  -0.00091   0.00086  -0.00625  -0.00539   2.09100
   A11        1.77753  -0.00160   0.00087  -0.00765  -0.00679   1.77074
   A12        1.96039  -0.00507  -0.00350  -0.00980  -0.01330   1.94709
   A13        2.19437   0.00341   0.00084   0.00984   0.01068   2.20505
   A14        2.12843   0.00166   0.00266  -0.00004   0.00262   2.13105
   A15        1.84780   0.00036   0.00053   0.00279   0.00332   1.85112
    D1       -0.00006   0.00000  -0.00001   0.00012   0.00011   0.00005
    D2       -3.14154   0.00000   0.00000   0.00016   0.00017  -3.14137
    D3       -0.00009   0.00001   0.00003   0.00017   0.00020   0.00011
    D4        3.14138   0.00000   0.00001   0.00013   0.00014   3.14151
    D5       -0.00019   0.00001  -0.00000   0.00027   0.00027   0.00008
    D6       -3.14154  -0.00001  -0.00003  -0.00035  -0.00038   3.14127
    D7        3.14153   0.00001   0.00001   0.00032   0.00033  -3.14132
    D8        0.00018  -0.00001  -0.00001  -0.00030  -0.00031  -0.00013
    D9        0.00019  -0.00001  -0.00001  -0.00036  -0.00037  -0.00018
   D10       -3.14155  -0.00000  -0.00000  -0.00008  -0.00008   3.14155
   D11       -0.00027   0.00001   0.00003   0.00051   0.00054   0.00027
   D12        3.14151   0.00001   0.00001   0.00019   0.00019  -3.14148
   D13        3.14149   0.00001   0.00002   0.00020   0.00021  -3.14148
   D14        0.00008  -0.00000  -0.00001  -0.00012  -0.00013  -0.00005
   D15        0.00021  -0.00001  -0.00003  -0.00040  -0.00043  -0.00022
   D16       -3.14155  -0.00000  -0.00001  -0.00011  -0.00012   3.14152
   D17        0.00030  -0.00001   0.00000  -0.00045  -0.00045  -0.00014
   D18       -3.14153   0.00000   0.00003   0.00014   0.00017  -3.14136
         Item               Value     Threshold  Converged?
 Maximum Force            0.005073     0.000450     NO 
 RMS     Force            0.001463     0.000300     NO 
 Maximum Displacement     0.042022     0.001800     NO 
 RMS     Displacement     0.010403     0.001200     NO 
 Predicted change in Energy=-1.205529D-04
 GradGradGradGradGradGradGradGradGradGradGradGradGradGradGradGradGradGrad

                          Input orientation:                          
 ---------------------------------------------------------------------
 Center     Atomic      Atomic             Coordinates (Angstroms)
 Number     Number       Type             X           Y           Z
 ---------------------------------------------------------------------
      1          7           0       -0.000117   -0.100940    0.000139
      2          7           0        0.653136    1.127790    0.000183
      3          6           0        1.958843    0.744194    0.000014
      4          6           0        2.045840   -0.637305    0.000117
      5          7           0        0.817240   -1.209072    0.000013
      6          1           0        2.745927    1.484742   -0.000036
      7          1           0        2.929238   -1.261357    0.000125
      8          1           0       -1.155213    1.727387    0.000000
      9          6           0       -1.362643   -0.148191    0.000013
     10          8           0       -1.908375    1.104156   -0.000152
     11          8           0       -2.052883   -1.157998   -0.000355
 ---------------------------------------------------------------------
                    Distance matrix (angstroms):
                    1          2          3          4          5
     1  N    0.000000
     2  N    1.391588   0.000000
     3  C    2.133490   1.360888   0.000000
     4  C    2.115096   2.248374   1.384236   0.000000
     5  N    1.376964   2.342617   2.262412   1.355130   0.000000
     6  H    3.170985   2.123014   1.080700   2.234549   3.313076
     7  H    3.150823   3.299797   2.227981   1.081587   2.112645
     8  H    2.162643   1.905162   3.265580   3.979762   3.537423
     9  C    1.363345   2.385686   3.439276   3.443398   2.424326
    10  O    2.256923   2.561620   3.883934   4.320706   3.574912
    11  O    2.308943   3.542227   4.439851   4.131665   2.870577
                    6          7          8          9         10
     6  H    0.000000
     7  H    2.752210   0.000000
     8  H    3.908679   5.061158   0.000000
     9  C    4.421179   4.433890   1.887013   0.000000
    10  O    4.669836   5.384992   0.977584   1.366088   0.000000
    11  O    5.478381   4.983193   3.021797   1.223169   2.266765
                   11
    11  O    0.000000
 Stoichiometry    C3H3N3O2(1-,2)
 Framework group  C1[X(C3H3N3O2)]
 Deg. of freedom    27
 Full point group                 C1      NOp   1
 Largest Abelian subgroup         C1      NOp   1
 Largest concise Abelian subgroup C1      NOp   1
                         Standard orientation:                         
 ---------------------------------------------------------------------
 Center     Atomic      Atomic             Coordinates (Angstroms)
 Number     Number       Type             X           Y           Z
 ---------------------------------------------------------------------
      1          7           0        0.016592   -0.101049    0.000153
      2          7           0        0.681757    1.121275    0.000196
      3          6           0        1.983674    0.725006    0.000027
      4          6           0        2.057240   -0.657274    0.000130
      5          7           0        0.823140   -1.217072    0.000026
      6          1           0        2.777918    1.457869   -0.000023
      7          1           0        2.934530   -1.289881    0.000138
      8          1           0       -1.120679    1.738418    0.000013
      9          6           0       -1.346329   -0.135055    0.000026
     10          8           0       -1.879863    1.122537   -0.000139
     11          8           0       -2.046350   -1.138106   -0.000342
 ---------------------------------------------------------------------
 Rotational constants (GHZ):           5.1625647           1.8256864           1.3487243
 Standard basis: 6-31+G(d,p) (6D, 7F)
 There are   167 symmetry adapted cartesian basis functions of A   symmetry.
 There are   167 symmetry adapted basis functions of A   symmetry.
   167 basis functions,   277 primitive gaussians,   167 cartesian basis functions
    30 alpha electrons       29 beta electrons
       nuclear repulsion energy       360.4913960265 Hartrees.
 NAtoms=   11 NActive=   11 NUniq=   11 SFac= 1.00D+00 NAtFMM=   60 NAOKFM=F Big=F
 Integral buffers will be    131072 words long.
 Raffenetti 2 integral format.
 Two-electron integral symmetry is turned on.
 One-electron integrals computed using PRISM.
 NBasis=   167 RedAO= T EigKep=  2.55D-05  NBF=   167
 NBsUse=   167 1.00D-06 EigRej= -1.00D+00 NBFU=   167
 Initial guess from the checkpoint file:  "/scratch/gongke2021/1-H-Tz-1-eletron/Gau-27586.chk"
 B after Tr=    -0.000000    0.000000   -0.000000
         Rot=    0.999999   -0.000019    0.000013    0.001335 Ang=  -0.15 deg.
 Initial guess <Sx>= 0.0000 <Sy>= 0.0000 <Sz>= 0.5000 <S**2>= 0.7663 S= 0.5081
 ExpMin= 4.38D-02 ExpMax= 5.48D+03 ExpMxC= 8.25D+02 IAcc=2 IRadAn=         4 AccDes= 0.00D+00
 Harris functional with IExCor= 1009 and IRadAn=       4 diagonalized for initial guess.
 HarFok:  IExCor= 1009 AccDes= 0.00D+00 IRadAn=         4 IDoV= 1 UseB2=F ITyADJ=14
 ICtDFT=  3500011 ScaDFX=  1.000000  1.000000  1.000000  1.000000
 FoFCou: FMM=F IPFlag=           0 FMFlag=      100000 FMFlg1=           0
         NFxFlg=           0 DoJE=T BraDBF=F KetDBF=T FulRan=T
         wScrn=  0.000000 ICntrl=       500 IOpCl=  0 I1Cent=   200000004 NGrid=           0
         NMat0=    1 NMatS0=      1 NMatT0=    0 NMatD0=    1 NMtDS0=    0 NMtDT0=    0
 Petite list used in FoFCou.
 Keep R1 and R2 ints in memory in canonical form, NReq=216648901.
 Requested convergence on RMS density matrix=1.00D-08 within 128 cycles.
 Requested convergence on MAX density matrix=1.00D-06.
 Requested convergence on             energy=1.00D-06.
 No special actions if energy rises.
 SCF Done:  E(UM062X) =  -430.665898169     A.U. after   13 cycles
            NFock= 13  Conv=0.67D-08     -V/T= 2.0081
 <Sx>= 0.0000 <Sy>= 0.0000 <Sz>= 0.5000 <S**2>= 0.7664 S= 0.5082
 <L.S>= 0.000000000000E+00
 Annihilation of the first spin contaminant:
 S**2 before annihilation     0.7664,   after     0.7501
 Calling FoFJK, ICntrl=      2127 FMM=F ISym2X=0 I1Cent= 0 IOpClX= 1 NMat=1 NMatS=1 NMatT=0.
 ***** Axes restored to original set *****
 -------------------------------------------------------------------
 Center     Atomic                   Forces (Hartrees/Bohr)
 Number     Number              X              Y              Z
 -------------------------------------------------------------------
      1        7          -0.001278389   -0.000242981    0.000006068
      2        7           0.002540605   -0.000922886   -0.000013219
      3        6          -0.000371428    0.001279793    0.000023244
      4        6           0.000615207   -0.001227593   -0.000022526
      5        7           0.000627006    0.001391689    0.000019833
      6        1           0.000193496    0.000075368    0.000003168
      7        1           0.000130784    0.000007456   -0.000003458
      8        1          -0.000583749   -0.000639173   -0.000001766
      9        6          -0.002259082   -0.001447123   -0.000047899
     10        8          -0.000250746    0.000305581    0.000015989
     11        8           0.000636298    0.001419870    0.000020568
 -------------------------------------------------------------------
 Cartesian Forces:  Max     0.002540605 RMS     0.000880426

 GradGradGradGradGradGradGradGradGradGradGradGradGradGradGradGradGradGrad
 Berny optimization.
 Using GEDIIS/GDIIS optimizer.
 FormGI is forming the generalized inverse of G from B-inverse, IUseBI=4.
 Internal  Forces:  Max     0.002469116 RMS     0.000795013
 Search for a local minimum.
 Step number   4 out of a maximum of   54
 All quantities printed in internal units (Hartrees-Bohrs-Radians)
 Mixed Optimization -- En-DIIS/RFO-DIIS
 Update second derivatives using D2CorX and points    1    2    3    4
 DE= -7.75D-05 DEPred=-1.21D-04 R= 6.43D-01
 TightC=F SS=  1.41D+00  RLast= 2.78D-02 DXNew= 8.4853D-01 8.3426D-02
 Trust test= 6.43D-01 RLast= 2.78D-02 DXMaxT set to 5.05D-01
 ITU=  1  1  1  0
 Use linear search instead of GDIIS.
     Eigenvalues ---    0.01454   0.01833   0.01858   0.02053   0.02141
     Eigenvalues ---    0.02277   0.02401   0.02752   0.15466   0.16000
     Eigenvalues ---    0.16410   0.21652   0.22692   0.24861   0.28729
     Eigenvalues ---    0.32699   0.35321   0.36057   0.36131   0.44890
     Eigenvalues ---    0.52789   0.54987   0.57194   0.59695   0.62954
     Eigenvalues ---    0.63099   1.02038
 RFO step:  Lambda=-2.94648966D-05 EMin= 1.45410557D-02
 Quartic linear search produced a step of -0.26388.
 Iteration  1 RMS(Cart)=  0.00366011 RMS(Int)=  0.00000400
 Iteration  2 RMS(Cart)=  0.00000418 RMS(Int)=  0.00000104
 Iteration  3 RMS(Cart)=  0.00000000 RMS(Int)=  0.00000104
 Variable       Old X    -DE/DX   Delta X   Delta X   Delta X     New X
                                 (Linear)    (Quad)   (Total)
    R1        2.62972   0.00114  -0.00147   0.00303   0.00156   2.63128
    R2        2.60208   0.00024  -0.00068   0.00092   0.00025   2.60233
    R3        2.57635   0.00247   0.00278   0.00031   0.00309   2.57944
    R4        2.57171  -0.00032   0.00058  -0.00146  -0.00089   2.57082
    R5        2.61583   0.00047   0.00038   0.00064   0.00102   2.61685
    R6        2.04223   0.00019  -0.00009   0.00055   0.00045   2.04268
    R7        2.56082   0.00026   0.00030  -0.00030  -0.00000   2.56082
    R8        2.04390   0.00010  -0.00001   0.00021   0.00020   2.04411
    R9        1.84737  -0.00086   0.00022  -0.00178  -0.00155   1.84581
   R10        2.58153   0.00003  -0.00069   0.00049  -0.00020   2.58133
   R11        2.31145  -0.00153   0.00080  -0.00223  -0.00143   2.31003
    A1        2.01743  -0.00212  -0.00181  -0.00329  -0.00510   2.01233
    A2        2.09411   0.00216   0.00105   0.00449   0.00554   2.09965
    A3        2.17165  -0.00004   0.00077  -0.00121  -0.00044   2.17121
    A4        1.77370   0.00149   0.00212   0.00160   0.00372   1.77742
    A5        1.91943  -0.00039  -0.00126   0.00023  -0.00103   1.91840
    A6        2.10090   0.00027   0.00164  -0.00112   0.00052   2.10142
    A7        2.26285   0.00012  -0.00037   0.00089   0.00051   2.26337
    A8        1.94348  -0.00054  -0.00083  -0.00076  -0.00159   1.94188
    A9        2.24871   0.00018  -0.00059   0.00137   0.00078   2.24949
   A10        2.09100   0.00035   0.00142  -0.00061   0.00081   2.09181
   A11        1.77074   0.00156   0.00179   0.00222   0.00401   1.77475
   A12        1.94709   0.00119   0.00351  -0.00280   0.00071   1.94779
   A13        2.20505  -0.00028  -0.00282   0.00373   0.00091   2.20596
   A14        2.13105  -0.00091  -0.00069  -0.00092  -0.00162   2.12943
   A15        1.85112  -0.00022  -0.00088  -0.00001  -0.00088   1.85024
    D1        0.00005  -0.00000  -0.00003  -0.00003  -0.00005  -0.00001
    D2       -3.14137  -0.00001  -0.00004  -0.00014  -0.00019  -3.14156
    D3        0.00011  -0.00001  -0.00005  -0.00008  -0.00014  -0.00003
    D4        3.14151  -0.00000  -0.00004   0.00004   0.00000   3.14152
    D5        0.00008  -0.00001  -0.00007  -0.00022  -0.00029  -0.00021
    D6        3.14127   0.00002   0.00010   0.00045   0.00055  -3.14137
    D7       -3.14132  -0.00001  -0.00009  -0.00035  -0.00043   3.14143
    D8       -0.00013   0.00001   0.00008   0.00032   0.00040   0.00027
    D9       -0.00018   0.00001   0.00010   0.00013   0.00022   0.00004
   D10        3.14155   0.00000   0.00002   0.00003   0.00005  -3.14158
   D11        0.00027  -0.00001  -0.00014  -0.00019  -0.00034  -0.00007
   D12       -3.14148  -0.00001  -0.00005  -0.00007  -0.00012   3.14158
   D13       -3.14148  -0.00001  -0.00006  -0.00009  -0.00015   3.14156
   D14       -0.00005   0.00000   0.00003   0.00003   0.00007   0.00001
   D15       -0.00022   0.00001   0.00011   0.00016   0.00028   0.00006
   D16        3.14152   0.00000   0.00003   0.00005   0.00008  -3.14158
   D17       -0.00014   0.00001   0.00012   0.00029   0.00041   0.00027
   D18       -3.14136  -0.00001  -0.00004  -0.00034  -0.00038   3.14145
         Item               Value     Threshold  Converged?
 Maximum Force            0.002469     0.000450     NO 
 RMS     Force            0.000795     0.000300     NO 
 Maximum Displacement     0.012639     0.001800     NO 
 RMS     Displacement     0.003658     0.001200     NO 
 Predicted change in Energy=-2.641280D-05
 GradGradGradGradGradGradGradGradGradGradGradGradGradGradGradGradGradGrad

                          Input orientation:                          
 ---------------------------------------------------------------------
 Center     Atomic      Atomic             Coordinates (Angstroms)
 Number     Number       Type             X           Y           Z
 ---------------------------------------------------------------------
      1          7           0       -0.000961   -0.098773   -0.000055
      2          7           0        0.657573    1.128072    0.000001
      3          6           0        1.962727    0.744260    0.000108
      4          6           0        2.047960   -0.637890    0.000059
      5          7           0        0.817709   -1.206097    0.000003
      6          1           0        2.750567    1.484353    0.000189
      7          1           0        2.930142   -1.263842    0.000104
      8          1           0       -1.161901    1.726554   -0.000069
      9          6           0       -1.365046   -0.148204   -0.000208
     10          8           0       -1.913568    1.102808   -0.000021
     11          8           0       -2.054207   -1.157835   -0.000051
 ---------------------------------------------------------------------
                    Distance matrix (angstroms):
                    1          2          3          4          5
     1  N    0.000000
     2  N    1.392413   0.000000
[...]
    R7        2.56017  -0.00006   0.00000  -0.00014  -0.00014   2.56003
    R8        2.04404  -0.00001   0.00000  -0.00003  -0.00003   2.04401
    R9        1.84528  -0.00001   0.00000   0.00000   0.00000   1.84528
   R10        2.58188   0.00009   0.00000   0.00030   0.00030   2.58218
   R11        2.30927  -0.00008   0.00000  -0.00010  -0.00010   2.30917
    A1        2.01237  -0.00001   0.00000  -0.00009  -0.00009   2.01228
    A2        2.09975  -0.00002   0.00000  -0.00007  -0.00007   2.09968
    A3        2.17107   0.00003   0.00000   0.00016   0.00016   2.17123
    A4        1.77720  -0.00000   0.00000  -0.00002  -0.00002   1.77718
    A5        1.91882   0.00001   0.00000   0.00008   0.00008   1.91890
    A6        2.10105   0.00002   0.00000   0.00026   0.00026   2.10132
    A7        2.26332  -0.00003   0.00000  -0.00035  -0.00035   2.26297
    A8        1.94143   0.00003   0.00000   0.00002   0.00002   1.94145
    A9        2.24979  -0.00003   0.00000  -0.00023  -0.00023   2.24956
   A10        2.09196   0.00001   0.00000   0.00021   0.00021   2.09217
   A11        1.77496  -0.00002   0.00000   0.00001   0.00001   1.77497
   A12        1.94808   0.00001   0.00000   0.00005   0.00005   1.94812
   A13        2.20542  -0.00000   0.00000   0.00003   0.00003   2.20545
   A14        2.12969  -0.00001   0.00000  -0.00007  -0.00007   2.12961
   A15        1.85164  -0.00007   0.00000  -0.00035  -0.00035   1.85128
    D1        0.00000  -0.00000   0.00000  -0.00000  -0.00000  -0.00000
    D2       -3.14144  -0.00001   0.00000  -0.00015  -0.00015   3.14159
    D3        0.00005  -0.00000   0.00000  -0.00005  -0.00005   0.00000
    D4        3.14149   0.00000   0.00000   0.00011   0.00011  -3.14159
    D5        0.00040  -0.00003   0.00000  -0.00040  -0.00040  -0.00000
    D6        3.14105   0.00003   0.00000   0.00054   0.00054  -3.14159
    D7       -3.14103  -0.00003   0.00000  -0.00057  -0.00057   3.14159
    D8       -0.00038   0.00003   0.00000   0.00038   0.00038   0.00000
    D9       -0.00006   0.00000   0.00000   0.00006   0.00006  -0.00000
   D10        3.14159   0.00000   0.00000   0.00001   0.00001  -3.14159
   D11        0.00009  -0.00000   0.00000  -0.00009  -0.00009   0.00000
   D12       -3.14156  -0.00000   0.00000  -0.00003  -0.00003   3.14159
   D13       -3.14155  -0.00000   0.00000  -0.00004  -0.00004   3.14159
   D14       -0.00002   0.00000   0.00000   0.00002   0.00002  -0.00000
   D15       -0.00008   0.00000   0.00000   0.00008   0.00008  -0.00000
   D16        3.14157   0.00000   0.00000   0.00003   0.00003  -3.14159
   D17       -0.00045   0.00003   0.00000   0.00046   0.00046   0.00000
   D18       -3.14115  -0.00003   0.00000  -0.00044  -0.00044  -3.14159
         Item               Value     Threshold  Converged?
 Maximum Force            0.000156     0.000450     YES
 RMS     Force            0.000040     0.000300     YES
 Maximum Displacement     0.000576     0.001800     YES
 RMS     Displacement     0.000232     0.001200     YES
 Predicted change in Energy=-1.449840D-07
 Optimization completed.
    -- Stationary point found.
                           ----------------------------
                           !   Optimized Parameters   !
                           ! (Angstroms and Degrees)  !
 --------------------------                            --------------------------
 ! Name  Definition              Value          Derivative Info.                !
 --------------------------------------------------------------------------------
 ! R1    R(1,2)                  1.3926         -DE/DX =    0.0001              !
 ! R2    R(1,5)                  1.3771         -DE/DX =   -0.0001              !
 ! R3    R(1,9)                  1.3653         -DE/DX =   -0.0001              !
 ! R4    R(2,3)                  1.3598         -DE/DX =   -0.0002              !
 ! R5    R(3,4)                  1.3853         -DE/DX =    0.0                 !
 ! R6    R(3,6)                  1.0809         -DE/DX =    0.0                 !
 ! R7    R(4,5)                  1.3548         -DE/DX =   -0.0001              !
 ! R8    R(4,7)                  1.0817         -DE/DX =    0.0                 !
 ! R9    R(8,10)                 0.9765         -DE/DX =    0.0                 !
 ! R10   R(9,10)                 1.3663         -DE/DX =    0.0001              !
 ! R11   R(9,11)                 1.222          -DE/DX =   -0.0001              !
 ! A1    A(2,1,5)              115.3002         -DE/DX =    0.0                 !
 ! A2    A(2,1,9)              120.3066         -DE/DX =    0.0                 !
 ! A3    A(5,1,9)              124.3932         -DE/DX =    0.0                 !
 ! A4    A(1,2,3)              101.8259         -DE/DX =    0.0                 !
 ! A5    A(2,3,4)              109.94           -DE/DX =    0.0                 !
 ! A6    A(2,3,6)              120.3813         -DE/DX =    0.0                 !
 ! A7    A(4,3,6)              129.6786         -DE/DX =    0.0                 !
 ! A8    A(3,4,5)              111.236          -DE/DX =    0.0                 !
 ! A9    A(3,4,7)              128.9033         -DE/DX =    0.0                 !
 ! A10   A(5,4,7)              119.8606         -DE/DX =    0.0                 !
 ! A11   A(1,5,4)              101.6978         -DE/DX =    0.0                 !
 ! A12   A(1,9,10)             111.6166         -DE/DX =    0.0                 !
 ! A13   A(1,9,11)             126.3614         -DE/DX =    0.0                 !
 ! A14   A(10,9,11)            122.022          -DE/DX =    0.0                 !
 ! A15   A(8,10,9)             106.0909         -DE/DX =   -0.0001              !
 ! D1    D(5,1,2,3)              0.0003         -DE/DX =    0.0                 !
 ! D2    D(9,1,2,3)            180.0087         -DE/DX =    0.0                 !
 ! D3    D(2,1,5,4)              0.0027         -DE/DX =    0.0                 !
 ! D4    D(9,1,5,4)           -180.0061         -DE/DX =    0.0                 !
 ! D5    D(2,1,9,10)             0.0231         -DE/DX =    0.0                 !
 ! D6    D(2,1,9,11)          -180.031          -DE/DX =    0.0                 !
 ! D7    D(5,1,9,10)           180.0323         -DE/DX =    0.0                 !
 ! D8    D(5,1,9,11)            -0.0217         -DE/DX =    0.0                 !
 ! D9    D(1,2,3,4)             -0.0032         -DE/DX =    0.0                 !
 ! D10   D(1,2,3,6)           -180.0004         -DE/DX =    0.0                 !
 ! D11   D(2,3,4,5)              0.0053         -DE/DX =    0.0                 !
 ! D12   D(2,3,4,7)            180.0018         -DE/DX =    0.0                 !
 ! D13   D(6,3,4,5)            180.0022         -DE/DX =    0.0                 !
 ! D14   D(6,3,4,7)             -0.0013         -DE/DX =    0.0                 !
 ! D15   D(3,4,5,1)             -0.0047         -DE/DX =    0.0                 !
 ! D16   D(7,4,5,1)           -180.0015         -DE/DX =    0.0                 !
 ! D17   D(1,9,10,8)            -0.0259         -DE/DX =    0.0                 !
 ! D18   D(11,9,10,8)         -179.9746         -DE/DX =    0.0                 !
 --------------------------------------------------------------------------------
 GradGradGradGradGradGradGradGradGradGradGradGradGradGradGradGradGradGrad


 ----------------------------------------------------------------------

 Electric dipole moment (input orientation):
 (Debye = 10**-18 statcoulomb cm , SI units = C m)
                  (au)            (Debye)         (10**-30 SI)
   Tot        0.163197D+01      0.414805D+01      0.138364D+02
   x          0.123322D+01      0.313454D+01      0.104557D+02
   y          0.106887D+01      0.271679D+01      0.906224D+01
   z          0.407650D-03      0.103614D-02      0.345620D-02

 Dipole polarizability, Alpha (input orientation).
 (esu units = cm**3 , SI units = C**2 m**2 J**-1)
 Alpha(0;0):
               (au)            (10**-24 esu)      (10**-40 SI)
   iso        0.796109D+02      0.117971D+02      0.131261D+02
   aniso      0.531038D+02      0.786916D+01      0.875563D+01
   xx         0.109809D+03      0.162720D+02      0.181050D+02
   yx         0.548272D+01      0.812455D+00      0.903978D+00
   yy         0.795452D+02      0.117874D+02      0.131152D+02
   zx         0.787831D-02      0.116744D-02      0.129896D-02
   zy         0.199869D-02      0.296176D-03      0.329540D-03
   zz         0.494785D+02      0.733196D+01      0.815791D+01

 ----------------------------------------------------------------------

 Dipole orientation:
     7          0.09155002         -0.10634496         -0.12299260
     7         -0.52160686          0.60198028          2.33629014
     6          0.89553309         -1.03205032          3.72380639
     6          2.25776275         -2.60424393          2.13447706
     7          1.79102378         -2.06674603         -0.32473263
     1          0.84231498         -0.96976110          5.76484615
     1          3.55856487         -4.10460714          2.61915765
     1         -2.55893356          2.95295148          0.47671074
     6         -0.96856337          1.11611462         -2.13267105
     8         -2.58286541          2.98044726         -1.36820751
     8         -0.58186460          0.67069174         -4.36533569

 Electric dipole moment (dipole orientation):
 (Debye = 10**-18 statcoulomb cm , SI units = C m)
                  (au)            (Debye)         (10**-30 SI)
   Tot        0.163197D+01      0.414805D+01      0.138364D+02
   x          0.000000D+00      0.000000D+00      0.000000D+00
   y          0.000000D+00      0.000000D+00      0.000000D+00
   z          0.163197D+01      0.414805D+01      0.138364D+02

 Dipole polarizability, Alpha (dipole orientation).
 (esu units = cm**3 , SI units = C**2 m**2 J**-1)
 Alpha(0;0):
               (au)            (10**-24 esu)      (10**-40 SI)
   iso        0.796109D+02      0.117971D+02      0.131261D+02
   aniso      0.531038D+02      0.786916D+01      0.875563D+01
   xx         0.656169D+02      0.972343D+01      0.108188D+02
   yx        -0.186201D+02     -0.275921D+01     -0.307003D+01
   yy         0.709619D+02      0.105155D+02      0.117000D+02
   zx         0.930452D+01      0.137879D+01      0.153411D+01
   zy        -0.107262D+02     -0.158946D+01     -0.176851D+01
   zz         0.102254D+03      0.151525D+02      0.168594D+02

 ----------------------------------------------------------------------
 1\1\GINC-NODE3\Freq\UM062X\6-31+G(d,p)\C3H3N3O2(1-,2)\GONGKE2021\06-Ma
 y-2023\0\\#N Geom=AllCheck Guess=TCheck SCRF=Check GenChk UM062X/6-31+
 G(d,p) Freq\\"Sketch 2"\\-1,2\N,-0.000548399,-0.0987402283,0.000232455
 7\N,0.6581730701,1.1282461976,0.0002506954\C,1.9626668663,0.7442197896
 ,0.0000812205\C,2.0481147279,-0.6384784991,0.0000439161\N,0.8179988323
 ,-1.2061501075,0.000068885\H,2.7504468109,1.4843800979,0.0000432611\H,
 2.930164278,-1.2645561976,-0.0000510461\H,-1.1636427003,1.7277344153,-
 0.000123932\C,-1.3649958582,-0.1482221525,0.000196892\O,-1.9140253871,
 1.1028844455,-0.0003275963\O,-2.0533582408,-1.1579117609,-0.0003537514
 \\Version=ES64L-G16RevA.03\State=2-A\HF=-430.6659267\S2=0.766365\S2-1=
 0.\S2A=0.750125\RMSD=1.670e-09\RMSF=6.918e-05\ZeroPoint=0.0720898\Ther
 mal=0.0783729\Dipole=1.2332248,1.0688685,0.0004077\DipoleDeriv=-0.8584
 532,-0.068689,-0.0002004,-0.0170879,-0.0943674,0.0000271,-0.0005278,0.
 0000153,-0.0828867,-0.460789,0.5963034,-0.0000327,-0.195105,-0.7163534
 ,-0.00004,-0.0000688,-0.000127,-0.2229625,0.0515422,-0.4642418,-0.0000
 245,-0.0489997,0.1664192,-0.0000252,0.0000073,0.0000904,-0.3061242,0.1
 135088,0.3968497,-0.0000206,0.0588958,0.3434553,0.0000716,-0.0000336,0
 .0000449,-0.2540882,-0.3833002,-0.4652133,-0.0000447,0.261754,-0.64367
 73,-0.0000075,0.0000025,-0.0000194,-0.2176279,-0.0667875,-0.1007666,0.
 0000072,-0.1197389,-0.0084715,0.0000026,0.0000269,-0.0000125,0.1984751
 ,-0.0987019,0.0954633,0.000018,0.1154547,0.0202797,-0.0000189,0.000059
 3,-0.0000076,0.1816261,0.4223282,-0.116624,-0.0000052,-0.0449189,0.305
 0899,0.0000202,-0.0000759,0.0000349,0.3037244,2.7371877,0.3008804,0.00
 02991,0.5696318,1.841582,-0.0000539,0.0027681,0.0001015,0.3186569,-0.8
 587742,0.2632049,0.0000252,0.6820479,-1.0859723,0.0000184,-0.0007203,0
 .0002458,-0.4399325,-1.5977608,-0.4371669,-0.0000214,-1.2619338,-1.127
 9842,0.0000058,-0.0014376,-0.0003663,-0.4788604\Polar=109.8089339,5.48
 27169,79.5452012,0.0078783,0.0019987,49.4785293\Quadrupole=-4.7084331,
 -0.4916073,5.2000404,-2.5938864,-0.0035095,-0.0007666\PG=C01 [X(C3H3N3
 O2)]\NImag=0\\0.88247911,-0.00862513,0.56815189,0.00004640,0.00002564,
 0.06905513,-0.11725467,-0.07110491,0.00000031,0.52380513,-0.00472695,-
 0.19052584,-0.00003002,-0.05881611,0.38738190,0.00001190,0.00000143,-0
 .03529853,-0.00004074,0.00001653,0.05625935,-0.09081455,-0.04099845,0.
 00000974,-0.29402873,0.05059273,0.00002961,0.69098432,-0.02642488,-0.0
 1512080,0.00000338,0.09708367,-0.12042388,-0.00001271,0.13160987,0.763
 89710,0.00000387,0.00000214,0.00297623,0.00003500,-0.00000569,-0.04075
 183,-0.00005379,0.00001514,0.09469292,-0.10306604,0.03242366,0.0000101
 1,-0.06131998,0.03522706,0.00000817,-0.05708380,0.03152408,0.00000056,
 0.72744039,0.01755952,-0.00680048,-0.00000232,0.06922572,-0.03338363,-
 0.00000869,0.02278410,-0.36365520,-0.00001144,-0.14795619,0.72421419,0
 .00000911,0.00000011,0.00311059,0.00000660,-0.00000449,0.02061160,0.00
 000593,-0.00001096,-0.05688624,-0.00005465,0.00004005,0.10441444,-0.13
 607125,0.08977308,0.00001103,0.01103177,0.00913940,-0.00000434,-0.0448
 0015,-0.07965306,0.00000417,-0.26975627,-0.10906812,0.00000922,0.48862
 410,0.01763000,-0.19153320,0.00000851,0.00364148,-0.05277132,0.0000040
 9,-0.03913922,-0.05095888,-0.00000443,-0.06859029,-0.14047584,-0.00000
 556,0.05819823,0.41378843,0.00001357,-0.00002381,-0.03455914,0.0000049
 9,-0.00001286,-0.00147816,-0.00000480,0.00000495,0.02325706,0.00001352
 ,-0.00000301,-0.04615334,-0.00003140,0.00002789,0.05993438,-0.00773924
 ,0.00133480,0.00000101,-0.01543960,-0.02209690,-0.00000029,-0.20940541
 ,-0.14694272,0.00001146,0.00763665,0.00419094,-0.00000055,0.00005647,0
 .00301665,0.00000092,0.22511210,0.00501148,-0.00117785,-0.00000138,0.0
 0635925,0.01069468,0.00000017,-0.15207601,-0.20360284,0.00000682,-0.02
 431927,-0.00523152,0.00000065,0.00082581,-0.00428870,0.00000045,0.1633
 7414,0.20317289,-0.00000038,-0.00000097,0.00504572,0.00000220,0.000003
 94,-0.00584483,0.00000916,0.00000409,-0.02065784,0.00000060,0.00000105
 ,-0.00170698,-0.00000142,-0.00000242,0.00659272,-0.00001216,-0.0000066
 0,0.01811258,-0.00742208,-0.00148161,-0.00000002,0.00035319,-0.0023582
 9,0.00000057,0.00500514,-0.00310691,-0.00000056,-0.24744530,0.13914359
 ,0.00002345,-0.01748962,0.01803659,0.00000317,-0.00036639,0.00076439,-
 0.00000016,0.26741441,-0.00598518,-0.00108611,0.00000005,-0.00000568,-
 0.00513149,-0.00000043,0.02559868,-0.00273536,-0.00000257,0.14375048,-
 0.16368911,-0.00001763,-0.00968123,0.01229911,0.00000243,-0.00075170,-
 0.00034789,0.00000023,-0.15273762,0.15950450,-0.00000029,-0.00000150,0
 .00589667,-0.00000021,0.00000132,0.00686089,0.00000130,0.00000070,-0.0
 0139863,0.00002391,-0.00001764,-0.02439073,-0.00000010,-0.00000015,-0.
 00613617,-0.00000023,-0.00000015,-0.00221495,-0.00002628,0.00001812,0.
 02055831,-0.00506029,0.01204184,-0.00000650,0.00885270,0.00130817,-0.0
 0000242,-0.00803397,-0.00262068,0.00000332,0.00290667,-0.00204128,0.00
 000016,-0.00208058,-0.00105437,-0.00000065,0.00004851,0.00032625,0.000
 00017,-0.00026323,-0.00064015,0.00000003,0.28045367,0.00295111,-0.0034
 5298,-0.00000169,0.00120071,-0.00223511,0.00000029,-0.00161180,0.00013
 642,-0.00000036,-0.00065244,0.00038307,0.00000044,-0.00096991,-0.00196
 337,-0.00000037,-0.00029652,0.00002724,-0.00000002,-0.00029930,0.00002
 904,0.00000022,0.20906542,0.26622735,-0.00000068,0.00000258,0.00205741
 ,0.00000116,0.00000125,-0.00185467,-0.00000143,-0.00000160,-0.00211092
 ,-0.00000007,-0.00000093,0.00005872,0.00000021,0.00000123,-0.00074416,
 0.,0.00000009,-0.00001916,-0.00000004,-0.00000026,0.00037290,0.0000853
 7,0.00004118,0.01388940,-0.33131733,-0.01221022,-0.00000510,-0.0345474
 2,-0.00337581,-0.00000151,0.01073900,-0.00306267,0.00000016,0.00481723
 ,0.00550099,0.00000060,-0.02705043,0.00526104,-0.00000114,0.00196993,0
 .00002185,0.00000122,0.00197401,0.00011577,0.00000042,0.03164255,-0.03
 233346,0.00001671,0.78746253,-0.00021759,-0.12119743,-0.00000482,-0.02
 135733,0.01110189,0.00000722,-0.00524153,-0.01206212,0.00000328,0.0062
 7637,-0.00980322,-0.00000329,0.03471131,-0.00284474,-0.00000194,-0.001
 73870,0.00069511,0.00000064,0.00193721,0.00054378,-0.00000055,-0.00489
 837,-0.03816696,0.00001401,0.22026145,0.88480512,-0.00012763,-0.000011
 38,-0.04136595,-0.00001056,0.00009046,-0.00166673,0.00001681,-0.000009
 75,-0.00206025,-0.00000194,0.00000840,-0.00031812,0.00003520,-0.000082
 38,-0.00307439,0.00000107,-0.00000011,0.00077086,0.00000115,-0.0000001
 2,0.00076855,0.00002499,-0.00000564,-0.00084128,0.00023721,0.00014457,
 0.15626961,-0.04055937,0.05333217,-0.00002597,-0.01712897,0.00174876,0
 .00000235,0.00135883,0.00299655,-0.00000442,-0.00190951,0.00479679,0.0
 0000075,-0.00544720,-0.00681232,-0.00000336,-0.00039170,-0.00026312,0.
 00000006,-0.00103012,0.00016885,0.00000116,-0.30342129,-0.18053516,-0.
 00009779,-0.15881901,0.03865469,-0.00004817,0.49731890,0.02423248,-0.0
 2771805,0.00003259,-0.02116810,0.01549872,-0.00000311,0.01054645,0.000
 14752,-0.00000240,-0.00295157,0.00134542,0.00000013,0.00781444,-0.0049
 1590,0.00000186,0.00059066,-0.00003092,-0.00000038,0.00089462,0.000461
 59,-0.00000091,-0.21799330,-0.21516968,-0.00005739,0.08592273,-0.22784
 185,0.00001962,0.11091516,0.53163354,0.00001792,0.00001814,0.00975153,
 0.00000392,-0.00002530,-0.00063519,-0.00000661,0.00000333,0.00147455,0
 .00000225,-0.00000063,0.00149558,-0.00001207,0.00001665,0.00426016,-0.
 00000039,-0.00000005,-0.00015502,-0.00000056,0.00000008,-0.00034054,-0
 .00009742,-0.00003672,-0.01454198,-0.00007616,0.00006040,-0.04680895,0
 .00016593,-0.00001023,0.03410425,-0.04317429,-0.05448523,-0.00004101,-
 0.00432342,-0.00664206,-0.00000329,-0.00392067,-0.00140324,0.00000022,
 -0.00222003,-0.00413605,-0.00000062,0.00298315,0.00981220,0.00000517,-
 0.00148133,-0.00002476,0.00000072,-0.00073001,0.00016779,0.00000027,-0
 .00504475,0.00348136,-0.00000345,-0.28687104,-0.26838750,-0.00012813,0
 .03002943,0.00119645,0.00000319,0.31475297,-0.02140485,-0.00953915,-0.
 00002994,-0.00505868,-0.02020590,-0.00000478,-0.00206482,0.00437803,-0
 .00000050,-0.00473190,-0.00290368,0.00000055,-0.00108994,0.02366441,0.
 00000440,-0.00068064,0.00008981,0.00000043,-0.00079267,0.00015194,0.00
 000055,0.00650647,-0.00581502,-0.00000014,-0.26610166,-0.48522958,-0.0
 0015367,-0.02500235,-0.07341038,-0.00002567,0.32042105,0.56881951,0.00
 002622,-0.00001239,0.01333035,-0.00000268,-0.00003515,0.00379810,-0.00
 000593,0.00000343,0.00146496,-0.00000245,-0.00000483,-0.00023551,-0.00
 001050,0.00003659,-0.00189895,-0.00000086,0.00000012,0.00007690,-0.000
 00072,0.00000010,0.00002372,-0.00000705,0.00000269,0.00373372,-0.00017
 242,-0.00021953,-0.06167335,0.00000947,0.00002022,0.01139562,0.0001669
 3,0.00020876,0.02998445\\0.00009105,0.00012694,-0.00002116,-0.00017956
 ,-0.00001002,0.00000293,0.00015802,-0.00004353,-0.00000888,0.00007000,
 0.00001427,0.00000636,-0.00003609,-0.00005473,-0.00000955,-0.00001834,
 0.00001889,-0.00000098,0.00000026,-0.00002209,0.00000103,-0.00001577,0
 .00003444,0.00000255,-0.00010902,0.00010683,0.00010894,0.00007943,-0.0
 0010302,-0.00003792,-0.00004000,-0.00006797,-0.00004333\\\@


 CONFIDENCE: THAT QUIET ASSURED FEELING YOU HAVE
 JUST BEFORE YOU FALL FLAT ON YOUR FACE.
 Job cpu time:       0 days  0 hours 36 minutes  0.5 seconds.
 Elapsed time:       0 days  0 hours  1 minutes 48.9 seconds.
 File lengths (MBytes):  RWF=     73 Int=      0 D2E=      0 Chk=      4 Scr=      1
 Normal termination of Gaussian 16 at Sat May  6 04:53:45 2023.
