 Entering Gaussian System, Link 0=/opt/soft/g16/g16
 Initial command:
 /opt/soft/g16/l1.exe "/scratch/gongke2021/RC/Gau-8066.inp" -scrdir="/scratch/gongke2021/RC/"
 Entering Link 1 = /opt/soft/g16/l1.exe PID=      8067.
  
 Copyright (c) 1988,1990,1992,1993,1995,1998,2003,2009,2016,
            Gaussian, Inc.  All Rights Reserved.
  
 This is part of the Gaussian(R) 16 program.  It is based on
 the Gaussian(R) 09 system (copyright 2009, Gaussian, Inc.),
 the Gaussian(R) 03 system (copyright 2003, Gaussian, Inc.),
 the Gaussian(R) 98 system (copyright 1998, Gaussian, Inc.),
 the Gaussian(R) 94 system (copyright 1995, Gaussian, Inc.),
 the Gaussian 92(TM) system (copyright 1992, Gaussian, Inc.),
 the Gaussian 90(TM) system (copyright 1990, Gaussian, Inc.),
 the Gaussian 88(TM) system (copyright 1988, Gaussian, Inc.),
 the Gaussian 86(TM) system (copyright 1986, Carnegie Mellon
 University), and the Gaussian 82(TM) system (copyright 1983,
 Carnegie Mellon University). Gaussian is a federally registered
 trademark of Gaussian, Inc.
  
 This software contains proprietary and confidential information,
 including trade secrets, belonging to Gaussian, Inc.
  
 This software is provided under written license and may be
 used, copied, transmitted, or stored only in accord with that
 written license.
  
 The following legend is applicable only to US Government
 contracts under FAR:
  
                    RESTRICTED RIGHTS LEGEND
  
 Use, reproduction and disclosure by the US Government is
 subject to restrictions as set forth in subparagraphs (a)
 and (c) of the Commercial Computer Software - Restricted
 Rights clause in FAR 52.227-19.
  
 Gaussian, Inc.
 340 Quinnipiac St., Bldg. 40, Wallingford CT 06492
  
  
 ---------------------------------------------------------------
 Warning -- This program may not be used in any manner that
 competes with the business of Gaussian, Inc. or will provide
 assistance to any competitor of Gaussian, Inc.  The licensee
 of this program is prohibited from giving any competitor of
 Gaussian, Inc. access to this program.  By using this program,
 the user acknowledges that Gaussian, Inc. is engaged in the
 business of creating and licensing software in the field of
 computational chemistry and represents and warrants to the
 licensee that it is not a competitor of Gaussian, Inc. and that
 it will not use this program in any manner prohibited above.
 ---------------------------------------------------------------
  

 Cite this work as:
 Gaussian 16, Revision A.03,
 M. J. Frisch, G. W. Trucks, H. B. Schlegel, G. E. Scuseria, 
 M. A. Robb, J. R. Cheeseman, G. Scalmani, V. Barone, 
 G. A. Petersson, H. Nakatsuji, X. Li, M. Caricato, A. V. Marenich, 
 J. Bloino, B. G. Janesko, R. Gomperts, B. Mennucci, H. P. Hratchian, 
 J. V. Ortiz, A. F. Izmaylov, J. L. Sonnenberg, D. Williams-Young, 
 F. Ding, F. Lipparini, F. Egidi, J. Goings, B. Peng, A. Petrone, 
 T. Henderson, D. Ranasinghe, V. G. Zakrzewski, J. Gao, N. Rega, 
 G. Zheng, W. Liang, M. Hada, M. Ehara, K. Toyota, R. Fukuda, 
 J. Hasegawa, M. Ishida, T. Nakajima, Y. Honda, O. Kitao, H. Nakai, 
 T. Vreven, K. Throssell, J. A. Montgomery, Jr., J. E. Peralta, 
 F. Ogliaro, M. J. Bearpark, J. J. Heyd, E. N. Brothers, K. N. Kudin, 
 V. N. Staroverov, T. A. Keith, R. Kobayashi, J. Normand, 
 K. Raghavachari, A. P. Rendell, J. C. Burant, S. S. Iyengar, 
 J. Tomasi, M. Cossi, J. M. Millam, M. Klene, C. Adamo, R. Cammi, 
 J. W. Ochterski, R. L. Martin, K. Morokuma, O. Farkas, 
 J. B. Foresman, and D. J. Fox, Gaussian, Inc., Wallingford CT, 2016.
 
 ******************************************
 Gaussian 16:  ES64L-G16RevA.03 25-Dec-2016
                 6-Jun-2023 
 ******************************************
 %mem=10GB
 %nprocshared=24
 Will use up to   24 processors via shared memory.
 ----------------------------
 # opt freq 6-31+g(d,p) m062x
 ----------------------------
 1/18=20,19=15,26=3,38=1/1,3;
 2/9=110,12=2,17=6,18=5,40=1/2;
 3/5=1,6=6,7=111,11=2,25=1,30=1,71=1,74=-55/1,2,3;
 4//1;
 5/5=2,38=5/2;
 6/7=2,8=2,9=2,10=2,28=1/1;
 7//1,2,3,16;
 1/18=20,19=15,26=3/3(2);
 2/9=110/2;
 99//99;
 2/9=110/2;
 3/5=1,6=6,7=111,11=2,25=1,30=1,71=1,74=-55/1,2,3;
 4/5=5,16=3,69=1/1;
 5/5=2,38=5/2;
 7//1,2,3,16;
 1/18=20,19=15,26=3/3(-5);
 2/9=110/2;
 6/7=2,8=2,9=2,10=2,19=2,28=1/1;
 99/9=1/99;
 --
 RC
 --
 Symbolic Z-matrix:
 Charge = -1 Multiplicity = 2
 N                    -0.85668   0.3113    0.11939 
 N                    -0.27939  -0.9687    0.03451 
 C                    -1.379    -1.83604   0.03378 
 C                    -2.49687  -1.04213  -0.06887 
 N                    -2.1996    0.26984  -0.04377 
 H                    -1.24747  -2.90558   0.01068 
 H                    -3.52633  -1.35675  -0.17275 
 H                     0.49293  -1.10186   0.69527 
 C                    -0.02467   1.51323   0.0811 
 O                     1.20926   1.23666   0.18041 
 O                    -0.61479   2.58031  -0.00743 
 O                     2.2888   -0.58935  -1.5797 
 H                     1.44207  -1.05311  -1.62447 
 H                     2.02432   0.23861  -1.12253 
 O                     2.45273  -0.94724   1.34152 
 H                     2.12837  -0.02943   1.25125 
 H                     2.75104  -1.13245   0.43714 
 
 Add virtual bond connecting atoms H14        and O10        Dist= 3.46D+00.
 Add virtual bond connecting atoms H16        and H8         Dist= 3.84D+00.
 Add virtual bond connecting atoms H16        and O10        Dist= 3.58D+00.

 GradGradGradGradGradGradGradGradGradGradGradGradGradGradGradGradGradGrad
 Berny optimization.
 Initialization pass.
                           ----------------------------
                           !    Initial Parameters    !
                           ! (Angstroms and Degrees)  !
 --------------------------                            --------------------------
 ! Name  Definition              Value          Derivative Info.                !
 --------------------------------------------------------------------------------
 ! R1    R(1,2)                  1.4067         estimate D2E/DX2                !
 ! R2    R(1,5)                  1.3534         estimate D2E/DX2                !
 ! R3    R(1,9)                  1.4623         estimate D2E/DX2                !
 ! R4    R(2,3)                  1.4005         estimate D2E/DX2                !
 ! R5    R(2,8)                  1.0251         estimate D2E/DX2                !
 ! R6    R(3,4)                  1.3749         estimate D2E/DX2                !
 ! R7    R(3,6)                  1.0778         estimate D2E/DX2                !
 ! R8    R(4,5)                  1.3455         estimate D2E/DX2                !
 ! R9    R(4,7)                  1.0815         estimate D2E/DX2                !
 ! R10   R(8,16)                 2.0332         estimate D2E/DX2                !
 ! R11   R(9,10)                 1.2684         estimate D2E/DX2                !
 ! R12   R(9,11)                 1.2226         estimate D2E/DX2                !
 ! R13   R(10,14)                1.8325         estimate D2E/DX2                !
 ! R14   R(10,16)                1.8959         estimate D2E/DX2                !
 ! R15   R(12,13)                0.9664         estimate D2E/DX2                !
 ! R16   R(12,14)                0.9821         estimate D2E/DX2                !
 ! R17   R(15,16)                0.9776         estimate D2E/DX2                !
 ! R18   R(15,17)                0.9702         estimate D2E/DX2                !
 ! A1    A(2,1,5)              111.8412         estimate D2E/DX2                !
 ! A2    A(2,1,9)              120.8522         estimate D2E/DX2                !
 ! A3    A(5,1,9)              125.9147         estimate D2E/DX2                !
 ! A4    A(1,2,3)              103.9655         estimate D2E/DX2                !
 ! A5    A(1,2,8)              112.8602         estimate D2E/DX2                !
 ! A6    A(3,2,8)              120.7592         estimate D2E/DX2                !
 ! A7    A(2,3,4)              106.3081         estimate D2E/DX2                !
 ! A8    A(2,3,6)              121.2469         estimate D2E/DX2                !
 ! A9    A(4,3,6)              132.1116         estimate D2E/DX2                !
 ! A10   A(3,4,5)              112.4582         estimate D2E/DX2                !
 ! A11   A(3,4,7)              127.8161         estimate D2E/DX2                !
 ! A12   A(5,4,7)              119.7219         estimate D2E/DX2                !
 ! A13   A(1,5,4)              104.5576         estimate D2E/DX2                !
 ! A14   A(2,8,16)             135.5425         estimate D2E/DX2                !
 ! A15   A(1,9,10)             111.853          estimate D2E/DX2                !
 ! A16   A(1,9,11)             116.4012         estimate D2E/DX2                !
 ! A17   A(10,9,11)            131.7224         estimate D2E/DX2                !
 ! A18   A(9,10,14)            119.7202         estimate D2E/DX2                !
 ! A19   A(9,10,16)            131.4084         estimate D2E/DX2                !
 ! A20   A(14,10,16)            79.7619         estimate D2E/DX2                !
 ! A21   A(13,12,14)           100.9631         estimate D2E/DX2                !
 ! A22   A(10,14,12)           155.4969         estimate D2E/DX2                !
 ! A23   A(16,15,17)           101.2545         estimate D2E/DX2                !
 ! A24   A(8,16,10)             78.9215         estimate D2E/DX2                !
 ! A25   A(8,16,15)             78.2844         estimate D2E/DX2                !
 ! A26   A(10,16,15)           147.1356         estimate D2E/DX2                !
 ! D1    D(5,1,2,3)             -9.7096         estimate D2E/DX2                !
 ! D2    D(5,1,2,8)           -142.3019         estimate D2E/DX2                !
 ! D3    D(9,1,2,3)           -177.0083         estimate D2E/DX2                !
 ! D4    D(9,1,2,8)             50.3994         estimate D2E/DX2                !
 ! D5    D(2,1,5,4)              7.2498         estimate D2E/DX2                !
 ! D6    D(9,1,5,4)            173.7724         estimate D2E/DX2                !
 ! D7    D(2,1,9,10)           -10.3758         estimate D2E/DX2                !
 ! D8    D(2,1,9,11)           171.1768         estimate D2E/DX2                !
 ! D9    D(5,1,9,10)          -175.7804         estimate D2E/DX2                !
 ! D10   D(5,1,9,11)             5.7722         estimate D2E/DX2                !
 ! D11   D(1,2,3,4)              8.0103         estimate D2E/DX2                !
 ! D12   D(1,2,3,6)           -177.8612         estimate D2E/DX2                !
 ! D13   D(8,2,3,4)            135.8793         estimate D2E/DX2                !
 ! D14   D(8,2,3,6)            -49.9922         estimate D2E/DX2                !
 ! D15   D(1,2,8,16)           -46.5739         estimate D2E/DX2                !
 ! D16   D(3,2,8,16)          -170.3329         estimate D2E/DX2                !
 ! D17   D(2,3,4,5)             -4.1583         estimate D2E/DX2                !
 ! D18   D(2,3,4,7)            175.116          estimate D2E/DX2                !
 ! D19   D(6,3,4,5)           -177.3877         estimate D2E/DX2                !
 ! D20   D(6,3,4,7)              1.8865         estimate D2E/DX2                !
 ! D21   D(3,4,5,1)             -1.7986         estimate D2E/DX2                !
 ! D22   D(7,4,5,1)            178.8616         estimate D2E/DX2                !
 ! D23   D(2,8,16,10)            8.9762         estimate D2E/DX2                !
 ! D24   D(2,8,16,15)         -147.1901         estimate D2E/DX2                !
 ! D25   D(1,9,10,14)           63.4319         estimate D2E/DX2                !
 ! D26   D(1,9,10,16)          -39.8977         estimate D2E/DX2                !
 ! D27   D(11,9,10,14)        -118.4314         estimate D2E/DX2                !
 ! D28   D(11,9,10,16)         138.239          estimate D2E/DX2                !
 ! D29   D(9,10,14,12)         -83.3423         estimate D2E/DX2                !
 ! D30   D(16,10,14,12)         48.7883         estimate D2E/DX2                !
 ! D31   D(9,10,16,8)           40.247          estimate D2E/DX2                !
 ! D32   D(9,10,16,15)          87.0608         estimate D2E/DX2                !
 ! D33   D(14,10,16,8)         -80.5784         estimate D2E/DX2                !
 ! D34   D(14,10,16,15)        -33.7646         estimate D2E/DX2                !
 ! D35   D(13,12,14,10)         48.7552         estimate D2E/DX2                !
 ! D36   D(17,15,16,8)          85.9008         estimate D2E/DX2                !
 ! D37   D(17,15,16,10)         38.9499         estimate D2E/DX2                !
 --------------------------------------------------------------------------------
 Trust Radius=3.00D-01 FncErr=1.00D-07 GrdErr=1.00D-06 EigMax=2.50D+02 EigMin=1.00D-04
 Number of steps in this run=     91 maximum allowed number of steps=    102.
 GradGradGradGradGradGradGradGradGradGradGradGradGradGradGradGradGradGrad

                          Input orientation:                          
 ---------------------------------------------------------------------
 Center     Atomic      Atomic             Coordinates (Angstroms)
 Number     Number       Type             X           Y           Z
 ---------------------------------------------------------------------
      1          7           0       -0.856677    0.311304    0.119393
      2          7           0       -0.279389   -0.968699    0.034507
      3          6           0       -1.378999   -1.836037    0.033784
      4          6           0       -2.496874   -1.042132   -0.068865
      5          7           0       -2.199603    0.269835   -0.043768
      6          1           0       -1.247466   -2.905578    0.010679
      7          1           0       -3.526328   -1.356750   -0.172750
      8          1           0        0.492933   -1.101856    0.695272
      9          6           0       -0.024669    1.513231    0.081104
     10          8           0        1.209264    1.236661    0.180407
     11          8           0       -0.614792    2.580311   -0.007434
     12          8           0        2.288795   -0.589347   -1.579703
     13          1           0        1.442069   -1.053107   -1.624474
     14          1           0        2.024317    0.238612   -1.122530
     15          8           0        2.452732   -0.947236    1.341524
     16          1           0        2.128366   -0.029432    1.251245
     17          1           0        2.751039   -1.132449    0.437142
 ---------------------------------------------------------------------
                    Distance matrix (angstroms):
                    1          2          3          4          5
     1  N    0.000000
     2  N    1.406725   0.000000
     3  C    2.211611   1.400506   0.000000
     4  C    2.134825   2.221107   1.374942   0.000000
     5  N    1.353437   2.286332   2.261438   1.345458   0.000000
     6  H    3.242355   2.165466   1.077846   2.244945   3.315536
     7  H    3.161453   3.276607   2.209840   1.081458   2.103001
     8  H    2.037181   1.025096   2.116771   3.086490   3.110863
     9  C    1.462304   2.495402   3.613038   3.558675   2.508379
    10  O    2.264535   2.664768   4.020209   4.357808   3.550406
    11  O    2.285385   3.565070   4.482169   4.082658   2.802007
    12  O    3.686746   3.056984   4.196461   5.038876   4.821100
    13  H    3.191696   2.392229   3.364703   4.235010   4.184565
    14  H    3.138118   2.846646   4.150155   4.815774   4.359610
    15  O    3.745626   3.028736   4.145155   5.147504   5.004450
    16  H    3.210556   2.856564   4.128879   4.915394   4.527465
    17  H    3.898846   3.061441   4.208913   5.273025   5.167836
                    6          7          8          9         10
     6  H    0.000000
     7  H    2.761472   0.000000
     8  H    2.598282   4.119817   0.000000
     9  C    4.585419   4.534628   2.735652   0.000000
    10  O    4.818970   5.410761   2.499375   1.268441   0.000000
    11  O    5.522281   4.899471   3.908862   1.222597   2.273293
    12  O    4.516568   6.031922   2.943348   3.539948   2.756389
    13  H    3.652256   5.185043   2.506882   3.412683   2.924864
    14  H    4.677035   5.852941   2.728808   2.696615   1.832500
    15  O    4.392917   6.181415   2.069387   3.712152   2.768359
    16  H    4.605156   5.980393   2.033185   2.895617   1.895899
    17  H    4.394758   6.310912   2.273018   3.851096   2.838250
                   11         12         13         14         15
    11  O    0.000000
    12  O    4.577071   0.000000
    13  H    4.477412   0.966448   0.000000
    14  H    3.700255   0.982075   1.503163   0.000000
    15  O    4.865489   2.947631   3.135250   2.767912   0.000000
    16  H    3.989981   2.890244   3.128686   2.391126   0.977613
    17  H    5.031009   2.139227   2.443350   2.200116   0.970153
                   16         17
    16  H    0.000000
    17  H    1.505700   0.000000
 Stoichiometry    C3H7N3O4(1-,2)
 Framework group  C1[X(C3H7N3O4)]
 Deg. of freedom    45
 Full point group                 C1      NOp   1
 Largest Abelian subgroup         C1      NOp   1
 Largest concise Abelian subgroup C1      NOp   1
                         Standard orientation:                         
 ---------------------------------------------------------------------
 Center     Atomic      Atomic             Coordinates (Angstroms)
 Number     Number       Type             X           Y           Z
 ---------------------------------------------------------------------
      1          7           0        0.856677    0.311304   -0.119393
      2          7           0        0.279389   -0.968699   -0.034507
      3          6           0        1.378999   -1.836037   -0.033784
      4          6           0        2.496874   -1.042132    0.068865
      5          7           0        2.199603    0.269835    0.043768
      6          1           0        1.247466   -2.905578   -0.010679
      7          1           0        3.526328   -1.356750    0.172750
      8          1           0       -0.492933   -1.101856   -0.695272
      9          6           0        0.024669    1.513231   -0.081104
     10          8           0       -1.209264    1.236661   -0.180407
     11          8           0        0.614791    2.580311    0.007434
     12          8           0       -2.288795   -0.589347    1.579703
     13          1           0       -1.442069   -1.053107    1.624474
     14          1           0       -2.024317    0.238612    1.122530
     15          8           0       -2.452732   -0.947236   -1.341524
     16          1           0       -2.128366   -0.029432   -1.251245
     17          1           0       -2.751039   -1.132449   -0.437142
 ---------------------------------------------------------------------
 Rotational constants (GHZ):           1.5005299           1.0214520           0.7433060
 Standard basis: 6-31+G(d,p) (6D, 7F)
 There are   225 symmetry adapted cartesian basis functions of A   symmetry.
 There are   225 symmetry adapted basis functions of A   symmetry.
   225 basis functions,   369 primitive gaussians,   225 cartesian basis functions
    40 alpha electrons       39 beta electrons
       nuclear repulsion energy       560.5594926889 Hartrees.
 NAtoms=   17 NActive=   17 NUniq=   17 SFac= 1.00D+00 NAtFMM=   60 NAOKFM=F Big=F
 Integral buffers will be    131072 words long.
 Raffenetti 2 integral format.
 Two-electron integral symmetry is turned on.
 One-electron integrals computed using PRISM.
 NBasis=   225 RedAO= T EigKep=  2.94D-05  NBF=   225
 NBsUse=   225 1.00D-06 EigRej= -1.00D+00 NBFU=   225
 ExpMin= 4.38D-02 ExpMax= 5.48D+03 ExpMxC= 8.25D+02 IAcc=3 IRadAn=         5 AccDes= 0.00D+00
 Harris functional with IExCor= 1009 and IRadAn=       5 diagonalized for initial guess.
 HarFok:  IExCor= 1009 AccDes= 0.00D+00 IRadAn=         5 IDoV= 1 UseB2=F ITyADJ=14
 ICtDFT=  3500011 ScaDFX=  1.000000  1.000000  1.000000  1.000000
 FoFCou: FMM=F IPFlag=           0 FMFlag=      100000 FMFlg1=           0
         NFxFlg=           0 DoJE=T BraDBF=F KetDBF=T FulRan=T
         wScrn=  0.000000 ICntrl=       500 IOpCl=  0 I1Cent=   200000004 NGrid=           0
         NMat0=    1 NMatS0=      1 NMatT0=    0 NMatD0=    1 NMtDS0=    0 NMtDT0=    0
 Petite list used in FoFCou.
 Initial guess <Sx>= 0.0000 <Sy>= 0.0000 <Sz>= 0.5000 <S**2>= 0.7500 S= 0.5000
 Requested convergence on RMS density matrix=1.00D-08 within 128 cycles.
 Requested convergence on MAX density matrix=1.00D-06.
 Requested convergence on             energy=1.00D-06.
 No special actions if energy rises.
 SCF Done:  E(UM062X) =  -583.503136234     A.U. after   19 cycles
            NFock= 19  Conv=0.45D-08     -V/T= 2.0083
 <Sx>= 0.0000 <Sy>= 0.0000 <Sz>= 0.5000 <S**2>= 0.7652 S= 0.5076
 <L.S>=  0.00000000000    
 Annihilation of the first spin contaminant:
 S**2 before annihilation     0.7652,   after     0.7501

 **********************************************************************

            Population analysis using the SCF density.

 **********************************************************************

 Orbital symmetries:
 Alpha Orbitals:
       Occupied  (A) (A) (A) (A) (A) (A) (A) (A) (A) (A) (A) (A)
                 (A) (A) (A) (A) (A) (A) (A) (A) (A) (A) (A) (A)
                 (A) (A) (A) (A) (A) (A) (A) (A) (A) (A) (A) (A)
                 (A) (A) (A) (A)
       Virtual   (A) (A) (A) (A) (A) (A) (A) (A) (A) (A) (A) (A)
                 (A) (A) (A) (A) (A) (A) (A) (A) (A) (A) (A) (A)
                 (A) (A) (A) (A) (A) (A) (A) (A) (A) (A) (A) (A)
                 (A) (A) (A) (A) (A) (A) (A) (A) (A) (A) (A) (A)
                 (A) (A) (A) (A) (A) (A) (A) (A) (A) (A) (A) (A)
                 (A) (A) (A) (A) (A) (A) (A) (A) (A) (A) (A) (A)
                 (A) (A) (A) (A) (A) (A) (A) (A) (A) (A) (A) (A)
                 (A) (A) (A) (A) (A) (A) (A) (A) (A) (A) (A) (A)
                 (A) (A) (A) (A) (A) (A) (A) (A) (A) (A) (A) (A)
                 (A) (A) (A) (A) (A) (A) (A) (A) (A) (A) (A) (A)
                 (A) (A) (A) (A) (A) (A) (A) (A) (A) (A) (A) (A)
                 (A) (A) (A) (A) (A) (A) (A) (A) (A) (A) (A) (A)
                 (A) (A) (A) (A) (A) (A) (A) (A) (A) (A) (A) (A)
                 (A) (A) (A) (A) (A) (A) (A) (A) (A) (A) (A) (A)
                 (A) (A) (A) (A) (A) (A) (A) (A) (A) (A) (A) (A)
                 (A) (A) (A) (A) (A)
 Beta  Orbitals:
       Occupied  (A) (A) (A) (A) (A) (A) (A) (A) (A) (A) (A) (A)
                 (A) (A) (A) (A) (A) (A) (A) (A) (A) (A) (A) (A)
                 (A) (A) (A) (A) (A) (A) (A) (A) (A) (A) (A) (A)
                 (A) (A) (A)
       Virtual   (A) (A) (A) (A) (A) (A) (A) (A) (A) (A) (A) (A)
                 (A) (A) (A) (A) (A) (A) (A) (A) (A) (A) (A) (A)
                 (A) (A) (A) (A) (A) (A) (A) (A) (A) (A) (A) (A)
                 (A) (A) (A) (A) (A) (A) (A) (A) (A) (A) (A) (A)
                 (A) (A) (A) (A) (A) (A) (A) (A) (A) (A) (A) (A)
                 (A) (A) (A) (A) (A) (A) (A) (A) (A) (A) (A) (A)
                 (A) (A) (A) (A) (A) (A) (A) (A) (A) (A) (A) (A)
                 (A) (A) (A) (A) (A) (A) (A) (A) (A) (A) (A) (A)
                 (A) (A) (A) (A) (A) (A) (A) (A) (A) (A) (A) (A)
                 (A) (A) (A) (A) (A) (A) (A) (A) (A) (A) (A) (A)
                 (A) (A) (A) (A) (A) (A) (A) (A) (A) (A) (A) (A)
                 (A) (A) (A) (A) (A) (A) (A) (A) (A) (A) (A) (A)
                 (A) (A) (A) (A) (A) (A) (A) (A) (A) (A) (A) (A)
                 (A) (A) (A) (A) (A) (A) (A) (A) (A) (A) (A) (A)
                 (A) (A) (A) (A) (A) (A) (A) (A) (A) (A) (A) (A)
                 (A) (A) (A) (A) (A) (A)
 The electronic state is 2-A.
 Alpha  occ. eigenvalues --  -19.50567 -19.50544 -19.45987 -19.45030 -14.71333
 Alpha  occ. eigenvalues --  -14.69770 -14.65252 -10.53588 -10.45959 -10.45634
 Alpha  occ. eigenvalues --   -1.07813  -1.01622  -0.99493  -0.98419  -0.93733
 Alpha  occ. eigenvalues --   -0.87273  -0.79287  -0.62758  -0.57731  -0.54517
 Alpha  occ. eigenvalues --   -0.47174  -0.45755  -0.44830  -0.43393  -0.40256
 Alpha  occ. eigenvalues --   -0.39178  -0.38246  -0.35330  -0.34546  -0.33275
 Alpha  occ. eigenvalues --   -0.32880  -0.26724  -0.26366  -0.25172  -0.24383
 Alpha  occ. eigenvalues --   -0.21809  -0.20852  -0.19154  -0.18077  -0.05342
 Alpha virt. eigenvalues --    0.11654   0.12666   0.15017   0.16480   0.16895
 Alpha virt. eigenvalues --    0.17853   0.18048   0.19197   0.20016   0.21155
 Alpha virt. eigenvalues --    0.22705   0.23329   0.24961   0.25641   0.26099
 Alpha virt. eigenvalues --    0.27548   0.28889   0.30333   0.31172   0.32035
 Alpha virt. eigenvalues --    0.32428   0.32952   0.34089   0.34469   0.35175
 Alpha virt. eigenvalues --    0.36064   0.36216   0.36965   0.37670   0.38394
 Alpha virt. eigenvalues --    0.38591   0.40049   0.40571   0.41208   0.42304
 Alpha virt. eigenvalues --    0.42969   0.43631   0.44129   0.44964   0.46011
 Alpha virt. eigenvalues --    0.46445   0.47727   0.48915   0.49432   0.50769
 Alpha virt. eigenvalues --    0.51890   0.53267   0.54533   0.55519   0.56016
 Alpha virt. eigenvalues --    0.59755   0.60274   0.61295   0.63959   0.66188
 Alpha virt. eigenvalues --    0.70534   0.81979   0.83779   0.86381   0.89801
 Alpha virt. eigenvalues --    0.98685   0.99194   0.99695   1.02899   1.04958
 Alpha virt. eigenvalues --    1.05795   1.06736   1.08855   1.10679   1.14916
 Alpha virt. eigenvalues --    1.16075   1.17679   1.18247   1.20083   1.21218
 Alpha virt. eigenvalues --    1.23297   1.24935   1.26874   1.29178   1.31589
 Alpha virt. eigenvalues --    1.33359   1.35702   1.37966   1.38342   1.39943
 Alpha virt. eigenvalues --    1.40798   1.42538   1.43385   1.45298   1.46170
 Alpha virt. eigenvalues --    1.46453   1.47673   1.49102   1.49819   1.53248
 Alpha virt. eigenvalues --    1.54958   1.55875   1.56326   1.58128   1.58893
 Alpha virt. eigenvalues --    1.60364   1.63518   1.65364   1.67438   1.69411
 Alpha virt. eigenvalues --    1.72037   1.74979   1.76655   1.77785   1.81109
 Alpha virt. eigenvalues --    1.81946   1.86769   1.91279   1.94424   1.95838
 Alpha virt. eigenvalues --    2.00004   2.01811   2.02573   2.05060   2.06692
 Alpha virt. eigenvalues --    2.07509   2.10944   2.12194   2.17532   2.19360
 Alpha virt. eigenvalues --    2.20339   2.21219   2.25853   2.29589   2.29814
 Alpha virt. eigenvalues --    2.34285   2.37955   2.44382   2.46016   2.46084
 Alpha virt. eigenvalues --    2.46991   2.47672   2.51118   2.53896   2.56912
 Alpha virt. eigenvalues --    2.58153   2.60997   2.64929   2.68088   2.69603
 Alpha virt. eigenvalues --    2.71259   2.72358   2.74733   2.79603   2.82772
 Alpha virt. eigenvalues --    2.82967   2.85088   2.85386   2.89187   2.90474
 Alpha virt. eigenvalues --    2.94363   2.98228   3.00726   3.04255   3.06190
 Alpha virt. eigenvalues --    3.08724   3.20342   3.23162   3.25622   3.29068
 Alpha virt. eigenvalues --    3.32664   3.40305   3.40522   3.45937   3.59238
 Alpha virt. eigenvalues --    3.64984   3.69135   3.80452   3.82223   3.84949
 Alpha virt. eigenvalues --    4.18815   4.22306   4.28837   4.41759   4.49574
 Alpha virt. eigenvalues --    4.53445   4.59721   4.76192   4.83975   4.93024
  Beta  occ. eigenvalues --  -19.50552 -19.50540 -19.45964 -19.44951 -14.70865
  Beta  occ. eigenvalues --  -14.69414 -14.64757 -10.53599 -10.45788 -10.45691
  Beta  occ. eigenvalues --   -1.06710  -1.01236  -0.99456  -0.98391  -0.93552
  Beta  occ. eigenvalues --   -0.85859  -0.78228  -0.61442  -0.57235  -0.53652
  Beta  occ. eigenvalues --   -0.46962  -0.45720  -0.43902  -0.41846  -0.39720
  Beta  occ. eigenvalues --   -0.38661  -0.37707  -0.35170  -0.34049  -0.32789
  Beta  occ. eigenvalues --   -0.32513  -0.26299  -0.25344  -0.23205  -0.21956
  Beta  occ. eigenvalues --   -0.20737  -0.18852  -0.18291  -0.17730
  Beta virt. eigenvalues --    0.11146   0.11620   0.12680   0.14775   0.15766
  Beta virt. eigenvalues --    0.17367   0.17543   0.17971   0.18775   0.19389
  Beta virt. eigenvalues --    0.21133   0.22714   0.23458   0.24677   0.25300
  Beta virt. eigenvalues --    0.27104   0.27456   0.29042   0.30369   0.31381
  Beta virt. eigenvalues --    0.31989   0.32457   0.32976   0.34313   0.34470
  Beta virt. eigenvalues --    0.34982   0.36069   0.36350   0.37273   0.37788
  Beta virt. eigenvalues --    0.38329   0.38732   0.40147   0.40433   0.41298
  Beta virt. eigenvalues --    0.42292   0.42901   0.43861   0.44173   0.44900
  Beta virt. eigenvalues --    0.45955   0.46613   0.47887   0.48919   0.49551
  Beta virt. eigenvalues --    0.50592   0.52021   0.52899   0.54626   0.55686
  Beta virt. eigenvalues --    0.56085   0.59791   0.60457   0.61648   0.64157
  Beta virt. eigenvalues --    0.66294   0.70669   0.82216   0.84009   0.86007
  Beta virt. eigenvalues --    0.91091   0.98830   0.99312   0.99821   1.03090
  Beta virt. eigenvalues --    1.05186   1.05974   1.06953   1.09050   1.12470
  Beta virt. eigenvalues --    1.16545   1.17020   1.18051   1.19331   1.20378
  Beta virt. eigenvalues --    1.21624   1.23511   1.25474   1.27067   1.29247
  Beta virt. eigenvalues --    1.31203   1.33499   1.35751   1.38037   1.38505
  Beta virt. eigenvalues --    1.40097   1.40835   1.42726   1.43470   1.45463
  Beta virt. eigenvalues --    1.46464   1.46709   1.48049   1.49461   1.50156
  Beta virt. eigenvalues --    1.53592   1.55311   1.56042   1.56536   1.58314
  Beta virt. eigenvalues --    1.59309   1.60756   1.64210   1.65404   1.67541
  Beta virt. eigenvalues --    1.69577   1.72668   1.75119   1.76747   1.78298
  Beta virt. eigenvalues --    1.81237   1.82030   1.86803   1.91649   1.94719
  Beta virt. eigenvalues --    1.95980   2.00320   2.02040   2.02873   2.05271
  Beta virt. eigenvalues --    2.07012   2.07640   2.11428   2.12563   2.17803
  Beta virt. eigenvalues --    2.19894   2.20565   2.21445   2.26645   2.29939
  Beta virt. eigenvalues --    2.30395   2.34559   2.38269   2.44747   2.46424
  Beta virt. eigenvalues --    2.46532   2.47072   2.47976   2.51209   2.54156
  Beta virt. eigenvalues --    2.57257   2.58521   2.61204   2.65408   2.68625
  Beta virt. eigenvalues --    2.69736   2.71341   2.72425   2.75245   2.79633
  Beta virt. eigenvalues --    2.83098   2.83481   2.85300   2.85862   2.89361
  Beta virt. eigenvalues --    2.90608   2.94561   2.98421   3.01326   3.04804
  Beta virt. eigenvalues --    3.06530   3.09165   3.20423   3.23228   3.26104
  Beta virt. eigenvalues --    3.29093   3.32837   3.40333   3.40931   3.46079
  Beta virt. eigenvalues --    3.59839   3.65047   3.69321   3.80472   3.82240
  Beta virt. eigenvalues --    3.85523   4.18966   4.22393   4.28885   4.41669
  Beta virt. eigenvalues --    4.50148   4.53495   4.59469   4.76180   4.84950
  Beta virt. eigenvalues --    4.93018
          Condensed to atoms (all electrons):
               1          2          3          4          5          6
     1  N    9.141686  -1.130630   0.071996  -0.012211  -0.682498  -0.000424
     2  N   -1.130630   9.228227  -0.410017   0.363391  -0.778909  -0.053187
     3  C    0.071996  -0.410017   6.502838  -0.399628   0.127900   0.403636
     4  C   -0.012211   0.363391  -0.399628   5.891299  -0.061352  -0.015499
     5  N   -0.682498  -0.778909   0.127900  -0.061352   8.602662  -0.001998
     6  H   -0.000424  -0.053187   0.403636  -0.015499  -0.001998   0.519728
     7  H   -0.014351   0.001663  -0.032049   0.396664  -0.043194   0.000221
     8  H    0.018684   0.214069  -0.025212  -0.002281   0.027485  -0.000383
     9  C    0.001645  -0.011804  -0.043115   0.008422   0.041771   0.000418
    10  O   -0.313116   0.157643   0.050742  -0.031174  -0.017364   0.000189
    11  O   -0.116001  -0.003297   0.004960  -0.008696  -0.001650   0.000031
    12  O   -0.053449   0.067847  -0.001559   0.002432  -0.012205  -0.000042
    13  H   -0.010917   0.023488   0.007037  -0.004140   0.004922  -0.000009
    14  H   -0.014961   0.025656  -0.006888   0.004936  -0.000932  -0.000002
    15  O    0.002434  -0.027596   0.019483  -0.011600  -0.003812  -0.000249
    16  H    0.016010  -0.024140   0.000505  -0.000202   0.003437   0.000001
    17  H   -0.007164   0.005655  -0.002081   0.001284  -0.001577   0.000013
               7          8          9         10         11         12
     1  N   -0.014351   0.018684   0.001645  -0.313116  -0.116001  -0.053449
     2  N    0.001663   0.214069  -0.011804   0.157643  -0.003297   0.067847
     3  C   -0.032049  -0.025212  -0.043115   0.050742   0.004960  -0.001559
     4  C    0.396664  -0.002281   0.008422  -0.031174  -0.008696   0.002432
     5  N   -0.043194   0.027485   0.041771  -0.017364  -0.001650  -0.012205
     6  H    0.000221  -0.000383   0.000418   0.000189   0.000031  -0.000042
     7  H    0.553191  -0.000046   0.001469  -0.000012  -0.000036  -0.000000
     8  H   -0.000046   0.366082  -0.000917  -0.006636   0.000046  -0.004508
     9  C    0.001469  -0.000917   4.500148   0.252931   0.488280  -0.000912
    10  O   -0.000012  -0.006636   0.252931   8.787564  -0.101615   0.003269
    11  O   -0.000036   0.000046   0.488280  -0.101615   8.301186  -0.001095
    12  O   -0.000000  -0.004508  -0.000912   0.003269  -0.001095   8.322830
    13  H   -0.000000  -0.002732   0.001782  -0.009290  -0.000064   0.264100
    14  H    0.000000  -0.001509   0.002903   0.023585  -0.001619   0.243326
    15  O   -0.000003   0.032168   0.005800  -0.012059  -0.000466  -0.012767
    16  H    0.000000   0.001374  -0.003439   0.029863   0.000418  -0.004456
    17  H    0.000000  -0.002235  -0.003400   0.009831   0.000073   0.022778
              13         14         15         16         17
     1  N   -0.010917  -0.014961   0.002434   0.016010  -0.007164
     2  N    0.023488   0.025656  -0.027596  -0.024140   0.005655
     3  C    0.007037  -0.006888   0.019483   0.000505  -0.002081
     4  C   -0.004140   0.004936  -0.011600  -0.000202   0.001284
     5  N    0.004922  -0.000932  -0.003812   0.003437  -0.001577
     6  H   -0.000009  -0.000002  -0.000249   0.000001   0.000013
     7  H   -0.000000   0.000000  -0.000003   0.000000   0.000000
     8  H   -0.002732  -0.001509   0.032168   0.001374  -0.002235
     9  C    0.001782   0.002903   0.005800  -0.003439  -0.003400
    10  O   -0.009290   0.023585  -0.012059   0.029863   0.009831
    11  O   -0.000064  -0.001619  -0.000466   0.000418   0.000073
    12  O    0.264100   0.243326  -0.012767  -0.004456   0.022778
    13  H    0.348380  -0.017934  -0.003384   0.000444  -0.002553
    14  H   -0.017934   0.286861  -0.004132  -0.001366  -0.004783
    15  O   -0.003384  -0.004132   8.275051   0.268856   0.278776
    16  H    0.000444  -0.001366   0.268856   0.280465  -0.025170
    17  H   -0.002553  -0.004783   0.278776  -0.025170   0.319720
          Atomic-Atomic Spin Densities.
               1          2          3          4          5          6
     1  N    0.441032  -0.156401   0.106363   0.015760  -0.212903   0.000081
     2  N   -0.156401   0.433958  -0.205204  -0.029058   0.107951   0.001649
     3  C    0.106363  -0.205204   0.533243   0.046203  -0.100076  -0.004997
     4  C    0.015760  -0.029058   0.046203  -0.223502  -0.000681   0.004142
     5  N   -0.212903   0.107951  -0.100076  -0.000681   0.614077  -0.000712
     6  H    0.000081   0.001649  -0.004997   0.004142  -0.000712  -0.015739
     7  H    0.004742  -0.000398  -0.002470   0.005398  -0.006010   0.000027
     8  H   -0.014100   0.003852  -0.011962   0.002456  -0.002077   0.000426
     9  C    0.027529  -0.001429  -0.009291   0.004083  -0.003680  -0.000186
    10  O   -0.026514   0.022043  -0.003431   0.000660   0.008180   0.000003
    11  O   -0.018413   0.006860  -0.003327   0.001511   0.009452  -0.000003
    12  O    0.007037  -0.020626   0.005172  -0.000643  -0.001438   0.000075
    13  H    0.000065   0.004881  -0.001057  -0.000165   0.000143  -0.000015
    14  H    0.000223   0.000643  -0.000135  -0.000038  -0.000009  -0.000001
    15  O   -0.001052   0.002722   0.000792   0.000108   0.000283   0.000036
    16  H   -0.000037  -0.000700  -0.000236  -0.000058  -0.000032   0.000001
    17  H   -0.000038  -0.000210   0.000053  -0.000017  -0.000050  -0.000001
               7          8          9         10         11         12
     1  N    0.004742  -0.014100   0.027529  -0.026514  -0.018413   0.007037
     2  N   -0.000398   0.003852  -0.001429   0.022043   0.006860  -0.020626
     3  C   -0.002470  -0.011962  -0.009291  -0.003431  -0.003327   0.005172
     4  C    0.005398   0.002456   0.004083   0.000660   0.001511  -0.000643
     5  N   -0.006010  -0.002077  -0.003680   0.008180   0.009452  -0.001438
     6  H    0.000027   0.000426  -0.000186   0.000003  -0.000003   0.000075
     7  H    0.003893   0.000005  -0.000063   0.000005   0.000002   0.000000
     8  H    0.000005   0.040393   0.002290  -0.003444  -0.000039   0.002600
     9  C   -0.000063   0.002290  -0.006376  -0.000048  -0.009570   0.000184
    10  O    0.000005  -0.003444  -0.000048   0.016137   0.001539  -0.003550
    11  O    0.000002  -0.000039  -0.009570   0.001539   0.052464  -0.000133
    12  O    0.000000   0.002600   0.000184  -0.003550  -0.000133   0.014002
    13  H   -0.000000  -0.000348   0.000028   0.000509   0.000020  -0.001067
    14  H   -0.000000  -0.000079  -0.000127   0.000828   0.000024  -0.000560
    15  O    0.000000  -0.003244  -0.000199   0.000013  -0.000039  -0.000653
    16  H    0.000000   0.001404   0.000195   0.000230   0.000032   0.000424
    17  H    0.000000   0.000238  -0.000017   0.000041   0.000000   0.000163
              13         14         15         16         17
     1  N    0.000065   0.000223  -0.001052  -0.000037  -0.000038
     2  N    0.004881   0.000643   0.002722  -0.000700  -0.000210
     3  C   -0.001057  -0.000135   0.000792  -0.000236   0.000053
     4  C   -0.000165  -0.000038   0.000108  -0.000058  -0.000017
     5  N    0.000143  -0.000009   0.000283  -0.000032  -0.000050
     6  H   -0.000015  -0.000001   0.000036   0.000001  -0.000001
     7  H   -0.000000  -0.000000   0.000000   0.000000   0.000000
     8  H   -0.000348  -0.000079  -0.003244   0.001404   0.000238
     9  C    0.000028  -0.000127  -0.000199   0.000195  -0.000017
    10  O    0.000509   0.000828   0.000013   0.000230   0.000041
    11  O    0.000020   0.000024  -0.000039   0.000032   0.000000
    12  O   -0.001067  -0.000560  -0.000653   0.000424   0.000163
    13  H   -0.002876   0.000030   0.000130  -0.000035  -0.000015
    14  H    0.000030  -0.000325   0.000127  -0.000073  -0.000045
    15  O    0.000130   0.000127   0.001939  -0.000947   0.000034
    16  H   -0.000035  -0.000073  -0.000947   0.000655   0.000037
    17  H   -0.000015  -0.000045   0.000034   0.000037  -0.000104
 Mulliken charges and spin densities:
               1          2
     1  N    0.103266   0.173374
     2  N   -0.648059   0.170534
     3  C   -0.268551   0.349639
     4  C   -0.121647  -0.173841
     5  N   -0.202686   0.412420
     6  H    0.147556  -0.015214
     7  H    0.136484   0.005133
     8  H    0.386552   0.018372
     9  C    0.758017   0.003324
    10  O   -0.824352   0.013201
    11  O   -0.560455   0.040380
    12  O   -0.835589   0.000986
    13  H    0.400870   0.000228
    14  H    0.466860   0.000484
    15  O   -0.806499   0.000050
    16  H    0.457399   0.000860
    17  H    0.410835   0.000068
 Sum of Mulliken charges =  -1.00000   1.00000
 Mulliken charges and spin densities with hydrogens summed into heavy atoms:
               1          2
     1  N    0.103266   0.173374
     2  N   -0.261507   0.188905
     3  C   -0.120995   0.334425
     4  C    0.014837  -0.168708
     5  N   -0.202686   0.412420
     9  C    0.758017   0.003324
    10  O   -0.824352   0.013201
    11  O   -0.560455   0.040380
    12  O    0.032141   0.001698
    15  O    0.061734   0.000979
 Electronic spatial extent (au):  <R**2>=           1617.6629
 Charge=             -1.0000 electrons
 Dipole moment (field-independent basis, Debye):
    X=              2.1047    Y=             -6.1314    Z=              0.2416  Tot=              6.4871
 Quadrupole moment (field-independent basis, Debye-Ang):
   XX=            -84.1391   YY=            -79.4069   ZZ=            -70.4908
   XY=             -8.7693   XZ=              0.0340   YZ=             -2.0747
 Traceless Quadrupole moment (field-independent basis, Debye-Ang):
   XX=             -6.1269   YY=             -1.3946   ZZ=              7.5215
   XY=             -8.7693   XZ=              0.0340   YZ=             -2.0747
 Octapole moment (field-independent basis, Debye-Ang**2):
  XXX=             12.0356  YYY=            -51.2850  ZZZ=             -1.9230  XYY=            -10.3741
  XXY=             -1.7745  XXZ=              0.7053  XZZ=             13.2320  YZZ=             12.8917
  YYZ=              5.0146  XYZ=              2.3094
 Hexadecapole moment (field-independent basis, Debye-Ang**3):
 XXXX=          -1226.7608 YYYY=           -826.2580 ZZZZ=           -278.3588 XXXY=            -56.8761
 XXXZ=              5.5287 YYYX=             -9.2069 YYYZ=             -7.0412 ZZZX=              7.8278
 ZZZY=            -10.1713 XXYY=           -334.3924 XXZZ=           -310.4259 YYZZ=           -173.6141
 XXYZ=            -10.8573 YYXZ=             -9.5547 ZZXY=            -13.0824
 N-N= 5.605594926889D+02 E-N=-2.501406593457D+03  KE= 5.787057055635D+02
                          Isotropic Fermi Contact Couplings
        Atom                 a.u.       MegaHertz       Gauss      10(-4) cm-1
     1  N(14)              0.05928      19.15232       6.83403       6.38853
     2  N(14)              0.07241      23.39466       8.34780       7.80362
     3  C(13)              0.04672      52.52744      18.74310      17.52127
     4  C(13)             -0.03639     -40.91275     -14.59869     -13.64702
     5  N(14)              0.09038      29.20119      10.41971       9.74047
     6  H(1)              -0.00457     -20.42324      -7.28752      -6.81246
     7  H(1)               0.00119       5.33585       1.90396       1.77985
     8  H(1)               0.01481      66.18129      23.61513      22.07570
     9  C(13)             -0.00527      -5.92901      -2.11562      -1.97770
    10  O(17)              0.00143      -0.86793      -0.30970      -0.28951
    11  O(17)              0.00869      -5.26548      -1.87885      -1.75637
    12  O(17)              0.00400      -2.42310      -0.86462      -0.80826
    13  H(1)              -0.00068      -3.05376      -1.08966      -1.01863
    14  H(1)              -0.00020      -0.88131      -0.31447      -0.29397
    15  O(17)              0.00217      -1.31402      -0.46887      -0.43831
    16  H(1)              -0.00006      -0.27647      -0.09865      -0.09222
    17  H(1)              -0.00002      -0.09197      -0.03282      -0.03068
 --------------------------------------------------------
       Center         ----  Spin Dipole Couplings  ----
                      3XX-RR        3YY-RR        3ZZ-RR
 --------------------------------------------------------
     1   Atom       -0.331926     -0.337232      0.669158
     2   Atom       -0.171032     -0.253649      0.424681
     3   Atom       -0.151675     -0.143244      0.294919
     4   Atom        0.053618      0.073202     -0.126819
     5   Atom       -0.379845     -0.388011      0.767856
     6   Atom       -0.024221      0.027313     -0.003092
     7   Atom       -0.000375      0.007399     -0.007023
     8   Atom        0.026306     -0.020531     -0.005775
     9   Atom       -0.006710      0.007560     -0.000851
    10   Atom       -0.027217     -0.030140      0.057357
    11   Atom       -0.078453     -0.071016      0.149470
    12   Atom        0.021700     -0.013852     -0.007848
    13   Atom        0.006626     -0.005337     -0.001288
    14   Atom        0.003753     -0.000861     -0.002892
    15   Atom        0.009690     -0.004982     -0.004708
    16   Atom        0.004121     -0.001798     -0.002322
    17   Atom        0.004407     -0.002311     -0.002096
 --------------------------------------------------------
                        XY            XZ            YZ
 --------------------------------------------------------
     1   Atom        0.001634     -0.087089     -0.020479
     2   Atom        0.018402     -0.255806     -0.036346
     3   Atom       -0.006221     -0.056302      0.019375
     4   Atom       -0.001868      0.016394     -0.000004
     5   Atom        0.004982     -0.152786     -0.028370
     6   Atom        0.004935     -0.001658      0.001878
     7   Atom       -0.000404      0.000710     -0.000161
     8   Atom        0.010911      0.021207      0.004620
     9   Atom       -0.010163      0.006238     -0.012094
    10   Atom       -0.000186      0.006690     -0.002110
    11   Atom       -0.000172      0.009640     -0.039654
    12   Atom       -0.003774     -0.016168      0.001452
    13   Atom       -0.001070     -0.007889     -0.001109
    14   Atom       -0.001624     -0.003772     -0.000553
    15   Atom        0.003010      0.001197      0.000629
    16   Atom       -0.000862      0.003359     -0.000252
    17   Atom        0.001013      0.000936      0.000099
 --------------------------------------------------------


 ---------------------------------------------------------------------------------
              Anisotropic Spin Dipole Couplings in Principal Axis System
 ---------------------------------------------------------------------------------

       Atom             a.u.   MegaHertz   Gauss  10(-4) cm-1        Axes

              Baa    -0.3395   -13.092    -4.672    -4.367  0.9935  0.0737  0.0873
     1 N(14)  Bbb    -0.3376   -13.022    -4.647    -4.344 -0.0752  0.9971  0.0138
              Bcc     0.6771    26.114     9.318     8.711 -0.0860 -0.0202  0.9961
 
              Baa    -0.2676   -10.321    -3.683    -3.443  0.8800 -0.3632  0.3061
     2 N(14)  Bbb    -0.2540    -9.795    -3.495    -3.267  0.3241  0.9303  0.1720
              Bcc     0.5216    20.116     7.178     6.710 -0.3472 -0.0521  0.9363
 
              Baa    -0.1596   -21.415    -7.642    -7.143  0.9652  0.2376  0.1094
     3 C(13)  Bbb    -0.1432   -19.218    -6.857    -6.410 -0.2306  0.9703 -0.0725
              Bcc     0.3028    40.633    14.499    13.554 -0.1234  0.0448  0.9913
 
              Baa    -0.1283   -17.216    -6.143    -5.743 -0.0898 -0.0008  0.9960
     4 C(13)  Bbb     0.0549     7.368     2.629     2.458  0.9908  0.1012  0.0894
              Bcc     0.0734     9.848     3.514     3.285 -0.1009  0.9949 -0.0083
 
              Baa    -0.4000   -15.426    -5.504    -5.146  0.9858 -0.1110  0.1263
     5 N(14)  Bbb    -0.3886   -14.986    -5.348    -4.999  0.1070  0.9935  0.0385
              Bcc     0.7886    30.413    10.852    10.145 -0.1297 -0.0245  0.9912
 
              Baa    -0.0248   -13.255    -4.730    -4.422  0.9917 -0.0969  0.0840
     6 H(1)   Bbb    -0.0030    -1.618    -0.577    -0.540 -0.0888 -0.0471  0.9949
              Bcc     0.0279    14.873     5.307     4.961  0.0924  0.9942  0.0553
 
              Baa    -0.0071    -3.788    -1.352    -1.263 -0.1045  0.0081  0.9945
     7 H(1)   Bbb    -0.0003    -0.172    -0.061    -0.057  0.9931  0.0541  0.1039
              Bcc     0.0074     3.960     1.413     1.321 -0.0529  0.9985 -0.0137
 
              Baa    -0.0229   -12.244    -4.369    -4.084 -0.2202  0.9754  0.0095
     8 H(1)   Bbb    -0.0162    -8.670    -3.094    -2.892 -0.4221 -0.1040  0.9006
              Bcc     0.0392    20.914     7.463     6.976  0.8794  0.1943  0.4346
 
              Baa    -0.0120    -1.609    -0.574    -0.537  0.8843  0.4668  0.0116
     9 C(13)  Bbb    -0.0092    -1.240    -0.442    -0.413 -0.2536  0.4594  0.8512
              Bcc     0.0212     2.849     1.017     0.950 -0.3920  0.7557 -0.5247
 
              Baa    -0.0302     2.185     0.780     0.729  0.0102  0.9997  0.0233
    10 O(17)  Bbb    -0.0277     2.007     0.716     0.670  0.9969 -0.0083 -0.0786
              Bcc     0.0579    -4.192    -1.496    -1.398  0.0784 -0.0240  0.9966
 
              Baa    -0.0799     5.784     2.064     1.929  0.8032 -0.5804 -0.1341
    11 O(17)  Bbb    -0.0768     5.560     1.984     1.854  0.5943  0.7961  0.1142
              Bcc     0.1568   -11.344    -4.048    -3.784  0.0405 -0.1714  0.9844
 
              Baa    -0.0150     1.087     0.388     0.363  0.4118  0.2361  0.8802
    12 O(17)  Bbb    -0.0142     1.026     0.366     0.342 -0.0125  0.9672 -0.2536
              Bcc     0.0292    -2.113    -0.754    -0.705  0.9112 -0.0934 -0.4012
 
              Baa    -0.0073    -3.900    -1.392    -1.301  0.4260  0.6078  0.6701
    13 H(1)   Bbb    -0.0042    -2.236    -0.798    -0.746 -0.3051  0.7938 -0.5261
              Bcc     0.0115     6.136     2.190     2.047  0.8517 -0.0196 -0.5237
 
              Baa    -0.0049    -2.639    -0.942    -0.880  0.4256  0.2855  0.8587
    14 H(1)   Bbb    -0.0008    -0.403    -0.144    -0.134  0.0544  0.9391 -0.3392
              Bcc     0.0057     3.042     1.085     1.015  0.9033 -0.1911 -0.3842
 
              Baa    -0.0057     0.415     0.148     0.138 -0.1479  0.9111 -0.3848
    15 O(17)  Bbb    -0.0047     0.337     0.120     0.112 -0.1529  0.3633  0.9190
              Bcc     0.0104    -0.752    -0.268    -0.251  0.9771  0.1947  0.0856
 
              Baa    -0.0038    -2.007    -0.716    -0.669 -0.3967 -0.0565  0.9162
    16 H(1)   Bbb    -0.0019    -1.013    -0.362    -0.338  0.0869  0.9913  0.0987
              Bcc     0.0057     3.020     1.078     1.007  0.9138 -0.1187  0.3883
 
              Baa    -0.0025    -1.316    -0.470    -0.439 -0.1647  0.9741  0.1550
    17 H(1)   Bbb    -0.0022    -1.185    -0.423    -0.395 -0.1115 -0.1745  0.9783
              Bcc     0.0047     2.501     0.892     0.834  0.9800  0.1439  0.1373
 

 ---------------------------------------------------------------------------------

 Calling FoFJK, ICntrl=      2127 FMM=F ISym2X=0 I1Cent= 0 IOpClX= 1 NMat=1 NMatS=1 NMatT=0.
 ***** Axes restored to original set *****
 -------------------------------------------------------------------
 Center     Atomic                   Forces (Hartrees/Bohr)
 Number     Number              X              Y              Z
 -------------------------------------------------------------------
      1        7          -0.000220917   -0.000285597    0.000314941
      2        7          -0.000166353    0.000151942   -0.000042152
      3        6          -0.000212248    0.000015436    0.000032938
      4        6           0.000203514    0.000050663   -0.000028416
      5        7           0.000180118   -0.000174279   -0.000126901
      6        1           0.000000395    0.000012113   -0.000030171
      7        1           0.000012193   -0.000005534    0.000001949
      8        1          -0.000027085    0.000094921    0.000001874
      9        6           0.000326817    0.000501705   -0.000190174
     10        8          -0.000199305   -0.000061781   -0.000056679
     11        8          -0.000027085   -0.000238531    0.000139267
     12        8           0.000036395    0.000062732   -0.000136245
     13        1          -0.000024954   -0.000004086    0.000051905
     14        1           0.000081855   -0.000124933    0.000129803
     15        8          -0.000077906    0.000054633   -0.000021656
     16        1           0.000042455   -0.000039344   -0.000062751
     17        1           0.000072112   -0.000010061    0.000022468
 -------------------------------------------------------------------
 Cartesian Forces:  Max     0.000501705 RMS     0.000144884

 GradGradGradGradGradGradGradGradGradGradGradGradGradGradGradGradGradGrad
 Berny optimization.
 FormGI is forming the generalized inverse of G from B-inverse, IUseBI=4.
 Internal  Forces:  Max     0.000237918 RMS     0.000073112
 Search for a local minimum.
 Step number   1 out of a maximum of   91
 All quantities printed in internal units (Hartrees-Bohrs-Radians)
 Mixed Optimization -- En-DIIS/RFO-DIIS
 Second derivative matrix not updated -- first step.
 ITU=  0
     Eigenvalues ---    0.00230   0.00519   0.00959   0.01265   0.01325
     Eigenvalues ---    0.01361   0.01605   0.02094   0.02193   0.02211
     Eigenvalues ---    0.02418   0.02526   0.03059   0.03389   0.04258
     Eigenvalues ---    0.05726   0.05759   0.10351   0.12201   0.14035
     Eigenvalues ---    0.15852   0.15999   0.16000   0.16000   0.17526
     Eigenvalues ---    0.20472   0.22841   0.23562   0.24985   0.25000
     Eigenvalues ---    0.35233   0.35819   0.36256   0.37349   0.41680
     Eigenvalues ---    0.42814   0.47512   0.50984   0.51851   0.52351
     Eigenvalues ---    0.53346   0.53990   0.54109   0.73166   0.94242
 RFO step:  Lambda=-5.16743327D-06 EMin= 2.30000000D-03
 Linear search not attempted -- first point.
 Iteration  1 RMS(Cart)=  0.00315937 RMS(Int)=  0.00001565
 Iteration  2 RMS(Cart)=  0.00001497 RMS(Int)=  0.00000116
 Iteration  3 RMS(Cart)=  0.00000000 RMS(Int)=  0.00000116
 Variable       Old X    -DE/DX   Delta X   Delta X   Delta X     New X
                                 (Linear)    (Quad)   (Total)
    R1        2.65832  -0.00020   0.00000  -0.00048  -0.00048   2.65784
    R2        2.55763  -0.00017   0.00000  -0.00030  -0.00030   2.55733
    R3        2.76335   0.00024   0.00000   0.00068   0.00068   2.76404
    R4        2.64657   0.00004   0.00000   0.00007   0.00007   2.64665
    R5        1.93715  -0.00001   0.00000  -0.00007  -0.00007   1.93708
    R6        2.59826  -0.00022   0.00000  -0.00045  -0.00045   2.59782
    R7        2.03683  -0.00001   0.00000  -0.00003  -0.00003   2.03681
    R8        2.54255  -0.00013   0.00000  -0.00022  -0.00022   2.54232
    R9        2.04366  -0.00001   0.00000  -0.00003  -0.00003   2.04363
   R10        3.84216   0.00003   0.00000   0.00017   0.00017   3.84233
   R11        2.39701  -0.00010   0.00000  -0.00010  -0.00010   2.39691
   R12        2.31037  -0.00020   0.00000  -0.00022  -0.00022   2.31016
   R13        3.46292   0.00005   0.00000   0.00083   0.00083   3.46376
   R14        3.58273  -0.00005   0.00000  -0.00061  -0.00061   3.58212
   R15        1.82632   0.00002   0.00000   0.00004   0.00004   1.82636
   R16        1.85585  -0.00000   0.00000  -0.00001  -0.00001   1.85584
   R17        1.84742  -0.00005   0.00000  -0.00010  -0.00010   1.84733
   R18        1.83332   0.00000   0.00000   0.00001   0.00001   1.83333
    A1        1.95200  -0.00005   0.00000  -0.00060  -0.00060   1.95140
    A2        2.10927   0.00003   0.00000  -0.00030  -0.00030   2.10897
    A3        2.19763   0.00001   0.00000  -0.00030  -0.00031   2.19731
    A4        1.81454   0.00003   0.00000   0.00026   0.00026   1.81480
    A5        1.96978  -0.00006   0.00000  -0.00067  -0.00067   1.96911
    A6        2.10765   0.00004   0.00000   0.00080   0.00080   2.10845
    A7        1.85543  -0.00006   0.00000  -0.00044  -0.00044   1.85499
    A8        2.11616   0.00003   0.00000   0.00012   0.00012   2.11627
    A9        2.30578   0.00003   0.00000   0.00011   0.00011   2.30589
   A10        1.96277   0.00001   0.00000  -0.00001  -0.00001   1.96276
   A11        2.23081  -0.00002   0.00000  -0.00008  -0.00008   2.23073
   A12        2.08954   0.00001   0.00000   0.00008   0.00008   2.08962
   A13        1.82488   0.00006   0.00000   0.00022   0.00022   1.82509
   A14        2.36566   0.00004   0.00000  -0.00031  -0.00031   2.36535
   A15        1.95220  -0.00003   0.00000   0.00000   0.00000   1.95221
   A16        2.03158  -0.00015   0.00000  -0.00067  -0.00067   2.03091
   A17        2.29899   0.00017   0.00000   0.00060   0.00060   2.29959
   A18        2.08951   0.00010   0.00000   0.00109   0.00109   2.09061
   A19        2.29351  -0.00001   0.00000   0.00003   0.00003   2.29354
   A20        1.39211  -0.00007   0.00000  -0.00034  -0.00034   1.39177
   A21        1.76214  -0.00006   0.00000  -0.00036  -0.00036   1.76178
   A22        2.71393   0.00013   0.00000   0.00050   0.00050   2.71443
   A23        1.76722   0.00006   0.00000   0.00038   0.00038   1.76760
   A24        1.37744   0.00000   0.00000   0.00004   0.00004   1.37748
   A25        1.36632   0.00005   0.00000   0.00058   0.00058   1.36690
   A26        2.56800   0.00005   0.00000   0.00013   0.00013   2.56813
    D1       -0.16946  -0.00004   0.00000  -0.00317  -0.00317  -0.17263
    D2       -2.48364  -0.00007   0.00000  -0.00394  -0.00394  -2.48758
    D3       -3.08938   0.00004   0.00000   0.00224   0.00224  -3.08714
    D4        0.87964   0.00001   0.00000   0.00147   0.00147   0.88110
    D5        0.12653   0.00003   0.00000   0.00263   0.00263   0.12916
    D6        3.03290  -0.00005   0.00000  -0.00311  -0.00311   3.02979
    D7       -0.18109  -0.00004   0.00000  -0.00057  -0.00057  -0.18166
    D8        2.98760   0.00001   0.00000   0.00162   0.00162   2.98921
    D9       -3.06795   0.00006   0.00000   0.00568   0.00568  -3.06226
   D10        0.10074   0.00011   0.00000   0.00787   0.00787   0.10861
   D11        0.13981   0.00003   0.00000   0.00237   0.00237   0.14218
   D12       -3.10426   0.00001   0.00000   0.00049   0.00049  -3.10377
   D13        2.37154   0.00002   0.00000   0.00231   0.00231   2.37385
   D14       -0.87253  -0.00001   0.00000   0.00043   0.00043  -0.87210
   D15       -0.81287  -0.00001   0.00000  -0.00244  -0.00244  -0.81531
   D16       -2.97287  -0.00004   0.00000  -0.00289  -0.00289  -2.97576
   D17       -0.07258  -0.00001   0.00000  -0.00087  -0.00087  -0.07345
   D18        3.05635  -0.00002   0.00000  -0.00126  -0.00126   3.05509
   D19       -3.09600   0.00002   0.00000   0.00130   0.00130  -3.09470
   D20        0.03293   0.00002   0.00000   0.00092   0.00092   0.03384
   D21       -0.03139  -0.00001   0.00000  -0.00105  -0.00105  -0.03244
   D22        3.12172  -0.00001   0.00000  -0.00070  -0.00070   3.12102
   D23        0.15666   0.00001   0.00000   0.00181   0.00181   0.15847
   D24       -2.56895  -0.00001   0.00000   0.00222   0.00222  -2.56673
   D25        1.10710  -0.00001   0.00000   0.00087   0.00087   1.10797
   D26       -0.69635   0.00000   0.00000   0.00023   0.00023  -0.69611
   D27       -2.06702  -0.00006   0.00000  -0.00178  -0.00178  -2.06880
   D28        2.41273  -0.00006   0.00000  -0.00242  -0.00242   2.41031
   D29       -1.45460  -0.00000   0.00000  -0.00593  -0.00593  -1.46052
   D30        0.85152  -0.00002   0.00000  -0.00580  -0.00580   0.84572
   D31        0.70244   0.00000   0.00000  -0.00050  -0.00050   0.70195
   D32        1.51950   0.00005   0.00000   0.00085   0.00085   1.52034
   D33       -1.40636  -0.00007   0.00000  -0.00169  -0.00169  -1.40805
   D34       -0.58930  -0.00003   0.00000  -0.00035  -0.00035  -0.58965
   D35        0.85094  -0.00008   0.00000  -0.00622  -0.00622   0.84472
   D36        1.49925   0.00008   0.00000   0.00530   0.00530   1.50455
   D37        0.67980   0.00005   0.00000   0.00407   0.00407   0.68387
         Item               Value     Threshold  Converged?
 Maximum Force            0.000238     0.000450     YES
 RMS     Force            0.000073     0.000300     YES
 Maximum Displacement     0.015137     0.001800     NO 
 RMS     Displacement     0.003159     0.001200     NO 
 Predicted change in Energy=-2.581979D-06
 GradGradGradGradGradGradGradGradGradGradGradGradGradGradGradGradGradGrad

                          Input orientation:                          
 ---------------------------------------------------------------------
 Center     Atomic      Atomic             Coordinates (Angstroms)
 Number     Number       Type             X           Y           Z
 ---------------------------------------------------------------------
      1          7           0       -0.857802    0.311503    0.122131
      2          7           0       -0.280810   -0.968273    0.036045
      3          6           0       -1.380346   -1.835766    0.034653
      4          6           0       -2.497630   -1.041738   -0.070271
      5          7           0       -2.200092    0.270042   -0.044905
      6          1           0       -1.248806   -2.905279    0.011018
      7          1           0       -3.526894   -1.356190   -0.176357
      8          1           0        0.491927   -1.101243    0.696304
      9          6           0       -0.025309    1.513472    0.081973
     10          8           0        1.208661    1.236600    0.179280
     11          8           0       -0.616031    2.580334   -0.003571
     12          8           0        2.290191   -0.588712   -1.581211
     13          1           0        1.446532   -1.058884   -1.616464
     14          1           0        2.023464    0.238873   -1.124679
     15          8           0        2.453783   -0.947032    1.338368
     16          1           0        2.129075   -0.029354    1.248584
     17          1           0        2.754804   -1.131022    0.434632
 ---------------------------------------------------------------------
                    Distance matrix (angstroms):
                    1          2          3          4          5
     1  N    0.000000
     2  N    1.406470   0.000000
     3  C    2.211666   1.400545   0.000000
     4  C    2.134786   2.220584   1.374705   0.000000
     5  N    1.353278   2.285525   2.261137   1.345340   0.000000
     6  H    3.242363   2.165557   1.077831   2.244762   3.315229
     7  H    3.161383   3.276074   2.209567   1.081443   2.102930
     8  H    2.036491   1.025059   2.117242   3.086848   3.110753
     9  C    1.462665   2.495286   3.613276   3.558742   2.508365
    10  O    2.264804   2.664677   4.020361   4.357716   3.550223
    11  O    2.285137   3.564626   4.481917   4.082189   2.801501
    12  O    3.690748   3.060985   4.199882   5.040973   4.822898
    13  H    3.195407   2.392218   3.364665   4.236440   4.187327
    14  H    3.140303   2.848536   4.151397   4.815810   4.359508
    15  O    3.745629   3.028942   4.146090   5.148759   5.005324
    16  H    3.210376   2.856460   4.129502   4.916370   4.528183
    17  H    3.902494   3.065993   4.213801   5.277401   5.171454
                    6          7          8          9         10
     6  H    0.000000
     7  H    2.761245   0.000000
     8  H    2.598907   4.120372   0.000000
     9  C    4.585558   4.534622   2.735265   0.000000
    10  O    4.818985   5.410593   2.499305   1.268388   0.000000
    11  O    5.522008   4.898898   3.907864   1.222483   2.273446
    12  O    4.519533   6.033334   2.946781   3.542161   2.756955
    13  H    3.650030   5.186257   2.502391   3.415849   2.924128
    14  H    4.677953   5.852351   2.730841   2.697792   1.832941
    15  O    4.393831   6.183065   2.070001   3.711941   2.768043
    16  H    4.605713   5.981717   2.033276   2.895284   1.895577
    17  H    4.399583   6.315358   2.278151   3.853148   2.839260
                   11         12         13         14         15
    11  O    0.000000
    12  O    4.580167   0.000000
    13  H    4.483246   0.966471   0.000000
    14  H    3.702196   0.982070   1.502956   0.000000
    15  O    4.864860   2.946030   3.123795   2.767335   0.000000
    16  H    3.989232   2.889045   3.119984   2.390706   0.977563
    17  H    5.032764   2.138595   2.433881   2.200663   0.970157
                   16         17
    16  H    0.000000
    17  H    1.505897   0.000000
 Stoichiometry    C3H7N3O4(1-,2)
 Framework group  C1[X(C3H7N3O4)]
 Deg. of freedom    45
 Full point group                 C1      NOp   1
 Largest Abelian subgroup         C1      NOp   1
 Largest concise Abelian subgroup C1      NOp   1
                         Standard orientation:                         
 ---------------------------------------------------------------------
 Center     Atomic      Atomic             Coordinates (Angstroms)
 Number     Number       Type             X           Y           Z
 ---------------------------------------------------------------------
      1          7           0        0.857641    0.311107   -0.121191
      2          7           0        0.280105   -0.968537   -0.036797
      3          6           0        1.379308   -1.836452   -0.035641
      4          6           0        2.496832   -1.042963    0.070798
      5          7           0        2.199812    0.268957    0.046623
      6          1           0        1.247344   -2.905939   -0.013205
      7          1           0        3.525910   -1.357922    0.177185
      8          1           0       -0.492278   -1.100518   -0.697668
      9          6           0        0.025584    1.513354   -0.080284
     10          8           0       -1.208432    1.237056   -0.178636
     11          8           0        0.616662    2.579898    0.006738
     12          8           0       -2.291740   -0.589682    1.579281
     13          1           0       -1.448283   -1.060214    1.614559
     14          1           0       -2.024416    0.238278    1.123779
     15          8           0       -2.453681   -0.944883   -1.340770
     16          1           0       -2.128677   -0.027424   -1.249828
     17          1           0       -2.755326   -1.129703   -0.437413
 ---------------------------------------------------------------------
 Rotational constants (GHZ):           1.5010561           1.0208190           0.7429323
 Standard basis: 6-31+G(d,p) (6D, 7F)
 There are   225 symmetry adapted cartesian basis functions of A   symmetry.
 There are   225 symmetry adapted basis functions of A   symmetry.
   225 basis functions,   369 primitive gaussians,   225 cartesian basis functions
    40 alpha electrons       39 beta electrons
       nuclear repulsion energy       560.5333165677 Hartrees.
 NAtoms=   17 NActive=   17 NUniq=   17 SFac= 1.00D+00 NAtFMM=   60 NAOKFM=F Big=F
 Integral buffers will be    131072 words long.
 Raffenetti 2 integral format.
 Two-electron integral symmetry is turned on.
 One-electron integrals computed using PRISM.
 NBasis=   225 RedAO= T EigKep=  2.97D-05  NBF=   225
 NBsUse=   225 1.00D-06 EigRej= -1.00D+00 NBFU=   225
 Initial guess from the checkpoint file:  "/scratch/gongke2021/RC/Gau-8067.chk"
 B after Tr=    -0.000000    0.000000    0.000000
         Rot=    1.000000   -0.000265    0.000142    0.000227 Ang=  -0.04 deg.
 Initial guess <Sx>= 0.0000 <Sy>= 0.0000 <Sz>= 0.5000 <S**2>= 0.7652 S= 0.5076
 Requested convergence on RMS density matrix=1.00D-08 within 128 cycles.
 Requested convergence on MAX density matrix=1.00D-06.
 Requested convergence on             energy=1.00D-06.
 No special actions if energy rises.
 SCF Done:  E(UM062X) =  -583.503137770     A.U. after   11 cycles
            NFock= 11  Conv=0.86D-08     -V/T= 2.0083
 <Sx>= 0.0000 <Sy>= 0.0000 <Sz>= 0.5000 <S**2>= 0.7652 S= 0.5076
 <L.S>=  0.00000000000    
 Annihilation of the first spin contaminant:
 S**2 before annihilation     0.7652,   after     0.7501
 Calling FoFJK, ICntrl=      2127 FMM=F ISym2X=0 I1Cent= 0 IOpClX= 1 NMat=1 NMatS=1 NMatT=0.
 ***** Axes restored to original set *****
 -------------------------------------------------------------------
 Center     Atomic                   Forces (Hartrees/Bohr)
 Number     Number              X              Y              Z
 -------------------------------------------------------------------
      1        7          -0.000139466   -0.000222846    0.000153561
      2        7           0.000116697    0.000007532    0.000029477
      3        6           0.000015912   -0.000070084    0.000006644
      4        6          -0.000001250    0.000079600   -0.000049667
      5        7           0.000001787    0.000003228   -0.000062317
      6        1           0.000005450    0.000003605   -0.000031007
      7        1          -0.000004600    0.000001086    0.000007029
      8        1          -0.000053641    0.000002147    0.000019628
      9        6           0.000205685    0.000333809    0.000083354
     10        8          -0.000223911   -0.000028878   -0.000142370
     11        8           0.000027924   -0.000086321   -0.000004108
     12        8          -0.000015490   -0.000015104    0.000000990
     13        1          -0.000095576    0.000067217   -0.000104854
     14        1           0.000111993   -0.000089901    0.000087169
     15        8          -0.000028356   -0.000015315    0.000039558
     16        1           0.000032408   -0.000006411   -0.000095446
     17        1           0.000044433    0.000036635    0.000062358
 -------------------------------------------------------------------
 Cartesian Forces:  Max     0.000333809 RMS     0.000093201

 GradGradGradGradGradGradGradGradGradGradGradGradGradGradGradGradGradGrad
 Berny optimization.
 Using GEDIIS/GDIIS optimizer.
 FormGI is forming the generalized inverse of G from B-inverse, IUseBI=4.
 Internal  Forces:  Max     0.000249570 RMS     0.000067418
 Search for a local minimum.
 Step number   2 out of a maximum of   91
 All quantities printed in internal units (Hartrees-Bohrs-Radians)
 Mixed Optimization -- En-DIIS/RFO-DIIS
 Swapping is turned off.
 Update second derivatives using D2CorX and points    1    2
 DE= -1.54D-06 DEPred=-2.58D-06 R= 5.95D-01
 TightC=F SS=  1.41D+00  RLast= 1.90D-02 DXNew= 5.0454D-01 5.6914D-02
 Trust test= 5.95D-01 RLast= 1.90D-02 DXMaxT set to 3.00D-01
 ITU=  1  0
     Eigenvalues ---    0.00217   0.00540   0.00719   0.00985   0.01335
     Eigenvalues ---    0.01584   0.01977   0.02089   0.02207   0.02415
     Eigenvalues ---    0.02456   0.02920   0.03305   0.03651   0.04345
     Eigenvalues ---    0.05712   0.05790   0.11130   0.12353   0.14600
     Eigenvalues ---    0.15839   0.15849   0.15999   0.16126   0.17397
     Eigenvalues ---    0.20733   0.22613   0.23654   0.24417   0.25067
     Eigenvalues ---    0.34431   0.35821   0.36256   0.37203   0.41721
     Eigenvalues ---    0.42710   0.47826   0.50985   0.51790   0.52054
     Eigenvalues ---    0.53422   0.54000   0.54168   0.72992   0.93689
 En-DIIS/RFO-DIIS/Sim-DIIS IScMMF=       -3 using points:     2    1
 RFO step:  Lambda=-2.19381811D-05.
 DidBck=F Rises=F RFO-DIIS coefs:    3.00000   -2.00000
 Iteration  1 RMS(Cart)=  0.01224219 RMS(Int)=  0.00010817
 Iteration  2 RMS(Cart)=  0.00011954 RMS(Int)=  0.00002721
 Iteration  3 RMS(Cart)=  0.00000001 RMS(Int)=  0.00002721
 Variable       Old X    -DE/DX   Delta X   Delta X   Delta X     New X
                                 (Linear)    (Quad)   (Total)
    R1        2.65784   0.00003  -0.00096  -0.00098  -0.00190   2.65594
    R2        2.55733  -0.00002  -0.00060  -0.00067  -0.00125   2.55607
    R3        2.76404   0.00022   0.00137   0.00191   0.00330   2.76733
    R4        2.64665   0.00001   0.00015   0.00017   0.00031   2.64696
    R5        1.93708  -0.00006  -0.00014  -0.00025  -0.00040   1.93668
    R6        2.59782   0.00005  -0.00090  -0.00088  -0.00180   2.59601
    R7        2.03681  -0.00000  -0.00006  -0.00006  -0.00012   2.03669
    R8        2.54232  -0.00003  -0.00045  -0.00051  -0.00097   2.54136
    R9        2.04363   0.00000  -0.00006  -0.00006  -0.00011   2.04352
   R10        3.84233  -0.00003   0.00034  -0.00033  -0.00000   3.84233
   R11        2.39691  -0.00015  -0.00020  -0.00038  -0.00058   2.39633
   R12        2.31016  -0.00009  -0.00043  -0.00054  -0.00097   2.30919
   R13        3.46376   0.00004   0.00166   0.00226   0.00392   3.46768
   R14        3.58212   0.00003  -0.00122  -0.00093  -0.00215   3.57997
   R15        1.82636   0.00006   0.00008   0.00017   0.00025   1.82662
   R16        1.85584  -0.00002  -0.00002  -0.00005  -0.00007   1.85577
   R17        1.84733  -0.00001  -0.00019  -0.00022  -0.00042   1.84691
   R18        1.83333  -0.00005   0.00001  -0.00006  -0.00005   1.83328
    A1        1.95140   0.00003  -0.00120  -0.00136  -0.00267   1.94873
    A2        2.10897   0.00002  -0.00060  -0.00109  -0.00177   2.10720
    A3        2.19731  -0.00005  -0.00062  -0.00084  -0.00163   2.19569
    A4        1.81480  -0.00002   0.00052   0.00060   0.00112   1.81592
    A5        1.96911   0.00000  -0.00133  -0.00147  -0.00281   1.96631
    A6        2.10845   0.00002   0.00160   0.00225   0.00385   2.11230
    A7        1.85499  -0.00002  -0.00088  -0.00108  -0.00198   1.85300
    A8        2.11627   0.00000   0.00023   0.00025   0.00047   2.11675
    A9        2.30589   0.00001   0.00021   0.00028   0.00048   2.30637
   A10        1.96276   0.00002  -0.00001   0.00006   0.00004   1.96280
   A11        2.23073  -0.00001  -0.00015  -0.00021  -0.00036   2.23038
   A12        2.08962  -0.00001   0.00016   0.00014   0.00030   2.08992
   A13        1.82509  -0.00001   0.00044   0.00044   0.00090   1.82600
   A14        2.36535  -0.00005  -0.00062  -0.00136  -0.00199   2.36336
   A15        1.95221  -0.00008   0.00001  -0.00065  -0.00061   1.95159
   A16        2.03091   0.00002  -0.00135  -0.00118  -0.00256   2.02835
   A17        2.29959   0.00007   0.00120   0.00172   0.00289   2.30248
   A18        2.09061  -0.00009   0.00219   0.00188   0.00407   2.09467
   A19        2.29354   0.00002   0.00005  -0.00016  -0.00011   2.29343
   A20        1.39177   0.00011  -0.00068   0.00024  -0.00044   1.39133
   A21        1.76178  -0.00008  -0.00071  -0.00114  -0.00185   1.75993
   A22        2.71443   0.00007   0.00100   0.00128   0.00228   2.71672
   A23        1.76760  -0.00001   0.00076   0.00076   0.00152   1.76913
   A24        1.37748   0.00004   0.00008  -0.00005   0.00001   1.37749
   A25        1.36690   0.00004   0.00116   0.00166   0.00284   1.36974
   A26        2.56813   0.00013   0.00026   0.00072   0.00096   2.56910
    D1       -0.17263  -0.00000  -0.00634  -0.00750  -0.01383  -0.18646
    D2       -2.48758  -0.00002  -0.00788  -0.00984  -0.01771  -2.50529
    D3       -3.08714   0.00005   0.00448   0.00699   0.01146  -3.07568
    D4        0.88110   0.00003   0.00293   0.00465   0.00758   0.88868
    D5        0.12916  -0.00000   0.00525   0.00625   0.01150   0.14066
    D6        3.02979  -0.00004  -0.00622  -0.00917  -0.01538   3.01441
    D7       -0.18166   0.00004  -0.00114  -0.00068  -0.00181  -0.18347
    D8        2.98921   0.00000   0.00323   0.00256   0.00577   2.99499
    D9       -3.06226   0.00009   0.01137   0.01606   0.02742  -3.03484
   D10        0.10861   0.00005   0.01573   0.01929   0.03500   0.14361
   D11        0.14218  -0.00000   0.00474   0.00556   0.01031   0.15249
   D12       -3.10377  -0.00001   0.00098   0.00085   0.00183  -3.10194
   D13        2.37385   0.00000   0.00462   0.00581   0.01045   2.38430
   D14       -0.87210  -0.00001   0.00085   0.00110   0.00197  -0.87013
   D15       -0.81531  -0.00005  -0.00488  -0.00736  -0.01226  -0.82757
   D16       -2.97576  -0.00005  -0.00577  -0.00880  -0.01460  -2.99035
   D17       -0.07345  -0.00000  -0.00175  -0.00200  -0.00374  -0.07719
   D18        3.05509   0.00000  -0.00251  -0.00291  -0.00542   3.04967
   D19       -3.09470   0.00001   0.00260   0.00345   0.00607  -3.08863
   D20        0.03384   0.00002   0.00184   0.00255   0.00439   0.03823
   D21       -0.03244   0.00000  -0.00210  -0.00255  -0.00465  -0.03710
   D22        3.12102  -0.00000  -0.00140  -0.00172  -0.00312   3.11790
   D23        0.15847   0.00005   0.00362   0.00473   0.00834   0.16682
   D24       -2.56673  -0.00006   0.00445   0.00526   0.00970  -2.55703
   D25        1.10797   0.00003   0.00174   0.00090   0.00265   1.11062
   D26       -0.69611  -0.00006   0.00047  -0.00130  -0.00083  -0.69694
   D27       -2.06880   0.00008  -0.00356  -0.00306  -0.00663  -2.07543
   D28        2.41031  -0.00001  -0.00483  -0.00526  -0.01011   2.40020
   D29       -1.46052   0.00016  -0.01185   0.04820   0.03634  -1.42418
   D30        0.84572   0.00023  -0.01160   0.04867   0.03707   0.88279
   D31        0.70195   0.00007  -0.00099   0.00038  -0.00061   0.70134
   D32        1.52034   0.00003   0.00169   0.00321   0.00491   1.52525
   D33       -1.40805   0.00008  -0.00338  -0.00236  -0.00574  -1.41379
   D34       -0.58965   0.00004  -0.00070   0.00047  -0.00023  -0.58988
   D35        0.84472   0.00025  -0.01244   0.00113  -0.01131   0.83342
   D36        1.50455   0.00004   0.01059   0.01483   0.02542   1.52997
   D37        0.68387   0.00008   0.00814   0.01236   0.02051   0.70438
         Item               Value     Threshold  Converged?
 Maximum Force            0.000250     0.000450     YES
 RMS     Force            0.000067     0.000300     YES
 Maximum Displacement     0.043195     0.001800     NO 
 RMS     Displacement     0.012235     0.001200     NO 
 Predicted change in Energy=-1.103537D-05
 GradGradGradGradGradGradGradGradGradGradGradGradGradGradGradGradGradGrad

                          Input orientation:                          
 ---------------------------------------------------------------------
 Center     Atomic      Atomic             Coordinates (Angstroms)
 Number     Number       Type             X           Y           Z
 ---------------------------------------------------------------------
      1          7           0       -0.858873    0.310963    0.134409
      2          7           0       -0.282645   -0.968115    0.049291
      3          6           0       -1.381794   -1.836336    0.042374
      4          6           0       -2.495958   -1.042036   -0.079751
      5          7           0       -2.197425    0.269015   -0.055550
      6          1           0       -1.250038   -2.905781    0.019734
      7          1           0       -3.523811   -1.356103   -0.199215
      8          1           0        0.489176   -1.098299    0.710846
      9          6           0       -0.023737    1.512852    0.084341
     10          8           0        1.209796    1.233824    0.176912
     11          8           0       -0.615955    2.578771    0.004955
     12          8           0        2.279607   -0.596063   -1.590103
     13          1           0        1.426585   -1.048140   -1.638093
     14          1           0        2.024404    0.230997   -1.126177
     15          8           0        2.457672   -0.944367    1.340942
     16          1           0        2.132093   -0.027548    1.247987
     17          1           0        2.775620   -1.126301    0.442629
 ---------------------------------------------------------------------
                    Distance matrix (angstroms):
                    1          2          3          4          5
     1  N    0.000000
     2  N    1.405462   0.000000
     3  C    2.211970   1.400708   0.000000
     4  C    2.134601   2.218304   1.373750   0.000000
     5  N    1.352614   2.282074   2.259944   1.344829   0.000000
     6  H    3.242469   2.165935   1.077768   2.244050   3.313992
     7  H    3.161061   3.273751   2.208444   1.081384   2.102605
     8  H    2.033602   1.024847   2.119453   3.088566   3.110424
     9  C    1.464410   2.494686   3.614297   3.558969   2.508310
    10  O    2.265584   2.663119   4.019990   4.356378   3.548809
    11  O    2.284452   3.562788   4.481192   4.080666   2.799943
    12  O    3.694143   3.064501   4.196321   5.028527   4.811135
    13  H    3.195660   2.403151   3.366336   4.220760   4.168067
    14  H    3.147818   2.853431   4.152296   4.811372   4.355632
    15  O    3.745804   3.029565   4.150107   5.154257   5.009233
    16  H    3.209442   2.855258   4.131902   4.920460   4.531212
    17  H    3.920493   3.087510   4.236560   5.298067   5.189052
                    6          7          8          9         10
     6  H    0.000000
     7  H    2.760341   0.000000
     8  H    2.601825   4.122953   0.000000
     9  C    4.586099   4.534515   2.733807   0.000000
    10  O    4.817865   5.408903   2.498635   1.268081   0.000000
    11  O    5.521104   4.896994   3.903901   1.221968   2.274163
    12  O    4.514949   6.015969   2.958420   3.543541   2.759588
[...]
   yx        -0.105279D+02     -0.156007D+01     -0.173582D+01
   yy         0.647384D+02      0.959324D+01      0.106739D+02
   zx        -0.740820D+00     -0.109778D+00     -0.122145D+00
   zy         0.218022D+01      0.323075D+00      0.359469D+00
   zz         0.105399D+03      0.156184D+02      0.173779D+02

 ----------------------------------------------------------------------
 1\1\GINC-NODE4\Freq\UM062X\6-31+G(d,p)\C3H7N3O4(1-,2)\GONGKE2021\06-Ju
 n-2023\0\\#N Geom=AllCheck Guess=TCheck SCRF=Check GenChk UM062X/6-31+
 G(d,p) Freq\\RC\\-1,2\N,-0.8582757068,0.311926673,0.1481707821\N,-0.27
 97194024,-0.9666406847,0.0464761025\C,-1.3780728113,-1.8352355546,0.03
 06916146\C,-2.4954027531,-1.0410371624,-0.0740980803\N,-2.1990455773,0
 .270379142,-0.0339916434\H,-1.24538359,-2.9043112514,-0.0048741008\H,-
 3.5235417408,-1.3553426653,-0.1911655617\H,0.4909929929,-1.1072578657,
 0.7072028128\C,-0.0256779759,1.5151284429,0.0824273694\O,1.2089688629,
 1.2398323416,0.1682766162\O,-0.6183753997,2.5803129284,-0.0070663556\O
 ,2.2851497505,-0.5982817584,-1.5825044117\H,1.4365496907,-1.0594974178
 ,-1.6183389174\H,2.0253491189,0.2316231896,-1.1264264742\O,2.454953380
 8,-0.9389149592,1.3407321176\H,2.1304570315,-0.0221541692,1.2408181902
 \H,2.7557921293,-1.1331982289,0.4392029397\\Version=ES64L-G16RevA.03\S
 tate=2-A\HF=-583.5031467\S2=0.765252\S2-1=0.\S2A=0.75008\RMSD=2.753e-0
 9\RMSF=2.700e-05\ZeroPoint=0.1231502\Thermal=0.1349857\Dipole=-0.81936
 42,-2.4135114,-0.0930081\DipoleDeriv=-0.4200826,-0.9162959,-0.0614064,
 -0.63889,-0.8378073,0.0338488,-0.0362321,-0.0234536,-0.1229655,-0.9453
 296,0.2109035,0.0497031,0.0647561,-0.0485797,0.0144384,0.2304092,-0.09
 34407,-0.1318869,0.1696083,0.0939903,-0.0773211,0.0913505,-0.3697295,0
 .0335411,-0.0535517,0.1966747,-0.3403933,0.2953264,-0.1332842,0.077447
 ,-0.1383062,0.6446701,-0.091277,0.0375235,-0.0320277,-0.0813872,-0.280
 0173,0.2772296,0.0605239,0.1700794,-0.6922316,0.0669299,-0.0216296,0.0
 475268,-0.2011013,0.0686443,0.0116625,-0.0048387,-0.0034915,-0.0496872
 ,-0.0103188,0.0060682,-0.0711772,0.224758,-0.0880546,-0.0811377,-0.024
 804,-0.0634849,0.0659391,-0.0067355,-0.0302196,-0.015067,0.1439617,0.6
 119249,-0.0500589,0.0809916,-0.0217515,0.1897397,-0.0292926,-0.0101331
 ,0.0015028,0.2672169,2.4352978,0.1622362,0.0667486,0.2640872,2.7880978
 ,-0.0920058,0.1145586,-0.1251888,0.3064355,-1.9464696,0.0965334,-0.028
 0233,0.2531393,-0.917511,-0.016642,-0.0663014,-0.0031633,-0.630995,-0.
 8179324,0.4208064,-0.0273857,0.1965405,-1.7853397,0.0460302,-0.0365695
 ,0.0709212,-0.4552985,-0.6683268,0.0772946,0.0424548,0.1370975,-0.6872
 017,-0.041674,0.1724477,-0.0668711,-0.8834784,0.2824845,-0.0551031,-0.
 0579264,-0.0197541,0.256318,0.0041276,-0.1087801,0.032615,0.3702947,0.
 4136822,-0.0635359,-0.1094327,-0.1810526,0.4237348,0.1438629,-0.246894
 7,0.1301702,0.4650768,-1.0113007,0.087902,-0.142346,0.1189237,-0.66888
 61,0.009482,-0.1612234,0.0148926,-0.6501391,0.5095748,-0.1050255,0.121
 3734,-0.1896547,0.4080882,-0.0676208,0.1642195,-0.044741,0.3457047,0.3
 909702,-0.0341173,0.0342419,-0.039589,0.2803862,0.0033055,0.0463086,-0
 .019173,0.3741971\Polar=101.973082,2.5290278,104.159833,1.5518486,-0.7
 698408,61.6551411\Quadrupole=-4.5416756,-0.9798186,5.5214941,6.5085519
 ,0.1448692,1.559245\PG=C01 [X(C3H7N3O4)]\NImag=0\\0.65283624,0.0785210
 9,0.64885017,0.06038620,0.01895223,0.05402051,-0.11089467,0.03285685,-
 0.00632966,0.70347515,0.05311778,-0.20469791,-0.02689281,0.01405179,0.
 48744298,-0.02683870,-0.02189271,-0.03191421,0.24308272,-0.02017493,0.
 25447608,-0.00827037,-0.03089342,-0.00258122,-0.22713063,-0.10588657,-
 0.02918122,0.60367800,-0.02165957,-0.07932632,-0.00130201,-0.07946615,
 -0.16187283,0.00168280,-0.09087781,0.83282427,0.00461867,-0.00760357,-
 0.00469133,-0.00733864,0.01392673,-0.03919102,0.04247034,0.00507657,0.
 08102956,-0.06988388,-0.04742487,-0.00735741,-0.06959088,-0.02071342,-
 0.00892306,-0.30275423,0.13053774,-0.02203038,0.88226670,-0.04892371,-
 0.03328340,-0.00424367,0.00663460,-0.00200021,-0.00418127,0.10598342,-
 0.14480623,0.00327696,0.06897525,0.56265639,-0.01146461,-0.00789656,0.
 00678419,-0.00184049,0.00023077,0.01001843,-0.02383328,0.00835995,-0.0
 5440535,0.07749634,0.02186299,0.12989170,-0.27397760,0.02328016,-0.033
 74337,-0.07512996,0.03586884,0.00095913,0.02395452,0.01816465,-0.00744
 441,-0.10994725,-0.07695731,-0.00804983,0.45407474,-0.04449325,-0.1124
 5599,-0.00672673,0.01972114,-0.00880202,0.00902595,0.07570264,-0.11256
 277,0.01149993,-0.05564782,-0.28954505,-0.01342944,0.03636177,0.521127
 04,-0.03822963,0.00287376,-0.03242840,-0.00496243,0.00039238,-0.002993
 02,0.00026771,0.00393525,0.02697877,-0.00558138,-0.01370001,-0.0565336
 9,0.04761003,0.00950689,0.07126569,-0.00761471,-0.00329747,-0.00020230
 ,0.00860364,-0.02728731,0.00003115,-0.06200855,0.04678977,-0.00028111,
 0.00968458,0.02026164,0.00227943,-0.00378653,0.00411805,-0.00095580,0.
 05365838,-0.00094803,-0.00070167,0.00025629,0.00562946,-0.01115289,-0.
 00043067,0.03822618,-0.36271934,-0.00947750,-0.00412700,-0.00592877,-0
 .00106831,-0.00011045,0.00077188,-0.00016765,-0.03960742,0.38101914,-0
 .00244819,-0.00194379,0.00219959,0.00100661,0.00035163,-0.00442701,-0.
 00050065,-0.01466907,-0.01238632,0.00043823,0.00484607,-0.00209206,0.0
 0075340,-0.00124963,0.00658319,-0.00022616,0.01092429,0.01223729,0.000
 97391,-0.00042963,-0.00042397,-0.00182372,0.00231276,-0.00215363,-0.01
 013488,-0.01140613,-0.00094617,-0.33153137,-0.07719986,-0.03344140,-0.
 00242625,-0.00288820,0.00014978,-0.00024855,0.00052065,0.00019330,0.34
 530297,-0.00298655,-0.00836229,0.00023434,0.00389605,-0.00348742,0.001
 28674,0.01456318,0.01303240,0.00093620,-0.07209761,-0.08024956,-0.0082
 8491,-0.03129452,-0.00324487,-0.00383536,-0.00072194,-0.00033579,0.000
 03432,0.08933835,0.08040651,-0.00089338,0.00035499,0.00730047,-0.00134
 939,-0.00172948,0.00713788,-0.00068654,-0.00103253,0.00010772,-0.03370
 460,-0.01005025,-0.03634398,0.00061075,0.00070645,-0.00563211,0.000069
 24,0.00017383,-0.00230238,0.03616933,0.01059305,0.02882709,-0.01439965
 ,0.00220199,-0.00140780,-0.22581390,0.03611821,-0.17757478,-0.01703341
 ,0.00058382,-0.00843259,-0.00095724,-0.00345259,-0.00109574,0.00432643
 ,0.00109302,-0.00171837,0.00007010,-0.00005682,0.00024196,-0.00016718,
 0.00035631,0.00004130,0.25278436,0.02902402,-0.00439221,0.02051385,0.0
 2713022,-0.06633547,0.02615808,-0.01495485,0.01124874,-0.01682084,-0.0
 0455892,-0.00599683,-0.00110675,0.00221237,-0.00481519,0.00114053,0.00
 031915,-0.00060169,0.00067114,-0.00059236,0.00074145,0.00108643,-0.037
 67897,0.07337125,0.01256868,0.00394949,0.00679773,-0.21793203,0.036285
 60,-0.18870428,0.01151586,-0.00383509,0.00216577,0.00225825,0.00132978
 ,0.00084839,0.00232352,-0.00385926,-0.00130278,-0.00057736,0.00006245,
 -0.00001995,0.00073420,-0.00063577,0.00046400,0.18836799,-0.02965280,0
 .18511405,-0.09708354,-0.02691991,-0.00681472,0.00093237,0.01311528,0.
 00668190,0.00220600,0.01599489,-0.00195346,-0.00590324,0.00030532,0.00
 002383,-0.02007867,-0.01756908,0.00248999,0.00181732,0.00135771,0.0009
 8914,0.00063715,-0.00012810,-0.00021911,0.01098183,0.00661230,-0.00206
 747,0.80073766,-0.00600212,-0.11720686,-0.00510558,-0.01442440,-0.0229
 4534,0.00624160,0.00800007,0.00578351,-0.00234088,0.00869561,0.0022916
 9,0.00193183,-0.01107076,0.01119595,-0.00048339,0.00055760,0.00056289,
 0.00119251,0.00136880,0.00260669,0.00032121,0.00528917,-0.00214329,0.0
 0086294,-0.31716251,0.75711244,0.00378736,0.00703978,-0.03885469,-0.00
 453119,-0.00426834,-0.00746229,0.00216421,0.00130398,-0.00091515,-0.00
 260150,-0.00016509,0.00188770,-0.00132757,-0.00610587,-0.01100593,-0.0
 0035451,-0.00035416,0.00047711,-0.00033216,-0.00050519,0.00129225,-0.0
 0066276,0.00192092,0.00079789,0.04760058,-0.04219500,0.22323505,-0.087
 58565,-0.02475335,0.00127057,0.00965397,0.00250218,-0.00578357,-0.0033
 4831,-0.00775908,0.00213509,-0.00388336,0.00406618,-0.00056333,0.00278
 603,-0.01416839,0.00037577,-0.00026798,-0.00053486,-0.00069885,-0.0006
 0768,-0.00128208,-0.00011794,-0.00836959,-0.00163961,0.00072073,-0.448
 76107,0.08869465,-0.02497185,0.59856790,-0.03475675,0.00404615,-0.0049
 1767,-0.00928558,-0.00216485,0.00293815,0.00088383,0.00389570,0.000006
 05,-0.00350405,-0.00153274,-0.00045526,0.00083038,-0.00274028,0.001580
 50,0.00000640,-0.00002031,0.00014020,-0.00038075,-0.00047998,-0.000252
 96,0.00245865,0.00254466,-0.00270023,0.07411742,-0.11757498,0.00797483
 ,-0.11172355,0.14909006,0.00016911,-0.00045426,0.01593679,-0.00019979,
 0.00001883,0.00015617,0.00008685,-0.00033511,0.00129424,0.00016428,0.0
 0046293,0.00012093,-0.00081360,0.00030250,0.00439979,0.00002948,0.0000
 3103,-0.00021132,0.00011217,0.00006191,-0.00070447,-0.00118355,-0.0019
 5101,-0.00219655,-0.02727443,0.00733388,-0.08597403,0.03569401,-0.0099
 2558,0.05051839,0.01476401,-0.00452874,-0.00271898,-0.00031042,-0.0012
 8915,0.00034473,0.00072945,-0.00279760,-0.00008189,0.00272515,0.000662
 36,0.00044035,0.00199030,-0.00353849,0.00091577,0.00004523,-0.00033232
 ,0.00001380,0.00006517,0.00021393,0.00001896,-0.00177309,-0.00149604,0
 .00035322,-0.23061271,0.23369014,-0.01895826,-0.05800935,0.07332846,-0
 .00827924,0.26747403,0.00263048,-0.09106438,0.00963124,-0.00706958,-0.
 00565392,-0.00090622,-0.00029303,-0.00424130,0.00091338,0.00001373,-0.
 00205141,-0.00005602,0.00208982,0.00197753,-0.00136441,-0.00110275,-0.
 00079112,-0.00038920,-0.00061728,-0.00051946,-0.00013282,-0.00162294,0
 .00027446,-0.00074244,0.23999745,-0.51728274,0.03608607,0.05994683,-0.
 01479403,0.00495371,-0.29210928,0.63253816,-0.00172265,0.00771700,0.01
 487381,0.00200540,0.00099082,0.00396087,-0.00046937,-0.00025641,0.0004
 4079,0.00033075,0.00043083,-0.00007620,0.00012461,-0.00009205,0.000937
 89,0.00017964,0.00012286,-0.00013312,0.00007084,0.00006325,-0.00012958
 ,0.00014975,-0.00062036,-0.00014529,-0.02032715,0.03473583,-0.08552919
 ,-0.00898138,0.00625978,0.02850169,0.02845738,-0.04942154,0.03817601,0
 .00199496,-0.00018831,-0.00087956,-0.00515528,-0.00127379,0.00499585,0
 .00111847,0.00069178,0.00045733,-0.00028503,0.00047801,-0.00007498,-0.
 00140955,-0.00018449,0.00022505,-0.00011085,-0.00015483,-0.00003141,-0
 .00011847,-0.00000118,-0.00011582,-0.00074351,0.00031076,-0.00168261,0
 .00301481,-0.00241555,0.00031912,-0.00138869,0.00623622,0.00801349,-0.
 00094063,0.00182468,-0.00045607,0.49459534,0.00337512,0.00207103,0.000
 78046,-0.00237267,0.00105332,0.00127449,0.00103098,0.00125311,-0.00049
 142,0.00038828,-0.00048889,0.00009816,-0.00114752,0.00152436,-0.000190
 80,0.00021258,0.00018617,0.00000657,0.00005210,0.00009144,-0.00000490,
 0.00156874,-0.00104906,-0.00116885,-0.01661197,-0.00239541,-0.00299939
 ,0.01777752,-0.00701236,-0.01317851,0.00388538,-0.00144854,0.00098365,
 0.10711611,0.48399113,0.00086420,0.00145301,-0.00018515,0.00490854,0.0
 0060378,-0.00087436,-0.00036343,-0.00048134,-0.00024951,0.00048565,-0.
 00022556,0.00012204,0.00100252,0.00024779,0.00035834,0.00006166,0.0001
 4828,-0.00020111,0.00017198,0.00001816,0.00000155,-0.00321681,-0.00044
 708,0.00143379,-0.01036001,0.00047187,-0.00345742,0.01366714,-0.010477
 44,-0.00484263,0.00362489,-0.00310634,0.00146232,-0.05491155,0.2009631
 7,0.13753006,-0.00230143,-0.00027291,0.00036160,-0.00010329,-0.0001968
 5,-0.00212839,-0.00171294,-0.00097250,0.00034451,0.00000030,-0.0001917
 4,-0.00004463,0.00101864,-0.00026791,-0.00012087,0.00005974,0.00002549
 ,0.00007033,0.00006015,-0.00001577,0.00005298,0.00130348,-0.00011421,0
 .00058473,0.00413545,0.00228383,0.00059125,-0.00381893,0.00078037,0.00
 078889,-0.00079318,-0.00056910,-0.00017552,-0.41142543,-0.22534672,-0.
 02257579,0.41021223,0.00059961,-0.00114364,-0.00144536,-0.00142491,-0.
 00184139,0.00130973,-0.00009403,0.00012483,0.00064160,-0.00046716,0.00
 044835,-0.00015662,0.00024447,-0.00076853,0.00025951,-0.00019712,-0.00
 022642,0.00011782,-0.00002757,-0.00000891,-0.00006123,-0.00007248,0.00
 086843,0.00007993,0.00299923,-0.00029005,-0.00076333,-0.00050616,0.001
 22958,0.00186766,-0.00055455,0.00010475,0.00004728,-0.17850995,-0.1456
 1845,-0.02579396,0.21868362,0.16879386,0.00184138,-0.00082577,0.000203
 16,-0.00389338,0.00030779,0.00143152,0.00161738,0.00110391,0.00008680,
 -0.00045834,0.00048371,-0.00012292,-0.00162716,0.00021017,-0.00038319,
 0.00001110,-0.00008734,0.00016857,-0.00013601,0.00003438,-0.00005013,0
 .00205694,-0.00019154,-0.00392358,-0.00045857,-0.00238448,0.00023055,0
 .00123845,0.00146542,-0.00049042,-0.00029288,0.00129179,-0.00025944,0.
 00082513,-0.01568459,-0.01589669,0.02085464,0.02830856,0.01750195,0.00
 029337,0.00133754,0.00045868,0.00022712,0.00052848,-0.00027689,0.00011
 751,0.00029789,-0.00055547,0.00029059,-0.00026034,0.00009586,-0.000183
 72,0.00061835,-0.00014179,0.00010666,0.00013287,0.00002470,0.00009321,
 0.00004637,0.00006561,0.00062679,-0.00073090,0.00092820,-0.01249625,0.
 00257206,0.00006447,0.00364317,-0.00288039,-0.00636379,0.00262632,-0.0
 0243192,0.00101692,-0.07803710,0.11116149,0.06476818,0.00473899,-0.041
 01503,-0.01971863,0.07699549,-0.00547215,-0.00181541,0.00035432,0.0035
 1739,0.00082988,-0.00256396,-0.00127602,-0.00184696,0.00011847,-0.0001
 6923,0.00029207,-0.00005877,0.00125974,-0.00138775,0.00004427,-0.00009
 241,-0.00009386,-0.00004507,-0.00004842,-0.00013029,0.00005119,-0.0021
 0261,0.00014484,0.00189948,0.01925989,0.00119776,0.00316762,-0.0142451
 9,-0.00288726,0.00416839,-0.00419415,0.00209383,-0.00086765,0.06632712
 ,-0.32976160,-0.16438508,0.00669036,-0.02228732,-0.01313198,-0.0708127
 3,0.35595078,-0.00325281,-0.00198549,0.00025451,0.00075629,-0.00013942
 ,-0.00152940,-0.00061451,-0.00061015,0.00024728,-0.00041536,0.00010184
 ,-0.00009983,0.00025655,-0.00091098,-0.00009341,-0.00011538,-0.0001376
 9,0.00002886,-0.00012609,-0.00008356,0.00000379,0.00091111,0.00122034,
 -0.00040891,0.01745608,0.00035015,0.00490444,-0.01430862,0.00237310,-0
 .00182689,-0.00559853,0.00396838,-0.00201890,0.04298177,-0.17158103,-0
 .10802193,0.00253559,-0.00415617,0.00219541,-0.03903943,0.16922878,0.1
 0988257,0.00109924,-0.00123950,-0.00024784,-0.00802635,-0.00112701,-0.
 00224517,0.00099779,0.00266132,-0.00098335,-0.00077895,-0.00032301,-0.
 00004086,-0.00174024,0.00094829,-0.00055408,-0.00010505,-0.00016854,0.
 00010252,-0.00029072,0.00010094,0.00005135,0.00655281,0.00035627,0.000
 86396,0.00233654,-0.00337016,-0.00006041,-0.00226261,0.00786008,-0.005
 79934,-0.00154499,0.00299386,0.00011990,0.00439832,0.00002172,-0.00149
 124,-0.00059784,-0.00020254,0.00180011,-0.00253164,0.00059491,0.001029
 02,0.12801252,0.00291731,0.00147628,-0.00055082,-0.00195382,0.00141971
 ,0.00053995,0.00078154,0.00124451,-0.00047601,0.00040727,-0.00054078,0
 .00006771,-0.00099125,0.00176445,-0.00014658,0.00024111,0.00018973,0.0
 0025922,0.00003746,0.00009611,0.00001703,0.00289845,-0.00431095,-0.000
 47742,-0.01571982,-0.00354604,0.00165243,0.01847897,-0.00800644,0.0089
 2822,0.00455447,-0.00163976,-0.00029251,-0.00011764,0.00450458,0.00124
 259,0.00061518,-0.00108333,0.00110212,-0.00003102,-0.00161349,-0.00299
 343,-0.18835737,0.48754052,-0.00057399,-0.00084274,-0.00000543,-0.0035
 6261,-0.00016387,0.00171421,0.00030761,0.00078097,0.00008241,-0.000405
 05,0.00017769,-0.00004553,-0.00087362,0.00007173,-0.00016871,-0.000003
 16,-0.00006609,-0.00018337,-0.00010725,0.00003088,-0.00006288,0.002396
 85,-0.00055940,-0.00513584,0.00333266,0.00050660,-0.00062217,-0.006852
 95,0.00632197,0.00150302,-0.00174850,0.00141534,0.00005785,-0.00244153
 ,0.00258923,-0.01062000,0.00131934,0.00046348,0.00049626,0.00142981,-0
 .00322379,0.00096512,-0.12852156,0.02858952,0.50524257,0.00036845,0.00
 132483,0.00022323,-0.00031773,0.00036974,0.00003722,0.00005613,-0.0000
 8691,0.00000986,0.00040852,-0.00006246,0.00006025,-0.00014574,0.000526
 19,0.00005784,0.00013398,0.00014470,0.00008017,0.00013170,0.00003880,-
 0.00001646,-0.00269841,-0.00511441,-0.00178601,-0.01146082,0.00216287,
 -0.00060834,0.00332160,-0.00248310,0.00541726,0.00308980,-0.00269177,-
 0.00043096,-0.00218545,0.00097120,-0.00079158,0.00049139,-0.00023870,-
 0.00046677,0.00268639,-0.00128122,-0.00062929,-0.06482537,0.13162027,0
 .00369091,0.07365051,-0.00434176,-0.00150470,0.00057252,0.00254620,0.0
 0061810,-0.00010276,-0.00084589,-0.00194991,0.00067117,-0.00010762,0.0
 0056694,-0.00001163,0.00109855,-0.00156426,0.00010468,-0.00008230,-0.0
 0007422,-0.00019824,-0.00001764,-0.00014008,-0.00003102,-0.00721919,-0
 .00077333,-0.00198075,0.01746586,0.00197861,-0.00204198,-0.01180699,-0
 .00457988,-0.00310060,-0.00447355,0.00212332,0.00034873,0.00113538,-0.
 00259569,0.00239661,-0.00050682,0.00031590,-0.00072143,-0.00114885,0.0
 0324389,0.00100433,0.14757614,-0.41732431,0.02127016,-0.14310631,0.433
 53011,0.00144565,0.00113520,-0.00027919,0.00022371,0.00029167,-0.00048
 400,0.00002780,0.00017158,-0.00032448,0.00032055,-0.00022033,0.0000514
 5,0.00012993,0.00066291,0.00009147,0.00005618,0.00008067,0.00012627,0.
 00008109,0.00004639,0.00004452,-0.00111125,-0.00134529,0.00222113,-0.0
 0930959,-0.00146774,0.00107658,0.00748902,-0.00050796,-0.00277805,0.00
 365692,-0.00224885,-0.00018759,-0.00033267,0.00183826,0.00191969,-0.00
 018253,-0.00045276,-0.00028763,-0.00043115,0.00051615,-0.00496803,-0.0
 1426220,0.06848123,-0.05143227,-0.00536104,-0.02184843,0.05538300,-0.0
 0031869,0.00042564,0.00000654,0.00140457,-0.00021099,-0.00102727,-0.00
 046455,-0.00069611,0.00001168,0.00013959,0.00000423,0.00005309,0.00067
 485,-0.00033183,0.00017242,-0.00003740,0.00000319,-0.00000891,0.000084
 54,-0.00002619,0.00002372,-0.00468983,0.00091518,0.00282614,-0.0004028
 5,0.00113070,-0.00011845,0.00033054,-0.00148763,-0.00056180,0.00047491
 ,-0.00098919,0.00010791,-0.00332191,-0.00208234,0.00415565,-0.00126733
 ,0.00078327,-0.00319338,0.00080311,0.00204474,-0.00182639,-0.06069346,
 0.04461889,0.13261303,-0.00270495,0.00383479,0.01755958,0.06998885,-0.
 00060153,-0.00048883,-0.00011060,0.00001340,-0.00040972,-0.00020497,-0
 .00005022,-0.00008140,0.00014317,-0.00020016,0.00016844,-0.00002715,0.
 00016105,-0.00047449,0.00005043,-0.00011758,-0.00008373,-0.00004878,-0
 .00002229,-0.00001595,-0.00000900,-0.00036277,0.00122418,0.00058294,0.
 00288605,0.00065517,0.00025272,-0.00304706,0.00098697,0.00081600,-0.00
 102088,0.00037461,-0.00014951,-0.00127433,-0.00430514,-0.00262847,-0.0
 0062432,0.00138234,-0.00128074,0.00261613,-0.00192909,0.00435101,0.031
 67459,-0.06017079,-0.05736167,0.01790627,-0.01187049,-0.04513272,-0.04
 793636,0.07503791,-0.00025727,-0.00003058,-0.00001235,-0.00004367,-0.0
 0003116,-0.00131561,-0.00022754,0.00010672,-0.00027016,-0.00001698,-0.
 00018661,-0.00000528,0.00010911,0.00013963,-0.00007387,-0.00000209,-0.
 00001031,0.00013575,-0.00001601,0.00000515,0.00004627,0.00223775,-0.00
 001621,0.00199443,0.00021031,0.00002865,-0.00008068,-0.00031227,0.0001
 7709,-0.00340667,-0.00014773,0.00010794,0.00006805,0.00310846,-0.00323
 452,0.00152099,-0.00227613,-0.00026614,-0.00090023,-0.00232529,0.00472
 763,0.00048533,0.15023919,-0.10594326,-0.44178524,0.00051370,0.0036686
 3,-0.00017288,-0.15079355,0.10075734,0.44377215\\0.00001903,0.00005318
 ,0.00000282,0.00002393,0.00002405,-0.00005070,-0.00001765,0.00001328,-
 0.00000364,0.00002544,-0.00002080,0.00002415,0.00000997,-0.00000716,-0
 .00000049,-0.00000571,-0.00000270,0.00001171,0.00000388,-0.00000229,0.
 00000024,-0.00003338,-0.00001347,0.00002562,-0.00002967,-0.00005954,0.
 00002408,-0.00003728,0.00001019,-0.00007370,-0.00001858,0.00002249,-0.
 00001325,-0.00000165,-0.00001656,-0.00001467,0.00000309,-0.00000288,-0
 .00000232,0.00000163,0.00002161,0.00004099,-0.00002443,0.00002152,-0.0
 0000669,0.00006858,-0.00004206,0.00004786,0.00001281,0.00000114,-0.000
 01200\\\@


 IT IS A SIMPLE TASK TO MAKE THINGS COMPLEX,
 BUT A COMPLEX TASK TO MAKE THEM SIMPLE.
 Job cpu time:       0 days  0 hours 51 minutes 37.2 seconds.
 Elapsed time:       0 days  0 hours  2 minutes  9.6 seconds.
 File lengths (MBytes):  RWF=    190 Int=      0 D2E=      0 Chk=      7 Scr=      1
 Normal termination of Gaussian 16 at Tue Jun  6 00:40:10 2023.
