 Entering Gaussian System, Link 0=/opt/soft/g16/g16
 Initial command:
 /opt/soft/g16/l1.exe "/scratch/gongke2021/PC/Gau-11759.inp" -scrdir="/scratch/gongke2021/PC/"
 Entering Link 1 = /opt/soft/g16/l1.exe PID=     11760.
  
 Copyright (c) 1988,1990,1992,1993,1995,1998,2003,2009,2016,
            Gaussian, Inc.  All Rights Reserved.
  
 This is part of the Gaussian(R) 16 program.  It is based on
 the Gaussian(R) 09 system (copyright 2009, Gaussian, Inc.),
 the Gaussian(R) 03 system (copyright 2003, Gaussian, Inc.),
 the Gaussian(R) 98 system (copyright 1998, Gaussian, Inc.),
 the Gaussian(R) 94 system (copyright 1995, Gaussian, Inc.),
 the Gaussian 92(TM) system (copyright 1992, Gaussian, Inc.),
 the Gaussian 90(TM) system (copyright 1990, Gaussian, Inc.),
 the Gaussian 88(TM) system (copyright 1988, Gaussian, Inc.),
 the Gaussian 86(TM) system (copyright 1986, Carnegie Mellon
 University), and the Gaussian 82(TM) system (copyright 1983,
 Carnegie Mellon University). Gaussian is a federally registered
 trademark of Gaussian, Inc.
  
 This software contains proprietary and confidential information,
 including trade secrets, belonging to Gaussian, Inc.
  
 This software is provided under written license and may be
 used, copied, transmitted, or stored only in accord with that
 written license.
  
 The following legend is applicable only to US Government
 contracts under FAR:
  
                    RESTRICTED RIGHTS LEGEND
  
 Use, reproduction and disclosure by the US Government is
 subject to restrictions as set forth in subparagraphs (a)
 and (c) of the Commercial Computer Software - Restricted
 Rights clause in FAR 52.227-19.
  
 Gaussian, Inc.
 340 Quinnipiac St., Bldg. 40, Wallingford CT 06492
  
  
 ---------------------------------------------------------------
 Warning -- This program may not be used in any manner that
 competes with the business of Gaussian, Inc. or will provide
 assistance to any competitor of Gaussian, Inc.  The licensee
 of this program is prohibited from giving any competitor of
 Gaussian, Inc. access to this program.  By using this program,
 the user acknowledges that Gaussian, Inc. is engaged in the
 business of creating and licensing software in the field of
 computational chemistry and represents and warrants to the
 licensee that it is not a competitor of Gaussian, Inc. and that
 it will not use this program in any manner prohibited above.
 ---------------------------------------------------------------
  

 Cite this work as:
 Gaussian 16, Revision A.03,
 M. J. Frisch, G. W. Trucks, H. B. Schlegel, G. E. Scuseria, 
 M. A. Robb, J. R. Cheeseman, G. Scalmani, V. Barone, 
 G. A. Petersson, H. Nakatsuji, X. Li, M. Caricato, A. V. Marenich, 
 J. Bloino, B. G. Janesko, R. Gomperts, B. Mennucci, H. P. Hratchian, 
 J. V. Ortiz, A. F. Izmaylov, J. L. Sonnenberg, D. Williams-Young, 
 F. Ding, F. Lipparini, F. Egidi, J. Goings, B. Peng, A. Petrone, 
 T. Henderson, D. Ranasinghe, V. G. Zakrzewski, J. Gao, N. Rega, 
 G. Zheng, W. Liang, M. Hada, M. Ehara, K. Toyota, R. Fukuda, 
 J. Hasegawa, M. Ishida, T. Nakajima, Y. Honda, O. Kitao, H. Nakai, 
 T. Vreven, K. Throssell, J. A. Montgomery, Jr., J. E. Peralta, 
 F. Ogliaro, M. J. Bearpark, J. J. Heyd, E. N. Brothers, K. N. Kudin, 
 V. N. Staroverov, T. A. Keith, R. Kobayashi, J. Normand, 
 K. Raghavachari, A. P. Rendell, J. C. Burant, S. S. Iyengar, 
 J. Tomasi, M. Cossi, J. M. Millam, M. Klene, C. Adamo, R. Cammi, 
 J. W. Ochterski, R. L. Martin, K. Morokuma, O. Farkas, 
 J. B. Foresman, and D. J. Fox, Gaussian, Inc., Wallingford CT, 2016.
 
 ******************************************
 Gaussian 16:  ES64L-G16RevA.03 25-Dec-2016
                 6-Jun-2023 
 ******************************************
 %mem=10GB
 %nprocshared=24
 Will use up to   24 processors via shared memory.
 ----------------------------
 # opt freq 6-31+g(d,p) m062x
 ----------------------------
 1/18=20,19=15,26=3,38=1/1,3;
 2/9=110,12=2,17=6,18=5,40=1/2;
 3/5=1,6=6,7=111,11=2,25=1,30=1,71=1,74=-55/1,2,3;
 4//1;
 5/5=2,38=5/2;
 6/7=2,8=2,9=2,10=2,28=1/1;
 7//1,2,3,16;
 1/18=20,19=15,26=3/3(2);
 2/9=110/2;
 99//99;
 2/9=110/2;
 3/5=1,6=6,7=111,11=2,25=1,30=1,71=1,74=-55/1,2,3;
 4/5=5,16=3,69=1/1;
 5/5=2,38=5/2;
 7//1,2,3,16;
 1/18=20,19=15,26=3/3(-5);
 2/9=110/2;
 6/7=2,8=2,9=2,10=2,19=2,28=1/1;
 99/9=1/99;
 ----
 test
 ----
 Symbolic Z-matrix:
 Charge = -1 Multiplicity = 2
 N                     0.10954  -0.94282   0.25229 
 N                     0.79163   0.23677  -0.1091 
 C                     2.1538   -0.04658  -0.09977 
 C                     2.23658  -1.38503   0.20494 
 N                     1.02868  -1.94296   0.38272 
 H                     2.8755    0.72991  -0.28128 
 H                     3.13203  -1.98459   0.29944 
 H                    -1.12306  -1.31208  -0.39589 
 C                     0.26941   1.53095  -0.07951 
 O                     1.02435   2.46921  -0.31 
 O                    -1.00986   1.67818   0.16109 
 H                    -2.58722  -0.49978   0.07882 
 O                    -2.01264  -1.44364  -1.02928 
 H                    -2.05946  -1.06306  -1.91144 
 H                    -1.50756   0.77146   0.38726 
 O                    -2.73917   0.01399   0.74904 
 H                    -2.52156  -0.48414   1.54423 
 
 Add virtual bond connecting atoms H8         and N1         Dist= 2.72D+00.
 Add virtual bond connecting atoms H12        and O13        Dist= 2.96D+00.
 Add virtual bond connecting atoms O16        and H15        Dist= 2.82D+00.

 GradGradGradGradGradGradGradGradGradGradGradGradGradGradGradGradGradGrad
 Berny optimization.
 Initialization pass.
                           ----------------------------
                           !    Initial Parameters    !
                           ! (Angstroms and Degrees)  !
 --------------------------                            --------------------------
 ! Name  Definition              Value          Derivative Info.                !
 --------------------------------------------------------------------------------
 ! R1    R(1,2)                  1.4097         estimate D2E/DX2                !
 ! R2    R(1,5)                  1.3646         estimate D2E/DX2                !
 ! R3    R(1,8)                  1.4408         estimate D2E/DX2                !
 ! R4    R(2,3)                  1.3914         estimate D2E/DX2                !
 ! R5    R(2,9)                  1.3959         estimate D2E/DX2                !
 ! R6    R(3,4)                  1.3752         estimate D2E/DX2                !
 ! R7    R(3,6)                  1.0755         estimate D2E/DX2                !
 ! R8    R(4,5)                  1.3424         estimate D2E/DX2                !
 ! R9    R(4,7)                  1.0818         estimate D2E/DX2                !
 ! R10   R(8,13)                 1.0999         estimate D2E/DX2                !
 ! R11   R(9,10)                 1.2261         estimate D2E/DX2                !
 ! R12   R(9,11)                 1.31           estimate D2E/DX2                !
 ! R13   R(11,15)                1.0588         estimate D2E/DX2                !
 ! R14   R(12,13)                1.5649         estimate D2E/DX2                !
 ! R15   R(12,16)                0.858          estimate D2E/DX2                !
 ! R16   R(13,14)                0.9619         estimate D2E/DX2                !
 ! R17   R(15,16)                1.4905         estimate D2E/DX2                !
 ! R18   R(16,17)                0.9632         estimate D2E/DX2                !
 ! A1    A(2,1,5)              108.1726         estimate D2E/DX2                !
 ! A2    A(2,1,8)              120.868          estimate D2E/DX2                !
 ! A3    A(5,1,8)              115.557          estimate D2E/DX2                !
 ! A4    A(1,2,3)              107.5517         estimate D2E/DX2                !
 ! A5    A(1,2,9)              126.1105         estimate D2E/DX2                !
 ! A6    A(3,2,9)              123.7067         estimate D2E/DX2                !
 ! A7    A(2,3,4)              104.9892         estimate D2E/DX2                !
 ! A8    A(2,3,6)              120.5827         estimate D2E/DX2                !
 ! A9    A(4,3,6)              134.4015         estimate D2E/DX2                !
 ! A10   A(3,4,5)              112.3158         estimate D2E/DX2                !
 ! A11   A(3,4,7)              127.4898         estimate D2E/DX2                !
 ! A12   A(5,4,7)              120.1929         estimate D2E/DX2                !
 ! A13   A(1,5,4)              106.7866         estimate D2E/DX2                !
 ! A14   A(2,9,10)             118.3684         estimate D2E/DX2                !
 ! A15   A(2,9,11)             118.2575         estimate D2E/DX2                !
 ! A16   A(10,9,11)            123.3524         estimate D2E/DX2                !
 ! A17   A(9,11,15)            113.7048         estimate D2E/DX2                !
 ! A18   A(8,13,12)             79.4588         estimate D2E/DX2                !
 ! A19   A(8,13,14)            121.3428         estimate D2E/DX2                !
 ! A20   A(12,13,14)           113.1348         estimate D2E/DX2                !
 ! A21   A(11,15,16)           151.1044         estimate D2E/DX2                !
 ! A22   A(12,16,15)            88.1874         estimate D2E/DX2                !
 ! A23   A(12,16,17)           107.1681         estimate D2E/DX2                !
 ! A24   A(15,16,17)           106.0525         estimate D2E/DX2                !
 ! A25   L(1,8,13,11,-1)       173.1881         estimate D2E/DX2                !
 ! A26   L(13,12,16,2,-1)      169.4709         estimate D2E/DX2                !
 ! A27   L(1,8,13,11,-2)       170.9101         estimate D2E/DX2                !
 ! A28   L(13,12,16,2,-2)      185.1681         estimate D2E/DX2                !
 ! D1    D(5,1,2,3)             -4.256          estimate D2E/DX2                !
 ! D2    D(5,1,2,9)           -166.2792         estimate D2E/DX2                !
 ! D3    D(8,1,2,3)           -140.7409         estimate D2E/DX2                !
 ! D4    D(8,1,2,9)             57.2359         estimate D2E/DX2                !
 ! D5    D(2,1,5,4)              4.1918         estimate D2E/DX2                !
 ! D6    D(8,1,5,4)            143.2636         estimate D2E/DX2                !
 ! D7    D(2,1,13,12)          -85.4364         estimate D2E/DX2                !
 ! D8    D(2,1,13,14)           25.6265         estimate D2E/DX2                !
 ! D9    D(5,1,13,12)          143.6737         estimate D2E/DX2                !
 ! D10   D(5,1,13,14)         -105.2634         estimate D2E/DX2                !
 ! D11   D(1,2,3,4)              2.569          estimate D2E/DX2                !
 ! D12   D(1,2,3,6)           -175.8136         estimate D2E/DX2                !
 ! D13   D(9,2,3,4)            165.1279         estimate D2E/DX2                !
 ! D14   D(9,2,3,6)            -13.2547         estimate D2E/DX2                !
 ! D15   D(1,2,9,10)           173.568          estimate D2E/DX2                !
 ! D16   D(1,2,9,11)            -8.0712         estimate D2E/DX2                !
 ! D17   D(3,2,9,10)            14.2836         estimate D2E/DX2                !
 ! D18   D(3,2,9,11)          -167.3556         estimate D2E/DX2                !
 ! D19   D(2,3,4,5)              0.0098         estimate D2E/DX2                !
 ! D20   D(2,3,4,7)            179.5591         estimate D2E/DX2                !
 ! D21   D(6,3,4,5)            178.0607         estimate D2E/DX2                !
 ! D22   D(6,3,4,7)             -2.3899         estimate D2E/DX2                !
 ! D23   D(3,4,5,1)             -2.6588         estimate D2E/DX2                !
 ! D24   D(7,4,5,1)            177.7549         estimate D2E/DX2                !
 ! D25   D(2,9,11,15)            4.5782         estimate D2E/DX2                !
 ! D26   D(10,9,11,15)        -177.1486         estimate D2E/DX2                !
 ! D27   D(9,11,15,16)         179.4989         estimate D2E/DX2                !
 ! D28   D(8,13,16,15)          49.7952         estimate D2E/DX2                !
 ! D29   D(8,13,16,17)         -55.1322         estimate D2E/DX2                !
 ! D30   D(14,13,16,15)        -68.3163         estimate D2E/DX2                !
 ! D31   D(14,13,16,17)       -173.2437         estimate D2E/DX2                !
 ! D32   D(11,15,16,12)        126.958          estimate D2E/DX2                !
 ! D33   D(11,15,16,17)       -125.6925         estimate D2E/DX2                !
 --------------------------------------------------------------------------------
 Trust Radius=3.00D-01 FncErr=1.00D-07 GrdErr=1.00D-06 EigMax=2.50D+02 EigMin=1.00D-04
 Number of steps in this run=     89 maximum allowed number of steps=    102.
 GradGradGradGradGradGradGradGradGradGradGradGradGradGradGradGradGradGrad

                          Input orientation:                          
 ---------------------------------------------------------------------
 Center     Atomic      Atomic             Coordinates (Angstroms)
 Number     Number       Type             X           Y           Z
 ---------------------------------------------------------------------
      1          7           0        0.109539   -0.942824    0.252292
      2          7           0        0.791630    0.236774   -0.109104
      3          6           0        2.153795   -0.046583   -0.099765
      4          6           0        2.236580   -1.385026    0.204943
      5          7           0        1.028680   -1.942963    0.382720
      6          1           0        2.875497    0.729910   -0.281283
      7          1           0        3.132028   -1.984591    0.299438
      8          1           0       -1.123056   -1.312076   -0.395889
      9          6           0        0.269409    1.530951   -0.079513
     10          8           0        1.024345    2.469212   -0.309999
     11          8           0       -1.009863    1.678183    0.161094
     12          1           0       -2.587216   -0.499780    0.078819
     13          8           0       -2.012636   -1.443638   -1.029276
     14          1           0       -2.059457   -1.063065   -1.911439
     15          1           0       -1.507557    0.771462    0.387257
     16          8           0       -2.739170    0.013992    0.749036
     17          1           0       -2.521560   -0.484137    1.544232
 ---------------------------------------------------------------------
                    Distance matrix (angstroms):
                    1          2          3          4          5
     1  N    0.000000
     2  N    1.409719   0.000000
     3  C    2.259685   1.391356   0.000000
     4  C    2.173037   2.194708   1.375184   0.000000
     5  N    1.364591   2.247073   2.257196   1.342356   0.000000
     6  H    3.276166   2.148332   1.075520   2.262208   3.316004
     7  H    3.197333   3.252512   2.207301   1.081774   2.105408
     8  H    1.440755   2.479355   3.525183   3.413718   2.373651
     9  C    2.501043   1.395881   2.457628   3.528966   3.585837
    10  O    3.577014   2.253507   2.765697   4.073061   4.466225
    11  O    2.851501   2.322939   3.612699   4.463694   4.161427
    12  H    2.738407   3.463297   4.765970   4.905974   3.905104
    13  O    2.529201   3.396235   4.491648   4.425220   3.390083
    14  H    3.066062   3.614788   4.697541   4.799861   3.946388
    15  H    2.360507   2.412163   3.783106   4.324609   3.714919
    16  O    3.045882   3.640410   4.966411   5.197247   4.261520
    17  H    2.966848   3.772328   4.975251   5.024459   4.010173
                    6          7          8          9         10
     6  H    0.000000
     7  H    2.787752   0.000000
     8  H    4.491243   4.363656   0.000000
     9  C    2.733875   4.549421   3.181486   0.000000
    10  O    2.540228   4.964887   4.349350   1.226126   0.000000
    11  O    4.023797   5.530851   3.043795   1.310002   2.232859
    12  H    5.610976   5.912960   1.740385   3.508453   4.691425
    13  O    5.401634   5.340944   1.099928   3.867552   5.005098
    14  H    5.497812   5.717404   1.798818   3.938082   4.954940
    15  H    4.433942   5.397156   2.258825   1.988041   3.127147
    16  O    5.753137   6.218315   2.383513   3.469756   4.616677
    17  H    5.825345   5.980295   2.530882   3.806131   4.973317
                   11         12         13         14         15
    11  O    0.000000
    12  H    2.690415   0.000000
    13  O    3.488309   1.564892   0.000000
    14  H    3.593255   2.134701   0.961894   0.000000
    15  H    1.058769   1.696129   2.677376   2.992338   0.000000
    16  O    2.470974   0.858045   2.411417   2.949608   1.490475
    17  H    2.978914   1.466966   2.793312   3.534170   1.985780
                   16         17
    16  O    0.000000
    17  H    0.963236   0.000000
 Stoichiometry    C3H7N3O4(1-,2)
 Framework group  C1[X(C3H7N3O4)]
 Deg. of freedom    45
 Full point group                 C1      NOp   1
 Largest Abelian subgroup         C1      NOp   1
 Largest concise Abelian subgroup C1      NOp   1
                         Standard orientation:                         
 ---------------------------------------------------------------------
 Center     Atomic      Atomic             Coordinates (Angstroms)
 Number     Number       Type             X           Y           Z
 ---------------------------------------------------------------------
      1          7           0       -0.106243   -0.943247   -0.249515
      2          7           0       -0.796055    0.232539    0.109641
      3          6           0       -2.156405   -0.059377    0.099463
      4          6           0       -2.230509   -1.398730   -0.203478
      5          7           0       -1.018969   -1.949315   -0.379396
      6          1           0       -2.883132    0.712818    0.279260
      7          1           0       -3.122089   -2.004034   -0.297956
      8          1           0        1.128054   -1.303864    0.400285
      9          6           0       -0.281941    1.529928    0.078740
     10          8           0       -1.042961    2.463746    0.307253
     11          8           0        0.996600    1.684859   -0.160914
     12          1           0        2.587519   -0.483043   -0.074218
     13          8           0        2.017865   -1.428970    1.034656
     14          1           0        2.061492   -1.046902    1.916336
     15          1           0        1.500183    0.780971   -0.385380
     16          8           0        2.736855    0.030754   -0.745004
     17          1           0        2.523101   -0.469821   -1.539710
 ---------------------------------------------------------------------
 Rotational constants (GHZ):           1.4872952           1.1602013           0.7230895
 Standard basis: 6-31+G(d,p) (6D, 7F)
 There are   225 symmetry adapted cartesian basis functions of A   symmetry.
 There are   225 symmetry adapted basis functions of A   symmetry.
   225 basis functions,   369 primitive gaussians,   225 cartesian basis functions
    40 alpha electrons       39 beta electrons
       nuclear repulsion energy       567.6409783638 Hartrees.
 NAtoms=   17 NActive=   17 NUniq=   17 SFac= 1.00D+00 NAtFMM=   60 NAOKFM=F Big=F
 Integral buffers will be    131072 words long.
 Raffenetti 2 integral format.
 Two-electron integral symmetry is turned on.
 One-electron integrals computed using PRISM.
 NBasis=   225 RedAO= T EigKep=  2.48D-05  NBF=   225
 NBsUse=   225 1.00D-06 EigRej= -1.00D+00 NBFU=   225
 ExpMin= 4.38D-02 ExpMax= 5.48D+03 ExpMxC= 8.25D+02 IAcc=3 IRadAn=         5 AccDes= 0.00D+00
 Harris functional with IExCor= 1009 and IRadAn=       5 diagonalized for initial guess.
 HarFok:  IExCor= 1009 AccDes= 0.00D+00 IRadAn=         5 IDoV= 1 UseB2=F ITyADJ=14
 ICtDFT=  3500011 ScaDFX=  1.000000  1.000000  1.000000  1.000000
 FoFCou: FMM=F IPFlag=           0 FMFlag=      100000 FMFlg1=           0
         NFxFlg=           0 DoJE=T BraDBF=F KetDBF=T FulRan=T
         wScrn=  0.000000 ICntrl=       500 IOpCl=  0 I1Cent=   200000004 NGrid=           0
         NMat0=    1 NMatS0=      1 NMatT0=    0 NMatD0=    1 NMtDS0=    0 NMtDT0=    0
 Petite list used in FoFCou.
 Initial guess <Sx>= 0.0000 <Sy>= 0.0000 <Sz>= 0.5000 <S**2>= 0.7500 S= 0.5000
 Requested convergence on RMS density matrix=1.00D-08 within 128 cycles.
 Requested convergence on MAX density matrix=1.00D-06.
 Requested convergence on             energy=1.00D-06.
 No special actions if energy rises.
 SCF Done:  E(UM062X) =  -583.452276733     A.U. after   19 cycles
            NFock= 19  Conv=0.65D-08     -V/T= 2.0075
 <Sx>= 0.0000 <Sy>= 0.0000 <Sz>= 0.5000 <S**2>= 0.7643 S= 0.5071
 <L.S>=  0.00000000000    
 Annihilation of the first spin contaminant:
 S**2 before annihilation     0.7643,   after     0.7501

 **********************************************************************

            Population analysis using the SCF density.

 **********************************************************************

 Orbital symmetries:
 Alpha Orbitals:
       Occupied  (A) (A) (A) (A) (A) (A) (A) (A) (A) (A) (A) (A)
                 (A) (A) (A) (A) (A) (A) (A) (A) (A) (A) (A) (A)
                 (A) (A) (A) (A) (A) (A) (A) (A) (A) (A) (A) (A)
                 (A) (A) (A) (A)
       Virtual   (A) (A) (A) (A) (A) (A) (A) (A) (A) (A) (A) (A)
                 (A) (A) (A) (A) (A) (A) (A) (A) (A) (A) (A) (A)
                 (A) (A) (A) (A) (A) (A) (A) (A) (A) (A) (A) (A)
                 (A) (A) (A) (A) (A) (A) (A) (A) (A) (A) (A) (A)
                 (A) (A) (A) (A) (A) (A) (A) (A) (A) (A) (A) (A)
                 (A) (A) (A) (A) (A) (A) (A) (A) (A) (A) (A) (A)
                 (A) (A) (A) (A) (A) (A) (A) (A) (A) (A) (A) (A)
                 (A) (A) (A) (A) (A) (A) (A) (A) (A) (A) (A) (A)
                 (A) (A) (A) (A) (A) (A) (A) (A) (A) (A) (A) (A)
                 (A) (A) (A) (A) (A) (A) (A) (A) (A) (A) (A) (A)
                 (A) (A) (A) (A) (A) (A) (A) (A) (A) (A) (A) (A)
                 (A) (A) (A) (A) (A) (A) (A) (A) (A) (A) (A) (A)
                 (A) (A) (A) (A) (A) (A) (A) (A) (A) (A) (A) (A)
                 (A) (A) (A) (A) (A) (A) (A) (A) (A) (A) (A) (A)
                 (A) (A) (A) (A) (A) (A) (A) (A) (A) (A) (A) (A)
                 (A) (A) (A) (A) (A)
 Beta  Orbitals:
       Occupied  (A) (A) (A) (A) (A) (A) (A) (A) (A) (A) (A) (A)
                 (A) (A) (A) (A) (A) (A) (A) (A) (A) (A) (A) (A)
                 (A) (A) (A) (A) (A) (A) (A) (A) (A) (A) (A) (A)
                 (A) (A) (A)
       Virtual   (A) (A) (A) (A) (A) (A) (A) (A) (A) (A) (A) (A)
                 (A) (A) (A) (A) (A) (A) (A) (A) (A) (A) (A) (A)
                 (A) (A) (A) (A) (A) (A) (A) (A) (A) (A) (A) (A)
                 (A) (A) (A) (A) (A) (A) (A) (A) (A) (A) (A) (A)
                 (A) (A) (A) (A) (A) (A) (A) (A) (A) (A) (A) (A)
                 (A) (A) (A) (A) (A) (A) (A) (A) (A) (A) (A) (A)
                 (A) (A) (A) (A) (A) (A) (A) (A) (A) (A) (A) (A)
                 (A) (A) (A) (A) (A) (A) (A) (A) (A) (A) (A) (A)
                 (A) (A) (A) (A) (A) (A) (A) (A) (A) (A) (A) (A)
                 (A) (A) (A) (A) (A) (A) (A) (A) (A) (A) (A) (A)
                 (A) (A) (A) (A) (A) (A) (A) (A) (A) (A) (A) (A)
                 (A) (A) (A) (A) (A) (A) (A) (A) (A) (A) (A) (A)
                 (A) (A) (A) (A) (A) (A) (A) (A) (A) (A) (A) (A)
                 (A) (A) (A) (A) (A) (A) (A) (A) (A) (A) (A) (A)
                 (A) (A) (A) (A) (A) (A) (A) (A) (A) (A) (A) (A)
                 (A) (A) (A) (A) (A) (A)
 The electronic state is 2-A.
 Alpha  occ. eigenvalues --  -19.52197 -19.52151 -19.47688 -19.46317 -14.68542
 Alpha  occ. eigenvalues --  -14.64986 -14.62027 -10.54900 -10.42542 -10.42412
 Alpha  occ. eigenvalues --   -1.08370  -1.05678  -1.01506  -0.97324  -0.94888
 Alpha  occ. eigenvalues --   -0.84895  -0.74029  -0.62462  -0.54376  -0.53732
 Alpha  occ. eigenvalues --   -0.52805  -0.50747  -0.45373  -0.41647  -0.39156
 Alpha  occ. eigenvalues --   -0.38450  -0.36907  -0.35036  -0.34631  -0.33074
 Alpha  occ. eigenvalues --   -0.30403  -0.27339  -0.24542  -0.23815  -0.23630
 Alpha  occ. eigenvalues --   -0.22150  -0.21185  -0.19048  -0.17906  -0.01077
 Alpha virt. eigenvalues --    0.13528   0.15341   0.16459   0.17017   0.17913
 Alpha virt. eigenvalues --    0.18625   0.18963   0.20822   0.22471   0.23097
 Alpha virt. eigenvalues --    0.24051   0.24342   0.25102   0.26342   0.27858
 Alpha virt. eigenvalues --    0.28137   0.29073   0.30248   0.31187   0.32447
 Alpha virt. eigenvalues --    0.33522   0.34409   0.34694   0.35283   0.36266
 Alpha virt. eigenvalues --    0.37661   0.38387   0.38699   0.39008   0.39573
 Alpha virt. eigenvalues --    0.40290   0.41186   0.41798   0.42314   0.42991
 Alpha virt. eigenvalues --    0.43408   0.44359   0.45238   0.45689   0.46270
 Alpha virt. eigenvalues --    0.47072   0.48799   0.49788   0.51322   0.52017
 Alpha virt. eigenvalues --    0.53049   0.53744   0.54584   0.56419   0.58018
 Alpha virt. eigenvalues --    0.59709   0.62423   0.64002   0.66908   0.68236
 Alpha virt. eigenvalues --    0.68534   0.78219   0.86347   0.89551   0.92619
 Alpha virt. eigenvalues --    0.97175   0.97829   0.99477   1.03623   1.06660
 Alpha virt. eigenvalues --    1.08836   1.09793   1.13237   1.14198   1.15073
 Alpha virt. eigenvalues --    1.16842   1.17282   1.19302   1.20615   1.21968
 Alpha virt. eigenvalues --    1.23210   1.24428   1.26866   1.29030   1.29913
 Alpha virt. eigenvalues --    1.33754   1.35039   1.37232   1.38250   1.39724
 Alpha virt. eigenvalues --    1.40644   1.42464   1.44747   1.45734   1.47929
 Alpha virt. eigenvalues --    1.49468   1.50828   1.52741   1.55272   1.56146
 Alpha virt. eigenvalues --    1.56829   1.58737   1.58836   1.60974   1.62172
 Alpha virt. eigenvalues --    1.64124   1.67510   1.68850   1.69979   1.72233
 Alpha virt. eigenvalues --    1.73959   1.75855   1.76587   1.78828   1.81637
 Alpha virt. eigenvalues --    1.84775   1.87140   1.89657   1.94678   1.95846
 Alpha virt. eigenvalues --    1.98605   1.99090   2.01524   2.02562   2.06439
 Alpha virt. eigenvalues --    2.06596   2.10909   2.14045   2.17434   2.19338
 Alpha virt. eigenvalues --    2.20211   2.25684   2.29059   2.30518   2.33726
 Alpha virt. eigenvalues --    2.37825   2.41090   2.43317   2.46688   2.48066
 Alpha virt. eigenvalues --    2.49548   2.51323   2.55793   2.57091   2.61427
 Alpha virt. eigenvalues --    2.62421   2.65367   2.68914   2.70216   2.74049
 Alpha virt. eigenvalues --    2.74981   2.76471   2.77343   2.86115   2.86267
 Alpha virt. eigenvalues --    2.88262   2.89463   2.90852   2.94260   2.97620
 Alpha virt. eigenvalues --    2.99165   3.03034   3.06619   3.09238   3.11978
 Alpha virt. eigenvalues --    3.13540   3.18342   3.25976   3.26810   3.33133
 Alpha virt. eigenvalues --    3.37314   3.43498   3.45461   3.55162   3.58537
 Alpha virt. eigenvalues --    3.65025   3.79099   3.89113   3.93944   4.17465
 Alpha virt. eigenvalues --    4.28060   4.39450   4.51286   4.51974   4.55134
 Alpha virt. eigenvalues --    4.63326   4.64402   4.74649   4.87057   4.88447
  Beta  occ. eigenvalues --  -19.52156 -19.52146 -19.47661 -19.46161 -14.68379
  Beta  occ. eigenvalues --  -14.64433 -14.61667 -10.54842 -10.42636 -10.42201
  Beta  occ. eigenvalues --   -1.08051  -1.05595  -1.00513  -0.96933  -0.94790
  Beta  occ. eigenvalues --   -0.83819  -0.73009  -0.61324  -0.54103  -0.53474
  Beta  occ. eigenvalues --   -0.52594  -0.50140  -0.44906  -0.40173  -0.38763
  Beta  occ. eigenvalues --   -0.38198  -0.36637  -0.34617  -0.33378  -0.32526
  Beta  occ. eigenvalues --   -0.30049  -0.27200  -0.23652  -0.23205  -0.22657
  Beta  occ. eigenvalues --   -0.21333  -0.18473  -0.18238  -0.14500
  Beta virt. eigenvalues --    0.13148   0.13955   0.14813   0.15512   0.16644
  Beta virt. eigenvalues --    0.17681   0.18133   0.19260   0.19898   0.21070
  Beta virt. eigenvalues --    0.22434   0.23763   0.24850   0.25326   0.25784
  Beta virt. eigenvalues --    0.27415   0.27907   0.28749   0.30130   0.31354
  Beta virt. eigenvalues --    0.32156   0.33496   0.34402   0.34724   0.35228
  Beta virt. eigenvalues --    0.36213   0.37476   0.38130   0.38350   0.38528
  Beta virt. eigenvalues --    0.39407   0.40252   0.41092   0.41647   0.42052
  Beta virt. eigenvalues --    0.42912   0.43289   0.44209   0.44916   0.45612
  Beta virt. eigenvalues --    0.46065   0.46950   0.48665   0.49414   0.51099
  Beta virt. eigenvalues --    0.52000   0.52973   0.53526   0.54291   0.56366
  Beta virt. eigenvalues --    0.58063   0.59584   0.62111   0.64328   0.67042
  Beta virt. eigenvalues --    0.68319   0.68548   0.78474   0.86454   0.88956
  Beta virt. eigenvalues --    0.93839   0.97516   0.97876   0.99601   1.03774
  Beta virt. eigenvalues --    1.06878   1.08891   1.10511   1.13446   1.14445
  Beta virt. eigenvalues --    1.15620   1.17058   1.18280   1.19537   1.21224
  Beta virt. eigenvalues --    1.22667   1.23377   1.24893   1.27073   1.29082
  Beta virt. eigenvalues --    1.29963   1.33781   1.34972   1.37438   1.38287
  Beta virt. eigenvalues --    1.39768   1.40842   1.42647   1.44985   1.46191
  Beta virt. eigenvalues --    1.48111   1.49978   1.50979   1.53220   1.55479
  Beta virt. eigenvalues --    1.56464   1.57171   1.58878   1.59052   1.61185
  Beta virt. eigenvalues --    1.62448   1.64525   1.68150   1.68994   1.70093
  Beta virt. eigenvalues --    1.72711   1.74192   1.75918   1.76897   1.79052
  Beta virt. eigenvalues --    1.82073   1.84990   1.87265   1.89698   1.94864
  Beta virt. eigenvalues --    1.96029   1.98892   1.99246   2.01773   2.02667
  Beta virt. eigenvalues --    2.06694   2.07029   2.11118   2.14431   2.17824
  Beta virt. eigenvalues --    2.19625   2.20457   2.26206   2.29481   2.30849
  Beta virt. eigenvalues --    2.34093   2.38767   2.41495   2.43617   2.46953
  Beta virt. eigenvalues --    2.48385   2.50039   2.51574   2.56218   2.57402
  Beta virt. eigenvalues --    2.61855   2.62649   2.65656   2.69280   2.70545
  Beta virt. eigenvalues --    2.74554   2.75282   2.76724   2.77752   2.86371
  Beta virt. eigenvalues --    2.86676   2.88681   2.89847   2.91232   2.94481
  Beta virt. eigenvalues --    2.97865   2.99587   3.03721   3.07063   3.09424
  Beta virt. eigenvalues --    3.12283   3.14005   3.18532   3.26164   3.26966
  Beta virt. eigenvalues --    3.33302   3.37438   3.43768   3.45725   3.55327
  Beta virt. eigenvalues --    3.58650   3.65028   3.79235   3.89676   3.93987
  Beta virt. eigenvalues --    4.17469   4.28417   4.39529   4.51380   4.52043
  Beta virt. eigenvalues --    4.55200   4.63502   4.64308   4.75311   4.87079
  Beta virt. eigenvalues --    4.89286
          Condensed to atoms (all electrons):
               1          2          3          4          5          6
     1  N   11.445399  -0.952078  -1.417763   1.555886  -3.238411   0.010041
     2  N   -0.952078   7.971060   0.417708  -0.418579   0.531075  -0.049392
     3  C   -1.417763   0.417708   7.423940  -1.330880   0.948790   0.444304
     4  C    1.555886  -0.418579  -1.330880   6.965812  -0.912376  -0.058896
     5  N   -3.238411   0.531075   0.948790  -0.912376   9.840131  -0.001042
     6  H    0.010041  -0.049392   0.444304  -0.058896  -0.001042   0.490480
     7  H    0.020286  -0.019452  -0.018400   0.382220  -0.059188   0.000640
     8  H    0.097331  -0.002290   0.010476  -0.003763   0.032008  -0.000026
     9  C   -0.040174   0.107772  -0.255593  -0.031014   0.120721  -0.006933
    10  O   -0.019998  -0.143394  -0.047126   0.043766   0.010338  -0.006031
    11  O    0.021185  -0.156738   0.019096   0.036833  -0.049830  -0.000699
    12  H   -0.001225   0.005103   0.000040  -0.000315  -0.002308   0.000000
    13  O   -0.297591   0.061672   0.027309  -0.038142   0.103760   0.000079
    14  H    0.014154  -0.004244  -0.001182   0.001398  -0.003042  -0.000001
    15  H    0.014214  -0.026420   0.004064  -0.016280   0.035112   0.000004
    16  O    0.097346  -0.076145  -0.014281   0.012149  -0.009963  -0.000009
    17  H   -0.011028   0.006172   0.002080  -0.002814   0.009007   0.000000
               7          8          9         10         11         12
     1  N    0.020286   0.097331  -0.040174  -0.019998   0.021185  -0.001225
     2  N   -0.019452  -0.002290   0.107772  -0.143394  -0.156738   0.005103
     3  C   -0.018400   0.010476  -0.255593  -0.047126   0.019096   0.000040
     4  C    0.382220  -0.003763  -0.031014   0.043766   0.036833  -0.000315
     5  N   -0.059188   0.032008   0.120721   0.010338  -0.049830  -0.002308
     6  H    0.000640  -0.000026  -0.006933  -0.006031  -0.000699   0.000000
     7  H    0.573434  -0.000044  -0.000831  -0.000270   0.000008  -0.000000
     8  H   -0.000044   0.275927  -0.004980   0.000232  -0.003702   0.002598
     9  C   -0.000831  -0.004980   4.720035   0.491979   0.156558  -0.001017
    10  O   -0.000270   0.000232   0.491979   8.331501  -0.089227   0.000042
    11  O    0.000008  -0.003702   0.156558  -0.089227   8.547294   0.000996
    12  H   -0.000000   0.002598  -0.001017   0.000042   0.000996   0.256673
    13  O    0.000104   0.133800  -0.003662   0.002293   0.008332   0.041523
    14  H   -0.000000  -0.013323   0.001767   0.000048  -0.002159  -0.006754
    15  H   -0.000001  -0.001670   0.015702   0.006300   0.152059  -0.000418
    16  O    0.000010   0.009332   0.018835  -0.004859  -0.073244   0.271667
    17  H   -0.000000  -0.000458  -0.001042   0.000147  -0.000567  -0.024126
              13         14         15         16         17
     1  N   -0.297591   0.014154   0.014214   0.097346  -0.011028
     2  N    0.061672  -0.004244  -0.026420  -0.076145   0.006172
     3  C    0.027309  -0.001182   0.004064  -0.014281   0.002080
     4  C   -0.038142   0.001398  -0.016280   0.012149  -0.002814
     5  N    0.103760  -0.003042   0.035112  -0.009963   0.009007
     6  H    0.000079  -0.000001   0.000004  -0.000009   0.000000
     7  H    0.000104  -0.000000  -0.000001   0.000010  -0.000000
     8  H    0.133800  -0.013323  -0.001670   0.009332  -0.000458
     9  C   -0.003662   0.001767   0.015702   0.018835  -0.001042
    10  O    0.002293   0.000048   0.006300  -0.004859   0.000147
    11  O    0.008332  -0.002159   0.152059  -0.073244  -0.000567
    12  H    0.041523  -0.006754  -0.000418   0.271667  -0.024126
    13  O    8.781761   0.278762   0.015107  -0.179922   0.008682
    14  H    0.278762   0.353418  -0.000390   0.008765   0.000006
    15  H    0.015107  -0.000390   0.329714   0.021983  -0.005074
    16  O   -0.179922   0.008765   0.021983   8.406344   0.293779
    17  H    0.008682   0.000006  -0.005074   0.293779   0.321561
          Atomic-Atomic Spin Densities.
               1          2          3          4          5          6
     1  N    0.593948  -0.147863   0.177684  -0.069467  -0.238017  -0.002186
     2  N   -0.147863   0.274481  -0.260601   0.046330   0.057634   0.003486
     3  C    0.177684  -0.260601   0.577097   0.033932  -0.112094  -0.004571
     4  C   -0.069467   0.046330   0.033932  -0.262528   0.070988   0.000942
     5  N   -0.238017   0.057634  -0.112094   0.070988   0.525761   0.001197
     6  H   -0.002186   0.003486  -0.004571   0.000942   0.001197  -0.015644
     7  H    0.001943  -0.000194  -0.001931   0.004520  -0.003208   0.000031
     8  H    0.033914  -0.011285  -0.002756   0.001752  -0.017373   0.000001
     9  C   -0.007622   0.094556  -0.087207   0.021238  -0.015714   0.001070
    10  O    0.007978  -0.033847   0.030768  -0.004387  -0.001513   0.000708
    11  O    0.003988  -0.015717   0.010315  -0.003758   0.000459   0.000116
    12  H   -0.000271  -0.000126  -0.000254   0.000037  -0.000134   0.000000
    13  O   -0.042179   0.014716   0.002545  -0.002296   0.028955   0.000000
    14  H    0.002443  -0.001322   0.000151  -0.000063  -0.001029  -0.000000
    15  H    0.002446  -0.003221   0.001310  -0.000263   0.000290  -0.000001
    16  O   -0.000695   0.001787   0.003025  -0.001358   0.001005  -0.000002
    17  H   -0.000316  -0.000022  -0.000405   0.000193  -0.000373  -0.000000
               7          8          9         10         11         12
     1  N    0.001943   0.033914  -0.007622   0.007978   0.003988  -0.000271
     2  N   -0.000194  -0.011285   0.094556  -0.033847  -0.015717  -0.000126
     3  C   -0.001931  -0.002756  -0.087207   0.030768   0.010315  -0.000254
     4  C    0.004520   0.001752   0.021238  -0.004387  -0.003758   0.000037
     5  N   -0.003208  -0.017373  -0.015714  -0.001513   0.000459  -0.000134
     6  H    0.000031   0.000001   0.001070   0.000708   0.000116   0.000000
     7  H    0.003442   0.000001  -0.000081   0.000010  -0.000000   0.000000
     8  H    0.000001  -0.000613   0.000995   0.000004   0.001497   0.000541
     9  C   -0.000081   0.000995   0.141518  -0.054777  -0.021747   0.000223
    10  O    0.000010   0.000004  -0.054777   0.124011   0.010134   0.000005
    11  O   -0.000000   0.001497  -0.021747   0.010134   0.032561   0.000305
    12  H    0.000000   0.000541   0.000223   0.000005   0.000305  -0.000303
    13  O    0.000002  -0.005702  -0.001573  -0.000177  -0.002776  -0.000232
    14  H    0.000000  -0.000039  -0.000057   0.000010   0.000295   0.000014
    15  H    0.000000  -0.000418  -0.000926  -0.000152  -0.000042  -0.000187
    16  O    0.000000  -0.001164  -0.002774   0.000081  -0.000216  -0.000123
    17  H   -0.000000   0.000181   0.000173  -0.000009   0.000099   0.000251
              13         14         15         16         17
     1  N   -0.042179   0.002443   0.002446  -0.000695  -0.000316
     2  N    0.014716  -0.001322  -0.003221   0.001787  -0.000022
     3  C    0.002545   0.000151   0.001310   0.003025  -0.000405
     4  C   -0.002296  -0.000063  -0.000263  -0.001358   0.000193
     5  N    0.028955  -0.001029   0.000290   0.001005  -0.000373
     6  H    0.000000  -0.000000  -0.000001  -0.000002  -0.000000
     7  H    0.000002   0.000000   0.000000   0.000000  -0.000000
     8  H   -0.005702  -0.000039  -0.000418  -0.001164   0.000181
     9  C   -0.001573  -0.000057  -0.000926  -0.002774   0.000173
    10  O   -0.000177   0.000010  -0.000152   0.000081  -0.000009
    11  O   -0.002776   0.000295  -0.000042  -0.000216   0.000099
    12  H   -0.000232   0.000014  -0.000187  -0.000123   0.000251
    13  O    0.019354   0.000213   0.000468   0.001919  -0.000286
    14  H    0.000213  -0.000547  -0.000020  -0.000212   0.000013
    15  H    0.000468  -0.000020  -0.000103   0.000713   0.000034
    16  O    0.001919  -0.000212   0.000713   0.001098  -0.000159
    17  H   -0.000286   0.000013   0.000034  -0.000159   0.000169
 Mulliken charges and spin densities:
               1          2
     1  N   -0.297574   0.315730
     2  N   -0.251829   0.018794
     3  C   -0.212584   0.367009
     4  C   -0.185006  -0.164188
     5  N   -0.354783   0.296836
     6  H    0.177480  -0.014851
     7  H    0.121483   0.004536
     8  H    0.468552  -0.000462
     9  C    0.711877   0.067295
    10  O   -0.575739   0.078848
    11  O   -0.566195   0.015512
    12  H    0.457523  -0.000254
    13  O   -0.943866   0.012953
    14  H    0.372778  -0.000149
    15  H    0.455994  -0.000075
    16  O   -0.781789   0.002925
    17  H    0.403675  -0.000457
 Sum of Mulliken charges =  -1.00000   1.00000
 Mulliken charges and spin densities with hydrogens summed into heavy atoms:
               1          2
     1  N   -0.297574   0.315730
     2  N   -0.251829   0.018794
     3  C   -0.035104   0.352157
     4  C   -0.063523  -0.159652
     5  N   -0.354783   0.296836
     9  C    0.711877   0.067295
    10  O   -0.575739   0.078848
    11  O   -0.110200   0.015436
    13  O   -0.102535   0.012341
    16  O    0.079409   0.002214
 Electronic spatial extent (au):  <R**2>=           1581.8984
 Charge=             -1.0000 electrons
 Dipole moment (field-independent basis, Debye):
    X=              0.1427    Y=             -1.1154    Z=             -0.3244  Tot=              1.1703
 Quadrupole moment (field-independent basis, Debye-Ang):
   XX=            -75.1162   YY=            -93.4583   ZZ=            -59.8454
   XY=              2.7514   XZ=             -0.9009   YZ=              0.2728
 Traceless Quadrupole moment (field-independent basis, Debye-Ang):
   XX=              1.0238   YY=            -17.3183   ZZ=             16.2945
   XY=              2.7514   XZ=             -0.9009   YZ=              0.2728
 Octapole moment (field-independent basis, Debye-Ang**2):
  XXX=            -13.0868  YYY=             -6.3836  ZZZ=              4.1418  XYY=             11.6153
  XXY=             -3.1175  XXZ=             -1.5915  XZZ=             25.1972  YZZ=              2.9177
  YYZ=             -5.8556  XYZ=             10.9354
 Hexadecapole moment (field-independent basis, Debye-Ang**3):
 XXXX=          -1182.4904 YYYY=          -1014.6908 ZZZZ=           -132.2187 XXXY=              7.5720
 XXXZ=              2.0580 YYYX=             27.5831 YYYZ=            -11.4505 ZZZX=              0.0712
 ZZZY=             -8.8138 XXYY=           -357.0235 XXZZ=           -197.4581 YYZZ=           -173.2340
 XXYZ=             22.7536 YYXZ=            -11.0533 ZZXY=            -13.8620
 N-N= 5.676409783638D+02 E-N=-2.516163288157D+03  KE= 5.791053287522D+02
                          Isotropic Fermi Contact Couplings
        Atom                 a.u.       MegaHertz       Gauss      10(-4) cm-1
     1  N(14)              0.08418      27.19990       9.70560       9.07291
     2  N(14)              0.00736       2.37957       0.84909       0.79374
     3  C(13)              0.04317      48.53253      17.31761      16.18871
     4  C(13)             -0.03116     -35.03216     -12.50035     -11.68547
     5  N(14)              0.06490      20.97009       7.48265       6.99487
     6  H(1)              -0.00470     -21.02701      -7.50296      -7.01386
     7  H(1)               0.00103       4.62408       1.64999       1.54243
     8  H(1)               0.00114       5.09149       1.81677       1.69834
     9  C(13)              0.01600      17.98972       6.41918       6.00072
    10  O(17)              0.01793     -10.87087      -3.87900      -3.62613
    11  O(17)              0.00355      -2.15502      -0.76896      -0.71884
    12  H(1)              -0.00003      -0.13494      -0.04815      -0.04501
    13  O(17)              0.00801      -4.85387      -1.73198      -1.61908
    14  H(1)              -0.00018      -0.81829      -0.29199      -0.27295
    15  H(1)              -0.00024      -1.06333      -0.37942      -0.35469
    16  O(17)              0.00071      -0.43328      -0.15461      -0.14453
    17  H(1)              -0.00007      -0.31403      -0.11205      -0.10475
 --------------------------------------------------------
       Center         ----  Spin Dipole Couplings  ----
                      3XX-RR        3YY-RR        3ZZ-RR
 --------------------------------------------------------
     1   Atom       -0.411685     -0.348177      0.759862
     2   Atom       -0.155699     -0.135455      0.291154
     3   Atom       -0.134401     -0.123279      0.257680
     4   Atom        0.060081      0.042950     -0.103031
     5   Atom       -0.288305     -0.265610      0.553915
     6   Atom        0.000476      0.001335     -0.001811
     7   Atom        0.004783      0.001022     -0.005806
     8   Atom        0.033018     -0.017263     -0.015756
     9   Atom       -0.048017     -0.038991      0.087008
    10   Atom       -0.124311     -0.150186      0.274497
    11   Atom       -0.029141     -0.038164      0.067305
    12   Atom        0.005989     -0.002845     -0.003144
    13   Atom        0.042170     -0.020637     -0.021533
    14   Atom        0.001515     -0.003353      0.001838
    15   Atom        0.005078      0.001300     -0.006378
    16   Atom        0.008988     -0.006044     -0.002944
    17   Atom        0.003979     -0.002642     -0.001337
 --------------------------------------------------------
                        XY            XZ            YZ
 --------------------------------------------------------
     1   Atom       -0.010059      0.040739     -0.252956
     2   Atom       -0.000342      0.033240     -0.029395
     3   Atom       -0.007278      0.005218     -0.089508
     4   Atom       -0.004715     -0.009106      0.035459
     5   Atom       -0.014350      0.049747     -0.157374
     6   Atom       -0.022019     -0.004976     -0.000200
     7   Atom       -0.003048     -0.001340      0.001825
     8   Atom       -0.012635      0.015929     -0.003668
     9   Atom        0.009987      0.040858      0.030204
    10   Atom        0.002035      0.100733     -0.010986
    11   Atom       -0.005874      0.048247     -0.013498
    12   Atom        0.000907      0.000241     -0.000589
    13   Atom       -0.013402      0.015226     -0.002527
    14   Atom       -0.000748      0.004361      0.000784
    15   Atom        0.003663     -0.001157      0.001205
    16   Atom        0.002471      0.005196      0.001047
    17   Atom        0.000619     -0.002937      0.000542
 --------------------------------------------------------


 ---------------------------------------------------------------------------------
              Anisotropic Spin Dipole Couplings in Principal Axis System
 ---------------------------------------------------------------------------------

       Atom             a.u.   MegaHertz   Gauss  10(-4) cm-1        Axes

              Baa    -0.4133   -15.938    -5.687    -5.316  0.9927  0.1201 -0.0086
     1 N(14)  Bbb    -0.4031   -15.545    -5.547    -5.185 -0.1155  0.9698  0.2150
              Bcc     0.8163    31.483    11.234    10.502  0.0341 -0.2124  0.9766
 
              Baa    -0.1583    -6.106    -2.179    -2.037  0.9931 -0.0869 -0.0791
     2 N(14)  Bbb    -0.1373    -5.295    -1.889    -1.766  0.0918  0.9939  0.0611
              Bcc     0.2956    11.401     4.068     3.803  0.0733 -0.0679  0.9950
 
              Baa    -0.1463   -19.630    -7.004    -6.548  0.4519  0.8722  0.1874
     3 C(13)  Bbb    -0.1315   -17.644    -6.296    -5.885  0.8919 -0.4379 -0.1127
              Bcc     0.2778    37.274    13.300    12.433  0.0162 -0.2181  0.9758
 
              Baa    -0.1115   -14.968    -5.341    -4.993  0.0456 -0.2221  0.9739
     4 C(13)  Bbb     0.0477     6.396     2.282     2.134  0.4602  0.8700  0.1769
              Bcc     0.0639     8.572     3.059     2.859  0.8867 -0.4401 -0.1419
 
              Baa    -0.2984   -11.508    -4.106    -3.839  0.5802  0.8063  0.1150
     5 N(14)  Bbb    -0.2877   -11.098    -3.960    -3.702  0.8123 -0.5627 -0.1532
              Bcc     0.5861    22.606     8.066     7.540  0.0588 -0.1823  0.9815
 
              Baa    -0.0218   -11.636    -4.152    -3.881  0.7114  0.6784  0.1838
     6 H(1)   Bbb    -0.0016    -0.837    -0.299    -0.279 -0.0383 -0.2237  0.9739
              Bcc     0.0234    12.473     4.451     4.161  0.7018 -0.6998 -0.1331
 
              Baa    -0.0063    -3.359    -1.199    -1.120  0.0575 -0.2190  0.9740
     7 H(1)   Bbb    -0.0005    -0.282    -0.101    -0.094  0.5211  0.8388  0.1578
              Bcc     0.0068     3.641     1.299     1.214  0.8515 -0.4985 -0.1624
 
              Baa    -0.0205   -10.951    -3.907    -3.653 -0.3354 -0.2925  0.8955
     8 H(1)   Bbb    -0.0202   -10.788    -3.849    -3.598  0.1168  0.9303  0.3476
              Bcc     0.0407    21.739     7.757     7.251  0.9348 -0.2212  0.2779
 
              Baa    -0.0596    -7.995    -2.853    -2.667  0.9633 -0.1052 -0.2468
     9 C(13)  Bbb    -0.0458    -6.149    -2.194    -2.051  0.0459  0.9709 -0.2349
              Bcc     0.1054    14.144     5.047     4.718  0.2644  0.2149  0.9402
 
              Baa    -0.1540    11.144     3.976     3.717 -0.6007  0.7830  0.1613
    10 O(17)  Bbb    -0.1447    10.472     3.737     3.493  0.7652  0.6216 -0.1676
              Bcc     0.2987   -21.616    -7.713    -7.210  0.2315 -0.0228  0.9726
 
              Baa    -0.0491     3.556     1.269     1.186  0.9246  0.0276 -0.3799
    11 O(17)  Bbb    -0.0399     2.884     1.029     0.962  0.0183  0.9930  0.1168
              Bcc     0.0890    -6.440    -2.298    -2.148  0.3805 -0.1150  0.9176
 
              Baa    -0.0037    -1.954    -0.697    -0.652 -0.0792  0.6397  0.7646
    12 H(1)   Bbb    -0.0024    -1.293    -0.461    -0.431 -0.0638  0.7622 -0.6443
              Bcc     0.0061     3.247     1.159     1.083  0.9948  0.0998  0.0196
 
              Baa    -0.0251     1.818     0.649     0.606 -0.2620 -0.2594  0.9295
    13 O(17)  Bbb    -0.0232     1.679     0.599     0.560  0.1243  0.9461  0.2991
              Bcc     0.0483    -3.496    -1.248    -1.166  0.9570 -0.1939  0.2156
 
              Baa    -0.0042    -2.216    -0.791    -0.739  0.4254  0.8043 -0.4149
    14 H(1)   Bbb    -0.0019    -1.007    -0.359    -0.336 -0.5816  0.5942  0.5557
              Bcc     0.0060     3.223     1.150     1.075  0.6934  0.0049  0.7205
 
              Baa    -0.0068    -3.648    -1.302    -1.217  0.1595 -0.2145  0.9636
    15 H(1)   Bbb    -0.0005    -0.257    -0.092    -0.086 -0.4911  0.8295  0.2659
              Bcc     0.0073     3.905     1.394     1.303  0.8564  0.5157 -0.0270
 
              Baa    -0.0065     0.468     0.167     0.156 -0.1173  0.9858 -0.1200
    16 O(17)  Bbb    -0.0049     0.353     0.126     0.118 -0.3609  0.0703  0.9299
              Bcc     0.0113    -0.821    -0.293    -0.274  0.9252  0.1524  0.3476
 
              Baa    -0.0034    -1.811    -0.646    -0.604 -0.3111  0.7104 -0.6313
    17 H(1)   Bbb    -0.0019    -1.015    -0.362    -0.339  0.2575  0.7024  0.6636
              Bcc     0.0053     2.826     1.008     0.943  0.9148  0.0439 -0.4014
 

 ---------------------------------------------------------------------------------

 Calling FoFJK, ICntrl=      2127 FMM=F ISym2X=0 I1Cent= 0 IOpClX= 1 NMat=1 NMatS=1 NMatT=0.
 ***** Axes restored to original set *****
 -------------------------------------------------------------------
 Center     Atomic                   Forces (Hartrees/Bohr)
 Number     Number              X              Y              Z
 -------------------------------------------------------------------
      1        7          -0.006020665   -0.005493515    0.006763437
      2        7          -0.006717141    0.001693039    0.005360324
      3        6           0.005850375    0.001785463   -0.001479706
      4        6           0.001706909   -0.001068559   -0.001890437
      5        7          -0.004810168    0.009445205    0.002197040
      6        1           0.000322014   -0.000312908   -0.000249015
      7        1           0.000699834   -0.000096773   -0.000540180
      8        1           0.006653765    0.005557377   -0.033342322
      9        6           0.024097291   -0.009011730   -0.006323277
     10        8           0.000657440    0.006925048   -0.000025886
     11        8          -0.016437541   -0.030425320    0.004935903
     12        1           0.017874692   -0.115091906   -0.141756980
     13        8          -0.006900729   -0.015716126    0.004422141
     14        1           0.014262905    0.000425642    0.004620105
     15        1           0.006083064    0.039210106   -0.000143557
     16        8          -0.036881677    0.112062580    0.158697905
     17        1          -0.000440368    0.000112378   -0.001245495
 -------------------------------------------------------------------
 Cartesian Forces:  Max     0.158697905 RMS     0.039205613

 GradGradGradGradGradGradGradGradGradGradGradGradGradGradGradGradGradGrad
 Berny optimization.
 FormGI is forming the generalized inverse of G from B-inverse, IUseBI=4.
 Internal  Forces:  Max     0.195156131 RMS     0.023203052
 Search for a local minimum.
 Step number   1 out of a maximum of   89
 All quantities printed in internal units (Hartrees-Bohrs-Radians)
 Mixed Optimization -- RFO/linear search
 Second derivative matrix not updated -- first step.
 ITU=  0
     Eigenvalues ---    0.00246   0.00374   0.00708   0.01276   0.01694
     Eigenvalues ---    0.01882   0.02142   0.02169   0.02205   0.02381
     Eigenvalues ---    0.02428   0.02633   0.03455   0.05607   0.06180
     Eigenvalues ---    0.07648   0.09024   0.09777   0.10729   0.11529
     Eigenvalues ---    0.12879   0.14177   0.15973   0.15989   0.16000
     Eigenvalues ---    0.20841   0.21655   0.22649   0.23822   0.24993
     Eigenvalues ---    0.32874   0.35781   0.36001   0.36541   0.39168
     Eigenvalues ---    0.43836   0.45557   0.47493   0.50900   0.54571
     Eigenvalues ---    0.54783   0.55068   0.63045   0.82313   0.92720
 RFO step:  Lambda=-6.08964495D-02 EMin= 2.46386995D-03
 Linear search not attempted -- first point.
 Maximum step size (   0.300) exceeded in Quadratic search.
    -- Step size scaled by   0.805
 Iteration  1 RMS(Cart)=  0.05022810 RMS(Int)=  0.00167004
 Iteration  2 RMS(Cart)=  0.00294546 RMS(Int)=  0.00035615
 Iteration  3 RMS(Cart)=  0.00000602 RMS(Int)=  0.00035612
 Iteration  4 RMS(Cart)=  0.00000000 RMS(Int)=  0.00035612
 Variable       Old X    -DE/DX   Delta X   Delta X   Delta X     New X
                                 (Linear)    (Quad)   (Total)
    R1        2.66398   0.00058   0.00000   0.00299   0.00320   2.66718
    R2        2.57870  -0.00676   0.00000  -0.00859  -0.00862   2.57008
    R3        2.72263   0.00552   0.00000   0.01155   0.01170   2.73434
    R4        2.62928   0.00473   0.00000   0.00711   0.00711   2.63639
    R5        2.63783  -0.00483   0.00000  -0.01085  -0.01082   2.62701
    R6        2.59872  -0.00041   0.00000  -0.00200  -0.00196   2.59677
    R7        2.03244   0.00003   0.00000   0.00006   0.00006   2.03250
    R8        2.53669   0.00271   0.00000   0.00273   0.00275   2.53944
    R9        2.04426   0.00059   0.00000   0.00113   0.00113   2.04538
   R10        2.07856  -0.00628   0.00000  -0.01894  -0.01878   2.05978
   R11        2.31704   0.00571   0.00000   0.00465   0.00465   2.32170
   R12        2.47555   0.02036   0.00000   0.02069   0.02044   2.49599
   R13        2.00078  -0.02281   0.00000  -0.04141  -0.04168   1.95910
   R14        2.95722   0.01410   0.00000   0.10267   0.10280   3.06002
   R15        1.62147   0.19516   0.00000   0.17886   0.17895   1.80042
   R16        1.81772  -0.00476   0.00000  -0.00627  -0.00627   1.81144
   R17        2.81659   0.01352   0.00000   0.05526   0.05495   2.87154
   R18        1.82025  -0.00118   0.00000  -0.00157  -0.00157   1.81868
    A1        1.88797  -0.00206   0.00000  -0.01458  -0.01453   1.87344
    A2        2.10955   0.00222   0.00000  -0.00420  -0.00455   2.10500
    A3        2.01685  -0.00480   0.00000  -0.00927  -0.00933   2.00752
    A4        1.87713   0.00222   0.00000   0.01187   0.01171   1.88884
    A5        2.20104   0.00553   0.00000   0.00132   0.00139   2.20244
    A6        2.15909  -0.00710   0.00000  -0.00844  -0.00844   2.15065
    A7        1.83241  -0.00284   0.00000  -0.00740  -0.00737   1.82504
    A8        2.10457   0.00183   0.00000   0.00523   0.00521   2.10978
    A9        2.34575   0.00098   0.00000   0.00218   0.00216   2.34791
   A10        1.96028  -0.00123   0.00000  -0.00393  -0.00389   1.95639
   A11        2.22512   0.00018   0.00000   0.00037   0.00035   2.22547
   A12        2.09776   0.00105   0.00000   0.00355   0.00353   2.10129
   A13        1.86378   0.00418   0.00000   0.01516   0.01511   1.87889
   A14        2.06592   0.00216   0.00000   0.01544   0.01565   2.08156
   A15        2.06398   0.00436   0.00000  -0.00723  -0.00778   2.05620
   A16        2.15291  -0.00641   0.00000  -0.00778  -0.00757   2.14534
   A17        1.98452   0.01912   0.00000   0.04407   0.04294   2.02746
   A18        1.38682   0.00656   0.00000   0.04287   0.04295   1.42976
   A19        2.11783  -0.01092   0.00000  -0.07959  -0.07966   2.03817
   A20        1.97458  -0.00116   0.00000   0.02201   0.02203   1.99660
   A21        2.63727   0.01583   0.00000   0.04676   0.04759   2.68486
   A22        1.53916  -0.00741   0.00000   0.01726   0.01685   1.55601
   A23        1.87044  -0.00133   0.00000  -0.00100  -0.00123   1.86920
   A24        1.85097   0.00166   0.00000  -0.00736  -0.00766   1.84331
   A25        3.02270   0.00741   0.00000   0.02577   0.02498   3.04768
   A26        2.95783  -0.01776   0.00000  -0.04835  -0.04853   2.90929
   A27        2.98294   0.01237   0.00000   0.15360   0.15377   3.13671
   A28        3.23179  -0.00559   0.00000  -0.01667  -0.01575   3.21604
    D1       -0.07428   0.00358   0.00000   0.01362   0.01379  -0.06050
    D2       -2.90212   0.00289   0.00000  -0.00077  -0.00086  -2.90298
    D3       -2.45639   0.01133   0.00000   0.05085   0.05033  -2.40606
    D4        0.99896   0.01065   0.00000   0.03646   0.03569   1.03464
    D5        0.07316  -0.00275   0.00000  -0.01235  -0.01252   0.06064
    D6        2.50042  -0.00669   0.00000  -0.04468  -0.04422   2.45620
    D7       -1.49115   0.00196   0.00000  -0.01061  -0.01183  -1.50297
    D8        0.44727   0.00225   0.00000   0.01014   0.00957   0.45683
    D9        2.50758   0.00375   0.00000  -0.02823  -0.02831   2.47927
   D10       -1.83719   0.00404   0.00000  -0.00748  -0.00692  -1.84411
   D11        0.04484  -0.00290   0.00000  -0.00891  -0.00906   0.03578
   D12       -3.06853  -0.00204   0.00000  -0.00921  -0.00932  -3.07784
   D13        2.88203   0.00052   0.00000   0.00710   0.00709   2.88911
   D14       -0.23134   0.00138   0.00000   0.00679   0.00683  -0.22451
   D15        3.02933   0.00877   0.00000   0.02768   0.02775   3.05708
   D16       -0.14087   0.01279   0.00000   0.04342   0.04323  -0.09764
   D17        0.24929   0.00592   0.00000   0.00736   0.00735   0.25665
   D18       -2.92091   0.00994   0.00000   0.02310   0.02284  -2.89807
   D19        0.00017   0.00121   0.00000   0.00163   0.00161   0.00178
   D20        3.13390   0.00071   0.00000  -0.00041  -0.00033   3.13357
   D21        3.10775   0.00018   0.00000   0.00203   0.00195   3.10970
   D22       -0.04171  -0.00032   0.00000  -0.00001   0.00001  -0.04170
   D23       -0.04641   0.00087   0.00000   0.00629   0.00649  -0.03992
   D24        3.10241   0.00133   0.00000   0.00818   0.00828   3.11069
   D25        0.07990   0.01082   0.00000   0.02264   0.02318   0.10309
   D26       -3.09183   0.01521   0.00000   0.03962   0.03968  -3.05215
   D27        3.13285   0.00072   0.00000  -0.02123  -0.02043   3.11242
   D28        0.86909  -0.00796   0.00000  -0.06600  -0.06648   0.80261
   D29       -0.96224  -0.00616   0.00000  -0.05558  -0.05590  -1.01814
   D30       -1.19234   0.00543   0.00000   0.01241   0.01229  -1.18005
   D31       -3.02367   0.00723   0.00000   0.02282   0.02287  -3.00080
   D32        2.21583   0.00381   0.00000  -0.00898  -0.00829   2.20755
   D33       -2.19375   0.00036   0.00000  -0.00542  -0.00518  -2.19893
         Item               Value     Threshold  Converged?
 Maximum Force            0.195156     0.000450     NO 
 RMS     Force            0.023203     0.000300     NO 
 Maximum Displacement     0.230021     0.001800     NO 
 RMS     Displacement     0.049792     0.001200     NO 
 Predicted change in Energy=-3.266850D-02
 GradGradGradGradGradGradGradGradGradGradGradGradGradGradGradGradGradGrad

                          Input orientation:                          
 ---------------------------------------------------------------------
 Center     Atomic      Atomic             Coordinates (Angstroms)
 Number     Number       Type             X           Y           Z
 ---------------------------------------------------------------------
      1          7           0        0.098044   -0.940501    0.212672
      2          7           0        0.799617    0.240193   -0.112659
      3          6           0        2.165637   -0.041635   -0.082361
      4          6           0        2.235520   -1.382256    0.211133
      5          7           0        1.017960   -1.931607    0.358088
      6          1           0        2.893049    0.734055   -0.243579
      7          1           0        3.126108   -1.988238    0.316781
      8          1           0       -1.093902   -1.314146   -0.517610
      9          6           0        0.287781    1.532452   -0.087700
     10          8           0        1.037797    2.479895   -0.309638
     11          8           0       -1.000771    1.680198    0.162042
     12          1           0       -2.625249   -0.538787    0.088830
     13          8           0       -2.017556   -1.496463   -1.066881
     14          1           0       -2.072634   -1.132696   -1.952040
     15          1           0       -1.518961    0.818865    0.415722
     16          8           0       -2.760233    0.045839    0.828900
     17          1           0       -2.511219   -0.439366    1.621865
 ---------------------------------------------------------------------
                    Distance matrix (angstroms):
                    1          2          3          4          5
     1  N    0.000000
     2  N    1.411412   0.000000
     3  C    2.273751   1.395119   0.000000
     4  C    2.182647   2.190661   1.374149   0.000000
     5  N    1.360030   2.232933   2.254584   1.343813   0.000000
     6  H    3.290039   2.154878   1.075554   2.262273   3.314169
     7  H    3.205895   3.250059   2.207053   1.082370   2.109313
     8  H    1.446948   2.483016   3.526091   3.408923   2.368136
     9  C    2.498343   1.390155   2.450331   3.518310   3.568135
    10  O    3.585394   2.260928   2.771605   4.077002   4.461793
    11  O    2.842186   2.321739   3.612559   4.455851   4.142324
    12  H    2.755547   3.518113   4.819653   4.934923   3.909657
    13  O    2.534189   3.444267   4.537059   4.442411   3.381456
    14  H    3.071605   3.676679   4.759102   4.827192   3.940395
    15  H    2.398188   2.447418   3.816387   4.356939   3.742244
    16  O    3.085831   3.687389   5.010214   5.232460   4.290303
    17  H    3.007526   3.798948   4.993552   5.040906   4.034727
                    6          7          8          9         10
     6  H    0.000000
     7  H    2.789122   0.000000
     8  H    4.490657   4.354204   0.000000
     9  C    2.729315   4.540370   3.193272   0.000000
    10  O    2.548388   4.971685   4.356849   1.228588   0.000000
    11  O    4.027598   5.523812   3.071921   1.320820   2.240034
    12  H    5.672939   5.935569   1.820433   3.578678   4.763310
    13  O    5.455922   5.349172   1.089988   3.930356   5.071491
    14  H    5.573294   5.736412   1.745975   4.018747   5.042130
    15  H    4.461806   5.428286   2.366753   2.006728   3.134036
    16  O    5.795124   6.248900   2.537579   3.512914   4.652518
    17  H    5.836344   5.990134   2.711343   3.826889   4.984807
                   11         12         13         14         15
    11  O    0.000000
    12  H    2.751034   0.000000
    13  O    3.554614   1.619291   0.000000
    14  H    3.678397   2.196192   0.958575   0.000000
    15  H    1.036711   1.781559   2.794182   3.117922   0.000000
    16  O    2.492296   0.952739   2.554261   3.097638   1.519553
    17  H    2.984140   1.540482   2.930957   3.666859   2.005617
                   16         17
    16  O    0.000000
    17  H    0.962406   0.000000
 Stoichiometry    C3H7N3O4(1-,2)
 Framework group  C1[X(C3H7N3O4)]
 Deg. of freedom    45
 Full point group                 C1      NOp   1
 Largest Abelian subgroup         C1      NOp   1
 Largest concise Abelian subgroup C1      NOp   1
                         Standard orientation:                         
 ---------------------------------------------------------------------
 Center     Atomic      Atomic             Coordinates (Angstroms)
 Number     Number       Type             X           Y           Z
 ---------------------------------------------------------------------
      1          7           0       -0.073177   -0.940422   -0.224991
      2          7           0       -0.808999    0.215988    0.111709
      3          6           0       -2.166540   -0.102675    0.068195
      4          6           0       -2.197680   -1.440493   -0.244148
      5          7           0       -0.964569   -1.954216   -0.390293
      6          1           0       -2.916007    0.650498    0.235064
      7          1           0       -3.070589   -2.069096   -0.364199
      8          1           0        1.123834   -1.291425    0.508234
      9          6           0       -0.332694    1.521993    0.107997
     10          8           0       -1.109865    2.445375    0.337781
     11          8           0        0.952902    1.708413   -0.130868
     12          1           0        2.637199   -0.466082   -0.077008
     13          8           0        2.048575   -1.456016    1.061260
     14          1           0        2.087918   -1.103227    1.951685
     15          1           0        1.496181    0.865198   -0.392796
     16          8           0        2.760860    0.132258   -0.808041
     17          1           0        2.530396   -0.348503   -1.609278
 ---------------------------------------------------------------------
 Rotational constants (GHZ):           1.4604021           1.1432858           0.7168217
 Standard basis: 6-31+G(d,p) (6D, 7F)
 There are   225 symmetry adapted cartesian basis functions of A   symmetry.
 There are   225 symmetry adapted basis functions of A   symmetry.
   225 basis functions,   369 primitive gaussians,   225 cartesian basis functions
    40 alpha electrons       39 beta electrons
       nuclear repulsion energy       564.2676789043 Hartrees.
 NAtoms=   17 NActive=   17 NUniq=   17 SFac= 1.00D+00 NAtFMM=   60 NAOKFM=F Big=F
 Integral buffers will be    131072 words long.
 Raffenetti 2 integral format.
 Two-electron integral symmetry is turned on.
 One-electron integrals computed using PRISM.
 NBasis=   225 RedAO= T EigKep=  2.52D-05  NBF=   225
 NBsUse=   225 1.00D-06 EigRej= -1.00D+00 NBFU=   225
 Initial guess from the checkpoint file:  "/scratch/gongke2021/PC/Gau-11760.chk"
 B after Tr=    -0.000000    0.000000    0.000000
         Rot=    0.999914   -0.006868    0.001207   -0.011068 Ang=  -1.50 deg.
 Initial guess <Sx>= 0.0000 <Sy>= 0.0000 <Sz>= 0.5000 <S**2>= 0.7643 S= 0.5071
 ExpMin= 4.38D-02 ExpMax= 5.48D+03 ExpMxC= 8.25D+02 IAcc=2 IRadAn=         4 AccDes= 0.00D+00
 Harris functional with IExCor= 1009 and IRadAn=       4 diagonalized for initial guess.
 HarFok:  IExCor= 1009 AccDes= 0.00D+00 IRadAn=         4 IDoV= 1 UseB2=F ITyADJ=14
 ICtDFT=  3500011 ScaDFX=  1.000000  1.000000  1.000000  1.000000
 FoFCou: FMM=F IPFlag=           0 FMFlag=      100000 FMFlg1=           0
         NFxFlg=           0 DoJE=T BraDBF=F KetDBF=T FulRan=T
         wScrn=  0.000000 ICntrl=       500 IOpCl=  0 I1Cent=   200000004 NGrid=           0
         NMat0=    1 NMatS0=      1 NMatT0=    0 NMatD0=    1 NMtDS0=    0 NMtDT0=    0
 Petite list used in FoFCou.
 Requested convergence on RMS density matrix=1.00D-08 within 128 cycles.
 Requested convergence on MAX density matrix=1.00D-06.
 Requested convergence on             energy=1.00D-06.
 No special actions if energy rises.
 SCF Done:  E(UM062X) =  -583.482951376     A.U. after   16 cycles
            NFock= 16  Conv=0.82D-08     -V/T= 2.0080
 <Sx>= 0.0000 <Sy>= 0.0000 <Sz>= 0.5000 <S**2>= 0.7644 S= 0.5072
 <L.S>=  0.00000000000    
 Annihilation of the first spin contaminant:
 S**2 before annihilation     0.7644,   after     0.7501
 Calling FoFJK, ICntrl=      2127 FMM=F ISym2X=0 I1Cent= 0 IOpClX= 1 NMat=1 NMatS=1 NMatT=0.
 ***** Axes restored to original set *****
 -------------------------------------------------------------------
 Center     Atomic                   Forces (Hartrees/Bohr)
 Number     Number              X              Y              Z
 -------------------------------------------------------------------
      1        7           0.000196131   -0.000705255    0.003339325
      2        7          -0.003206777    0.005470104    0.003989154
      3        6           0.002084750    0.001278725   -0.001626468
      4        6          -0.000429065   -0.001951364   -0.001378327
      5        7          -0.002246672    0.003252964    0.002488209
      6        1          -0.000153977   -0.000074290   -0.000149059
      7        1          -0.000060806   -0.000138706   -0.000239309
      8        1          -0.000319863    0.002336568   -0.021310706
      9        6           0.014192156   -0.006736813   -0.002522023
     10        8          -0.002055475    0.002155923    0.000204129
     11        8          -0.007646411   -0.017578423    0.001102223
     12        1          -0.001389514   -0.032389821   -0.031739445
     13        8          -0.005383520   -0.005813075    0.012299702
     14        1           0.009655587    0.002275849    0.000090943
     15        1           0.006244234    0.026053424   -0.000332167
     16        8          -0.010177280    0.024736164    0.037006938
     17        1           0.000696505   -0.002171974   -0.001223119
 -------------------------------------------------------------------
 Cartesian Forces:  Max     0.037006938 RMS     0.011180508

 GradGradGradGradGradGradGradGradGradGradGradGradGradGradGradGradGradGrad
 Berny optimization.
 Using GEDIIS/GDIIS optimizer.
 FormGI is forming the generalized inverse of G from B-inverse, IUseBI=4.
 Internal  Forces:  Max     0.045534977 RMS     0.006355075
 Search for a local minimum.
 Step number   2 out of a maximum of   89
 All quantities printed in internal units (Hartrees-Bohrs-Radians)
 Mixed Optimization -- RFO/linear search
 Update second derivatives using D2CorX and points    1    2
 DE= -3.07D-02 DEPred=-3.27D-02 R= 9.39D-01
 TightC=F SS=  1.41D+00  RLast= 3.34D-01 DXNew= 5.0454D-01 1.0015D+00
 Trust test= 9.39D-01 RLast= 3.34D-01 DXMaxT set to 5.05D-01
 ITU=  1  0
 Use linear search instead of GDIIS.
     Eigenvalues ---    0.00248   0.00358   0.00789   0.01304   0.01704
     Eigenvalues ---    0.01869   0.02142   0.02165   0.02207   0.02424
     Eigenvalues ---    0.02429   0.02678   0.03428   0.05552   0.06250
     Eigenvalues ---    0.07608   0.09105   0.10083   0.10621   0.11259
     Eigenvalues ---    0.12804   0.13947   0.15986   0.16000   0.16163
     Eigenvalues ---    0.21016   0.21341   0.22669   0.23847   0.24935
     Eigenvalues ---    0.32697   0.35781   0.35933   0.36541   0.38979
     Eigenvalues ---    0.43830   0.45349   0.47512   0.50875   0.54591
     Eigenvalues ---    0.54785   0.55090   0.62808   0.84217   0.92773
 RFO step:  Lambda=-2.41435166D-02 EMin= 2.48021841D-03
 Quartic linear search produced a step of  0.76385.
 Maximum step size (   0.505) exceeded in Quadratic search.
    -- Step size scaled by   0.972
 Iteration  1 RMS(Cart)=  0.08956828 RMS(Int)=  0.03309004
 Iteration  2 RMS(Cart)=  0.06501025 RMS(Int)=  0.00577158
 Iteration  3 RMS(Cart)=  0.00814791 RMS(Int)=  0.00452164
 Iteration  4 RMS(Cart)=  0.00007561 RMS(Int)=  0.00452141
 Iteration  5 RMS(Cart)=  0.00000096 RMS(Int)=  0.00452141
 Variable       Old X    -DE/DX   Delta X   Delta X   Delta X     New X
                                 (Linear)    (Quad)   (Total)
    R1        2.66718   0.00045   0.00244  -0.00171   0.00314   2.67032
    R2        2.57008  -0.00312  -0.00658  -0.00135  -0.00896   2.56112
    R3        2.73434   0.00409   0.00894   0.03010   0.03910   2.77343
    R4        2.63639   0.00131   0.00543  -0.00274   0.00313   2.63953
    R5        2.62701  -0.00618  -0.00827  -0.01733  -0.02491   2.60210
    R6        2.59677   0.00116  -0.00149   0.00505   0.00476   2.60152
    R7        2.03250  -0.00014   0.00005  -0.00061  -0.00056   2.03194
    R8        2.53944  -0.00013   0.00210  -0.00169   0.00072   2.54016
    R9        2.04538   0.00000   0.00086  -0.00085   0.00001   2.04539
   R10        2.05978  -0.00674  -0.01435  -0.01882  -0.02955   2.03023
   R11        2.32170   0.00037   0.00355  -0.00344   0.00012   2.32181
   R12        2.49599   0.00884   0.01561   0.00003   0.01247   2.50845
   R13        1.95910  -0.01319  -0.03184  -0.01885  -0.05380   1.90530
   R14        3.06002   0.00220   0.07852   0.02609   0.10620   3.16621
   R15        1.80042   0.04553   0.13669  -0.06521   0.07220   1.87262
   R16        1.81144   0.00023  -0.00479   0.00583   0.00104   1.81249
   R17        2.87154   0.01102   0.04197   0.09285   0.13128   3.00282
   R18        1.81868   0.00027  -0.00120   0.00205   0.00085   1.81954
    A1        1.87344  -0.00001  -0.01110  -0.00207  -0.01090   1.86254
    A2        2.10500   0.00109  -0.00347  -0.03593  -0.03807   2.06693
    A3        2.00752  -0.00270  -0.00713  -0.01770  -0.02287   1.98465
    A4        1.88884   0.00030   0.00894   0.00765   0.01320   1.90204
    A5        2.20244   0.00059   0.00107  -0.01962  -0.01809   2.18435
    A6        2.15065  -0.00050  -0.00645   0.02943   0.02336   2.17401
    A7        1.82504  -0.00126  -0.00563  -0.00638  -0.01121   1.81383
    A8        2.10978   0.00055   0.00398   0.00156   0.00515   2.11493
    A9        2.34791   0.00071   0.00165   0.00484   0.00608   2.35399
   A10        1.95639  -0.00019  -0.00297   0.00280   0.00035   1.95673
   A11        2.22547   0.00020   0.00027   0.00048   0.00050   2.22596
   A12        2.10129  -0.00001   0.00270  -0.00325  -0.00082   2.10047
   A13        1.87889   0.00126   0.01155   0.00141   0.01074   1.88963
   A14        2.08156   0.00301   0.01195   0.02759   0.04219   2.12376
   A15        2.05620   0.00080  -0.00594  -0.03058  -0.04200   2.01420
   A16        2.14534  -0.00380  -0.00578   0.00302  -0.00012   2.14522
   A17        2.02746   0.00871   0.03280  -0.01781   0.00284   2.03030
   A18        1.42976   0.00554   0.03280   0.06201   0.09612   1.52588
   A19        2.03817  -0.00807  -0.06085  -0.12697  -0.18911   1.84906
   A20        1.99660   0.00045   0.01682   0.04182   0.05960   2.05620
   A21        2.68486   0.01069   0.03635   0.05433   0.09985   2.78471
   A22        1.55601   0.00118   0.01287   0.05633   0.06213   1.61814
   A23        1.86920  -0.00309  -0.00094  -0.03075  -0.03379   1.83541
   A24        1.84331   0.00032  -0.00585  -0.01621  -0.02295   1.82036
   A25        3.04768   0.00285   0.01908   0.08353   0.09228   3.13996
   A26        2.90929  -0.00720  -0.03707  -0.04588  -0.08708   2.82221
   A27        3.13671   0.00790   0.11746   0.44061   0.56290   3.69962
   A28        3.21604  -0.00173  -0.01203   0.00103  -0.00332   3.21272
    D1       -0.06050   0.00146   0.01053   0.04769   0.06141   0.00091
    D2       -2.90298   0.00020  -0.00066  -0.01999  -0.01785  -2.92083
    D3       -2.40606   0.00452   0.03845   0.11385   0.14168  -2.26438
    D4        1.03464   0.00327   0.02726   0.04616   0.06241   1.09705
    D5        0.06064  -0.00140  -0.00956  -0.04720  -0.05997   0.00067
    D6        2.45620  -0.00241  -0.03378  -0.11906  -0.14410   2.31211
    D7       -1.50297  -0.00063  -0.00903  -0.04866  -0.07225  -1.57522
    D8        0.45683   0.00146   0.00731  -0.03247  -0.03471   0.42212
    D9        2.47927  -0.00136  -0.02163  -0.13904  -0.15691   2.32236
   D10       -1.84411   0.00073  -0.00528  -0.12285  -0.11937  -1.96348
   D11        0.03578  -0.00093  -0.00692  -0.02899  -0.03783  -0.00206
   D12       -3.07784  -0.00086  -0.00712  -0.03008  -0.03874  -3.11658
   D13        2.88911   0.00050   0.00541   0.02612   0.03218   2.92130
   D14       -0.22451   0.00057   0.00522   0.02503   0.03128  -0.19323
   D15        3.05708   0.00275   0.02120   0.07595   0.09646  -3.12964
   D16       -0.09764   0.00315   0.03302   0.07898   0.10713   0.00949
   D17        0.25665   0.00116   0.00562   0.00397   0.00842   0.26506
   D18       -2.89807   0.00156   0.01744   0.00700   0.01908  -2.87899
   D19        0.00178   0.00002   0.00123  -0.00001   0.00078   0.00256
   D20        3.13357   0.00017  -0.00025   0.00316   0.00384   3.13741
   D21        3.10970  -0.00008   0.00149   0.00117   0.00177   3.11147
   D22       -0.04170   0.00007   0.00001   0.00434   0.00483  -0.03687
   D23       -0.03992   0.00086   0.00496   0.03009   0.03783  -0.00208
   D24        3.11069   0.00072   0.00633   0.02715   0.03501  -3.13748
   D25        0.10309   0.00316   0.01771   0.04801   0.06866   0.17175
   D26       -3.05215   0.00363   0.03031   0.05134   0.07981  -2.97234
   D27        3.11242   0.00038  -0.01560  -0.12649  -0.13198   2.98044
   D28        0.80261  -0.00392  -0.05078  -0.16237  -0.21569   0.58692
   D29       -1.01814  -0.00395  -0.04270  -0.15694  -0.20053  -1.21867
   D30       -1.18005   0.00426   0.00939  -0.03878  -0.03078  -1.21083
   D31       -3.00080   0.00423   0.01747  -0.03334  -0.01561  -3.01642
   D32        2.20755   0.00129  -0.00633  -0.04763  -0.04673   2.16082
   D33       -2.19893  -0.00156  -0.00396  -0.06458  -0.06647  -2.26540
         Item               Value     Threshold  Converged?
 Maximum Force            0.045535     0.000450     NO 
 RMS     Force            0.006355     0.000300     NO 
 Maximum Displacement     0.627680     0.001800     NO 
 RMS     Displacement     0.145517     0.001200     NO 
 Predicted change in Energy=-5.760608D-03
 GradGradGradGradGradGradGradGradGradGradGradGradGradGradGradGradGradGrad

                          Input orientation:                          
 ---------------------------------------------------------------------
 Center     Atomic      Atomic             Coordinates (Angstroms)
 Number     Number       Type             X           Y           Z
 ---------------------------------------------------------------------
      1          7           0        0.015846   -0.855324    0.116858
      2          7           0        0.797016    0.301280   -0.104089
      3          6           0        2.148535   -0.038450   -0.009393
      4          6           0        2.132560   -1.386817    0.267853
      5          7           0        0.881710   -1.873396    0.341832
      6          1           0        2.918303    0.703715   -0.122623
      7          1           0        2.983033   -2.040118    0.414241
      8          1           0       -1.039463   -1.180780   -0.849765
      9          6           0        0.315425    1.591115   -0.125380
     10          8           0        1.052072    2.551576   -0.336201
     11          8           0       -0.987888    1.716059    0.093251
     12          1           0       -2.604591   -0.635710    0.176450
     13          8           0       -2.013865   -1.567735   -1.084356
     14          1           0       -2.202786   -1.280629   -1.979790
     15          1           0       -1.470757    0.887091    0.403406
     16          8           0       -2.637891   -0.034419    0.963416
     17          1           0       -2.226270   -0.531655    1.677853
 ---------------------------------------------------------------------
                    Distance matrix (angstroms):
                    1          2          3          4          5
     1  N    0.000000
     2  N    1.413074   0.000000
     3  C    2.287265   1.396777   0.000000
     4  C    2.187638   2.184420   1.376668   0.000000
     5  N    1.355287   2.221539   2.257261   1.344194   0.000000
     6  H    3.303364   2.159203   1.075255   2.267198   3.317368
     7  H    3.208796   3.244917   2.209644   1.082376   2.109170
     8  H    1.467637   2.474912   3.489193   3.369458   2.364429
     9  C    2.476588   1.376973   2.455448   3.510653   3.541440
    10  O    3.589707   2.276567   2.831478   4.128350   4.479858
    11  O    2.760443   2.286136   3.595272   4.404034   4.054796
    12  H    2.630298   3.539432   4.794106   4.797198   3.703176
    13  O    2.463772   3.514996   4.562875   4.365093   3.242190
    14  H    3.082069   3.875500   4.935531   4.884506   3.905819
[...]
   yx         0.230385D+02      0.341396D+01      0.379854D+01
   yy         0.916542D+02      0.135818D+02      0.151117D+02
   zx        -0.773931D+01     -0.114685D+01     -0.127604D+01
   zy         0.557411D+00      0.825999D-01      0.919047D-01
   zz         0.108748D+03      0.161148D+02      0.179301D+02

 ----------------------------------------------------------------------
 1\1\GINC-NODE4\Freq\UM062X\6-31+G(d,p)\C3H7N3O4(1-,2)\GONGKE2021\06-Ju
 n-2023\0\\#N Geom=AllCheck Guess=TCheck SCRF=Check GenChk UM062X/6-31+
 G(d,p) Freq\\test\\-1,2\N,0.0553326701,-0.8986729012,0.3890581647\N,0.
 7915640334,0.2363688839,-0.0050440794\C,2.1519223565,-0.0587743293,0.0
 477632426\C,2.1871891273,-1.3639602614,0.496377312\N,0.9551366446,-1.8
 546063761,0.7001168892\H,2.893142317,0.67268889,-0.2210176574\H,3.0601
 372305,-1.975670235,0.682062283\H,-1.289442714,-1.26573913,-0.99180315
 37\C,0.238545448,1.422806226,-0.3797226513\O,0.8990321268,2.362673841,
 -0.8127126142\O,-1.1164850945,1.4919531703,-0.2850879126\H,-2.89783183
 99,-0.7980232024,0.4614325682\O,-2.1047758971,-1.0952630981,-1.5128121
 786\H,-2.022705282,-0.1594100733,-1.7379538571\H,-1.4899260136,0.85263
 82005,0.3565891107\O,-2.5785125123,-0.4398004766,1.3044405408\H,-1.671
 3350408,-0.8034074682,1.351878133\\Version=ES64L-G16RevA.03\State=2-A\
 HF=-583.5014783\S2=0.765622\S2-1=0.\S2A=0.750115\RMSD=6.593e-09\RMSF=1
 .688e-05\ZeroPoint=0.1228025\Thermal=0.1345449\Dipole=0.5362994,-0.212
 5845,-0.0077827\DipoleDeriv=-0.7623569,-0.6548049,0.183885,0.2492576,0
 .0794257,-0.1567421,-0.1409385,-0.181792,-0.3840042,-0.2645672,0.30505
 93,-0.059932,0.248982,-0.6426651,0.2295696,-0.0751276,0.2581543,-0.065
 7637,-0.278147,0.1530092,-0.067966,-0.3134794,-0.3347131,-0.0197758,0.
 1114371,-0.0227879,-0.3886531,0.2933681,0.1604095,-0.072347,0.1847977,
 0.5578727,-0.222202,-0.0865734,-0.2284086,-0.0055564,-0.208092,0.10415
 08,-0.0301807,-0.3075588,-0.9434706,0.2236968,0.1110414,0.2408852,-0.3
 532473,0.0328716,0.006366,0.002967,-0.0331351,0.0672946,0.0623585,0.01
 68828,0.0600807,0.2271222,-0.0717111,0.107927,-0.0324499,0.1129956,0.0
 265267,0.0402452,-0.0309945,0.0397826,0.1372496,0.6418427,0.1326212,0.
 2007859,0.001746,0.226473,0.0256668,0.3546192,0.1575344,0.4619037,1.76
 24877,0.1659266,-0.2132408,-0.2363044,2.3632695,-0.660755,-0.0390488,-
 0.7782803,0.6590547,-0.6077849,-0.8001085,0.2917759,0.0482816,-1.81793
 66,0.4565933,0.0109342,0.5828865,-0.6992895,-1.4974564,0.3257801,0.026
 4934,-0.1242607,-0.5316022,0.0045801,0.1330591,0.0002519,-0.466979,0.3
 809768,0.0430995,-0.0210941,0.0454007,0.26792,-0.0202737,-0.0450824,-0
 .0043769,0.3764549,-0.896157,-0.036238,-0.0923577,0.0379322,-0.4547888
 ,-0.0485925,-0.2391473,-0.1383861,-0.8747944,0.3106425,-0.0601642,0.03
 62531,0.0097076,0.1865408,0.0554515,0.0765822,0.0141628,0.3666236,0.49
 16459,0.0974694,-0.1429588,0.1848157,0.3240945,-0.0418488,-0.1691778,-
 0.0364719,0.3428565,-1.0819478,-0.156925,0.1736371,-0.1244586,-0.60194
 36,0.0983016,0.1598029,0.0918737,-0.6723927,0.7543851,0.106422,-0.1832
 705,0.0152804,0.2277023,-0.0262734,-0.1482687,-0.0551085,0.3394149\Pol
 ar=106.8793734,-2.6715512,108.5799952,1.0744151,-15.9462725,69.8225774
 \Quadrupole=1.9874992,-6.5678149,4.5803157,-3.442011,1.9531456,3.08474
 02\PG=C01 [X(C3H7N3O4)]\NImag=0\\0.50131192,-0.06954927,0.32626737,0.0
 1482788,-0.08530219,0.09931734,-0.15926326,-0.07362113,0.02820943,0.68
 471155,-0.00634120,-0.10347887,0.02231168,-0.14812506,0.68195633,0.007
 70421,0.02627277,-0.04341072,0.02619839,-0.20278863,0.14665221,-0.0449
 4043,-0.03292243,0.01151915,-0.26933666,0.02952187,-0.00186677,0.64141
 088,-0.02171941,-0.00333522,0.00011710,0.03158766,-0.10625120,0.022661
 40,0.14127604,0.70731366,0.00897337,0.00075203,-0.00291041,-0.00273751
 ,0.02280589,-0.04312460,-0.06631930,-0.22158419,0.14351644,-0.09043284
 ,0.03774687,-0.00944316,-0.02059282,0.01884965,-0.00634198,-0.10281527
 ,0.03821949,-0.01189039,0.76780917,0.03763090,-0.01877267,0.01273129,0
 .06951924,-0.04178026,0.01394320,0.00971164,-0.31974169,0.09220052,-0.
 14990894,0.64185793,-0.01093057,0.01098797,0.01259208,-0.02222761,0.01
 632964,0.00317258,-0.00243691,0.09170360,-0.08063385,0.03383139,-0.173
 69319,0.18000177,-0.19928787,0.14130805,-0.04740686,-0.00870604,0.0337
 1146,-0.01030574,-0.01343257,-0.08426022,0.02988356,-0.30976384,-0.097
 39710,0.04001568,0.55413858,0.04085903,-0.16381534,0.03628945,0.010568
 31,-0.09086169,0.03257054,-0.02845780,-0.06712026,0.03432136,-0.065112
 25,-0.10288365,0.01500315,0.02074482,0.41732592,-0.01242291,0.03528209
 ,-0.06334336,-0.00316218,0.03179223,-0.00654514,0.01153726,0.03616468,
 0.01547270,0.02864109,0.01491400,-0.06838491,-0.01726799,-0.11568738,0
 .12186335,-0.00328648,0.00098375,0.00000948,-0.01657089,-0.02201862,0.
 00757597,-0.20487954,-0.14592381,0.05514055,0.00947894,0.00242751,-0.0
 0115702,0.00021847,0.00506669,-0.00161553,0.21451597,0.00372768,-0.001
 47410,0.00146466,0.00925312,0.00942389,-0.00501723,-0.15733434,-0.2017
 7061,0.06986768,-0.01748755,-0.00229863,-0.00010228,-0.00118629,-0.003
 00180,0.00304610,0.16260788,0.20025998,-0.00107974,0.00179051,0.002613
 68,-0.00283136,-0.00416083,-0.00332356,0.05903042,0.06911077,-0.034072
 05,0.00570864,-0.00025390,-0.00374682,0.00054019,0.00271055,0.00490517
 ,-0.06099281,-0.06881734,0.03584530,-0.00437490,-0.00194383,0.00107940
 ,-0.00071877,-0.00338876,0.00131923,0.00604080,-0.00220338,0.00053345,
 -0.24152966,0.13439125,-0.04006930,-0.02105285,0.01986222,-0.00652766,
 -0.00051508,0.00053951,-0.00021352,0.26166631,-0.00428301,0.00096193,0
 .00275120,0.00030319,-0.00527214,0.00389153,0.02134303,-0.00284667,0.0
 0029082,0.13936725,-0.15811183,0.03990951,-0.00962978,0.01195000,-0.00
 608441,-0.00058913,-0.00044897,-0.00045784,-0.14762610,0.15318523,0.00
 182466,0.00268749,0.00766004,0.00006775,0.00395193,0.00475276,-0.00747
 288,0.00093994,-0.00020639,-0.04181920,0.04000995,-0.04353748,0.003628
 38,-0.00682969,-0.00415743,0.00016092,-0.00047432,-0.00163955,0.043985
 77,-0.04028654,0.03648989,0.00450480,0.00164798,0.00977486,-0.00416298
 ,-0.00153312,0.00050956,0.00094205,0.00111141,-0.00020757,0.00055063,-
 0.00123634,-0.00027510,-0.00358690,0.00439439,-0.00058586,-0.00000218,
 -0.00007566,-0.00004536,0.00018399,-0.00011023,-0.00015929,0.31497421,
 -0.00050439,-0.00508734,0.00207595,-0.00239508,-0.00193474,-0.00103266
 ,0.00000636,-0.00068754,0.00018088,0.00134460,-0.00038144,0.00004220,0
 .00238611,-0.00007505,0.00110044,-0.00000564,-0.00001312,0.00000232,0.
 00015664,-0.00002290,-0.00016178,-0.06852784,0.07908395,0.00385147,0.0
 0067926,0.00227673,0.00082544,-0.00010812,0.00179897,0.00148742,0.0016
 3073,-0.00101695,0.00113653,-0.00141612,0.00011622,-0.00061614,0.00380
 821,-0.00019176,0.00024652,-0.00003400,0.00011079,0.00036689,-0.000061
 37,-0.00014388,0.17925972,-0.05704890,0.13691588,0.02233996,0.00421239
 ,-0.00194467,-0.16853320,0.07773599,-0.02223012,-0.01999162,0.03637918
 ,-0.00990988,-0.01104155,-0.00177213,0.00132439,-0.00068636,-0.0139691
 8,0.00480586,-0.00178547,0.00048338,-0.00046408,0.00008236,0.00064367,
 -0.00027014,0.00578270,-0.00410836,0.00253326,0.72326154,0.02114937,-0
 .03201345,0.01089726,0.07875151,-0.27169220,0.07370920,0.01481173,-0.0
 0479035,0.00131855,-0.00340539,0.00283638,-0.00127019,-0.01321897,0.00
 981647,-0.00423544,-0.00477543,0.00153545,-0.00022701,-0.00043781,0.00
 159214,-0.00015360,-0.00736579,-0.00082097,-0.00479030,0.12203211,0.81
 203155,-0.01236189,0.00779725,-0.00379449,-0.02202970,0.07818095,-0.07
 363431,-0.00126463,0.00058300,0.00064967,0.00138590,-0.00066664,-0.000
 00336,0.00550895,-0.00386655,-0.00090737,0.00200154,-0.00052241,0.0005
 4652,0.00022841,-0.00014810,0.00120449,0.00171230,-0.00092429,0.002863
 16,-0.10284038,-0.27023812,0.27819074,-0.01860329,-0.00629922,0.001284
 58,0.01547797,0.01063044,-0.00227036,0.01178222,-0.00140464,-0.0005761
 4,0.00136840,0.00145623,-0.00055652,0.00724605,-0.00422262,0.00177440,
 0.00289604,-0.00050227,0.00012359,0.00044345,-0.00002035,0.00001428,0.
 00139005,0.00038191,0.00184330,-0.24967406,-0.21848903,0.10314633,0.28
 571603,-0.01130407,-0.00196761,0.00095354,-0.02691359,-0.06261377,0.03
 283854,0.00822131,0.00296194,-0.00301378,-0.00300663,0.00008687,0.0005
 0942,0.00816386,-0.01212241,0.00480569,0.00165649,-0.00208556,0.000327
 88,0.00062771,-0.00041459,0.00010901,0.00456169,-0.00032685,0.00388162
 ,-0.22305289,-0.42212743,0.16234983,0.26632582,0.48873340,0.00651561,0
 .00252196,0.00236644,0.01107283,0.02662772,0.00463393,-0.00510437,-0.0
 0240930,-0.00189730,0.00119007,-0.00011897,-0.00021487,-0.00373927,0.0
 0557715,0.00043436,-0.00084733,0.00059264,-0.00081646,-0.00027874,0.00
 014361,-0.00009884,-0.00176569,0.00009881,-0.00211041,0.10512888,0.163
 85115,-0.13678611,-0.13152411,-0.20398828,0.12249396,0.01977870,-0.005
 11827,0.00173395,-0.05321614,0.01197335,0.00014519,-0.00319214,0.00803
 446,-0.00247119,-0.00329462,-0.00587692,0.00213665,-0.00429352,0.01272
 061,-0.00445521,-0.00020284,-0.00002152,0.00010727,-0.00018914,0.00065
 862,-0.00029470,-0.00752170,0.00219041,-0.00398160,-0.27959089,0.03792
 654,-0.00041522,-0.05100408,-0.02383808,0.01770278,0.47963788,0.008759
 13,-0.00000938,0.00138110,0.04617773,-0.00855958,0.00203552,-0.0069990
 6,-0.00194821,0.00260255,0.00325833,-0.00235647,0.00104051,-0.00075556
 ,0.00408555,-0.00219108,0.00058483,-0.00012618,-0.00007373,0.00011605,
 -0.00054393,-0.00001573,-0.00158572,0.00273010,-0.00046845,0.00767359,
 -0.10118218,0.03421659,-0.04898026,0.00904293,0.00472153,0.07317085,0.
 32142466,-0.00160793,-0.00000217,-0.00129853,-0.01019889,0.00293564,0.
 00878471,0.00119527,0.00201295,0.00428858,-0.00056399,0.00109358,0.000
 84269,0.00013386,-0.00098708,0.00130722,-0.00028330,-0.00007401,-0.000
 47739,-0.00002005,-0.00010218,-0.00053269,-0.00073267,0.00160464,-0.00
 159767,0.02482993,0.02971357,-0.06551370,0.03237267,0.00532357,0.00768
 367,-0.13470743,-0.24674029,0.25883068,0.00057728,0.00054877,0.0020061
 1,0.00068384,-0.00025127,-0.00000179,0.00014534,0.00032416,-0.00010156
 ,0.00020070,-0.00022153,0.00003038,0.00036631,0.00034006,-0.00025189,0
 .00006407,-0.00001412,-0.00001851,0.00011233,-0.00002493,-0.00003324,-
 0.00366934,0.00113066,0.00416134,-0.00123688,-0.00060874,0.00008457,0.
 00067655,0.00075111,-0.00033784,0.00097476,0.00085669,0.00036161,0.109
 92728,-0.00030723,-0.00055795,-0.00047894,0.00020305,-0.00033893,-0.00
 001071,0.00009738,-0.00033178,0.00010250,0.00026670,0.00012280,-0.0000
 1908,0.00017436,-0.00042746,0.00008739,-0.00000467,0.00000546,0.000019
 07,0.00003994,-0.00000590,0.00001439,0.00157836,0.00169637,-0.00095359
 ,-0.00293666,0.00100400,-0.00012499,0.00073128,-0.00017557,-0.00009059
 ,0.00354892,0.00084244,0.00012762,0.05158687,0.08849472,0.00049109,-0.
 00052582,-0.00267367,0.00031027,0.00002307,-0.00007587,0.00007383,0.00
 016458,-0.00016582,-0.00006580,-0.00002246,0.00015191,-0.00006828,0.00
 007901,-0.00046838,0.00002667,0.00002450,0.00007624,0.00000693,0.00002
 210,0.00007278,0.00485504,-0.00114209,0.00132111,0.00026830,0.00002433
 ,0.00040342,0.00011992,0.00015051,-0.00022108,-0.00002278,-0.00004253,
 -0.00238680,0.15773907,0.15929395,0.39080975,-0.01127324,-0.00091887,-
 0.01565068,0.00290752,0.00102418,-0.00024677,-0.00067342,-0.00089614,-
 0.00012030,-0.00076915,0.00123123,0.00013963,0.00099066,-0.00319323,-0
 .00056019,-0.00001266,0.00006234,0.00006150,-0.00024046,0.00012388,0.0
 0029031,-0.31587474,0.02872784,-0.17862120,-0.00267235,0.00626173,0.00
 017752,-0.00118138,-0.00360872,0.00102175,0.00524421,-0.00187136,-0.00
 226002,-0.00185356,0.00069949,-0.00507706,0.36731713,0.00166644,0.0036
 5784,-0.00009020,-0.00007805,0.00073543,0.00067271,-0.00021465,0.00083
 680,-0.00019058,-0.00063970,-0.00026803,0.00000674,-0.00173338,0.00155
 110,-0.00055307,0.00000877,-0.00001268,-0.00002903,-0.00009144,0.00001
 246,0.00002379,0.07182275,-0.05903823,0.05484650,0.00707632,-0.0020721
 5,0.00115796,-0.00064911,0.00121855,-0.00052203,-0.00709787,-0.0047602
 8,-0.00407239,-0.00038994,-0.00548978,0.00099463,-0.00380509,0.5537708
 3,-0.01081519,0.00035537,-0.00776804,-0.00029914,0.00039302,-0.0005852
 4,-0.00119931,-0.00098079,0.00071422,-0.00083997,0.00124432,-0.0002606
 7,-0.00042610,-0.00259018,0.00010211,-0.00016515,-0.00001743,-0.000166
 21,-0.00032017,0.00005246,0.00010676,-0.19370641,0.03112756,-0.1326575
 1,0.00191477,0.00324190,-0.00248343,-0.00232898,-0.00308965,0.00213051
 ,-0.00153730,-0.00346664,0.00033733,-0.00481387,-0.00114624,0.00139921
 ,0.20550321,-0.15580008,0.18957096,-0.00067243,-0.00057058,0.00055021,
 -0.00071735,-0.00027160,-0.00015187,-0.00017057,-0.00007876,0.00014576
 ,0.00014826,0.00003764,-0.00000203,0.00037718,-0.00037594,0.00017167,-
 0.00001110,-0.00002097,-0.00005389,0.00004358,-0.00003701,-0.00003566,
 0.00271406,0.03954263,-0.01143738,-0.00225986,-0.00121156,-0.00157856,
 0.00000945,0.00005399,0.00030027,-0.00043030,0.00135084,0.00208490,0.0
 0047890,-0.00194119,0.00142251,-0.04043761,-0.06754627,0.00257524,0.03
 991579,-0.00199962,0.00016818,-0.00167133,0.00122651,0.00033875,0.0000
 3062,0.00028186,-0.00045229,0.00012024,0.00003397,0.00033149,-0.000098
 42,0.00056308,-0.00131000,0.00031324,0.00000442,0.00002237,0.00005579,
 0.00000381,-0.00001601,0.00004752,-0.00590399,-0.01247686,0.00170139,-
 0.00478964,0.00191699,-0.00052711,0.00032674,-0.00098501,0.00046240,0.
 00366974,-0.00098206,0.00143794,-0.00045059,0.00056438,0.00152707,-0.0
 2363228,-0.49380097,0.12980593,0.03050041,0.50670837,-0.00040817,-0.00
 120278,0.00030995,0.00019747,-0.00042033,-0.00029238,0.00031986,-0.000
 14169,-0.00012477,0.00023761,-0.00012743,0.00008306,0.00063181,-0.0001
 6095,-0.00003856,0.00003681,0.00001748,0.00005648,0.00009240,-0.000026
 56,0.00001083,0.00269614,0.02663893,-0.00382136,-0.00612373,-0.0003240
 4,0.00104287,0.00141216,0.00062326,-0.00098281,0.00533498,0.00317984,0
 .00123832,0.00099515,0.00314925,-0.00202211,-0.01108927,0.10337424,-0.
 04280745,0.00791191,-0.13095077,0.05091026,-0.00244525,0.00050305,0.00
 103325,-0.00035700,-0.00074253,0.00078545,-0.00089322,-0.00100417,-0.0
 0028893,0.00089235,-0.00031273,0.00006154,0.00090371,-0.00095278,-0.00
 045887,0.00009364,-0.00001844,0.00007206,0.00017248,-0.00009365,0.0001
 3565,0.00238477,0.00023149,0.00056412,-0.02146467,-0.02731058,0.025043
 02,-0.00497873,0.00029405,0.00075574,-0.09277577,-0.07610915,0.0831795
 8,-0.00203797,-0.00519337,-0.00086276,-0.00279860,0.00085581,0.0020333
 4,0.00158112,0.00020250,-0.00165418,0.11528855,-0.00393604,0.00164492,
 -0.00174455,0.00593400,0.00049905,-0.00014011,0.00086700,-0.00209754,0
 .00035006,-0.00001437,0.00199078,-0.00076452,0.00071386,-0.00453831,0.
 00260647,-0.00003116,0.00000661,0.00000858,-0.00011201,-0.00012064,0.0
 0007789,0.00236609,-0.00239486,-0.00153005,-0.01246479,0.00817481,-0.0
 0916914,0.00252516,-0.00007785,0.00265677,-0.09954649,-0.21403811,0.20
 228407,-0.00357629,-0.00359848,-0.00080145,-0.00125247,0.00112820,0.00
 297603,-0.00000893,0.00082541,-0.00234304,0.10084200,0.21652897,0.0009
 8098,-0.00106737,-0.00230629,-0.00329577,0.00162060,0.00097043,0.00072
 245,0.00087728,-0.00080412,-0.00061441,-0.00020725,0.00014505,-0.00068
 106,0.00101281,-0.00111261,0.00000670,0.00000665,0.00014279,-0.0000769
 4,0.00015612,0.00008153,0.00070222,-0.00299377,0.00012423,0.00825025,-
 0.00537985,-0.00019586,-0.00609376,-0.00074132,0.00311678,0.11105482,0
 .19996280,-0.21032181,-0.00121009,-0.00182378,0.00399677,0.00111862,0.
 00332026,0.00070898,-0.00117829,-0.00162234,-0.00463283,-0.10343766,-0
 .19389287,0.21395812,-0.01438956,0.00309022,0.00731343,-0.00124972,0.0
 0167721,0.00075222,-0.00111578,-0.00120028,0.00065894,-0.00138252,0.00
 105263,-0.00085589,-0.00098146,-0.00193669,0.00283365,-0.00023050,0.00
 008969,-0.00003078,-0.00048031,-0.00006194,-0.00022141,-0.00213029,-0.
 00073421,-0.00286687,0.00222333,0.00304150,-0.00183019,-0.00269744,-0.
 00341389,0.00167602,-0.00179213,-0.00477760,0.00509496,-0.08947873,-0.
 05827387,-0.15837732,0.00483446,0.00060317,0.00218352,-0.00130738,-0.0
 0035547,-0.00015798,-0.00047392,0.00543689,-0.00428542,0.50653870,0.00
 467916,0.00408089,-0.00070341,0.00033669,-0.00005212,-0.00121964,-0.00
 017550,0.00155254,-0.00048112,-0.00042464,-0.00062902,0.00029231,-0.00
 092986,0.00227590,-0.00077420,0.00012536,-0.00005909,-0.00004388,-0.00
 001449,0.00003492,-0.00002389,-0.00145338,-0.00137113,0.00103693,0.011
 31643,-0.00590428,0.00159197,-0.00245371,0.00166567,-0.00015794,-0.015
 68008,-0.00456521,0.00767035,-0.03255989,-0.08869775,-0.15410830,0.000
 68902,0.00378943,-0.00194628,0.00060113,-0.00106689,-0.00185003,0.0101
 4975,0.00385871,-0.00653416,-0.11546562,0.17242368,0.00345407,-0.00047
 266,0.00363618,0.00193733,-0.00055471,0.00014909,0.00036714,-0.0000484
 5,0.00022087,0.00080872,-0.00017515,-0.00006800,0.00176379,-0.00040235
 ,0.00004757,0.00009438,-0.00004962,-0.00010922,0.00021552,-0.00002613,
 -0.00006698,-0.00313354,0.00131929,0.00011730,-0.00628352,0.00216639,-
 0.00143514,0.00204943,0.00024349,-0.00008516,0.00973696,0.00497443,-0.
 00088879,-0.11685664,-0.17276498,-0.38554016,0.00409742,-0.00296920,-0
 .01016336,-0.00045863,-0.00084766,0.00142436,-0.00686342,-0.00593995,-
 0.00390114,0.15355395,0.17401450,0.43735808,0.00045687,0.00090252,-0.0
 0489637,-0.00035602,-0.00245201,-0.00157483,0.00111993,0.00175842,-0.0
 0071286,0.00117382,-0.00073258,0.00097129,-0.00244955,0.00366437,-0.00
 245566,0.00022960,-0.00010245,0.00008638,0.00035589,0.00003649,0.00019
 881,0.00352087,0.00017685,0.00124717,0.00524703,-0.00715120,0.00303203
 ,0.00113278,0.00448181,-0.00176661,-0.00813228,-0.00086935,0.00112150,
 -0.01593090,0.00973064,-0.00083964,-0.00350683,0.00021224,0.00224151,0
 .00073826,0.00031855,-0.00043298,0.00690851,0.00225757,-0.00196263,-0.
 39588676,0.14125963,-0.04448298,0.40537877,0.00147253,-0.00626920,-0.0
 0098261,-0.00272810,-0.00011795,0.00158296,-0.00003444,-0.00129158,0.0
 0035660,0.00091260,-0.00000255,0.00012263,0.00134555,-0.00084895,-0.00
 058675,-0.00011725,0.00003696,0.00003808,0.00008069,0.00006689,0.00008
 364,0.00030939,0.00112063,-0.00117374,-0.00445941,0.00169524,0.0003097
 8,0.00064362,-0.00081272,0.00003336,0.00328572,0.00094590,-0.00222583,
 -0.01744104,0.00689343,-0.00566110,0.00035844,-0.00125853,-0.00015931,
 -0.00002382,0.00021418,0.00056463,-0.00134126,-0.00779167,0.00730619,0
 .17122827,-0.08733627,0.00153277,-0.15349149,0.09475620,0.00100307,-0.
 00055372,-0.00326694,-0.00203676,0.00106026,0.00007712,-0.00058864,-0.
 00080161,0.00009378,-0.00136105,0.00054424,-0.00025544,-0.00159477,-0.
 00084805,0.00101704,-0.00023839,0.00008892,0.00005429,-0.00032163,-0.0
 0002423,0.00000417,0.00110164,-0.00088754,-0.00410486,0.00101085,0.001
 69620,-0.00014710,-0.00079079,-0.00128335,0.00035340,-0.00006717,-0.00
 111642,-0.00029585,-0.04175281,0.01461873,-0.00467730,0.00121550,-0.00
 017024,0.00182183,-0.00026615,0.00021548,-0.00035386,-0.00009795,0.005
 36583,0.00003000,-0.00544084,-0.01676321,-0.04069550,0.05022588,-0.001
 14130,0.05034521\\0.00000310,-0.00000364,0.00001501,-0.00001586,-0.000
 00280,-0.00000171,0.00000051,0.00000330,0.00000816,0.00001819,-0.00000
 688,-0.00000303,-0.00002067,0.00001205,-0.00000806,0.00000164,-0.00000
 471,-0.00000510,0.00000135,0.00000167,0.00000296,0.00001248,0.00000277
 ,-0.00000999,0.00006882,0.00000323,-0.00000869,-0.00000969,-0.00000509
 ,0.00000423,-0.00007361,0.00000208,0.00000710,0.00000022,-0.00000851,0
 .00000651,-0.00000625,0.00000370,0.00001464,0.00000297,-0.00000459,-0.
 00000386,0.00002614,-0.00001825,0.00000069,-0.00000740,0.00002081,-0.0
 0000657,-0.00000195,0.00000487,-0.00001230\\\@


 YOU CANNOT THROW TO THE GROUND THE LETTERS OF
 THE GREEK ALPHABET AND PICK UP THE ILIAD.
        - RUFUS CHOATE, 1799-1859
 Job cpu time:       0 days  0 hours 53 minutes 54.1 seconds.
 Elapsed time:       0 days  0 hours  2 minutes 15.3 seconds.
 File lengths (MBytes):  RWF=    190 Int=      0 D2E=      0 Chk=      7 Scr=      1
 Normal termination of Gaussian 16 at Tue Jun  6 01:00:27 2023.
