 Entering Gaussian System, Link 0=/opt/soft/g16/g16
 Initial command:
 /opt/soft/g16/l1.exe "/scratch/gongke2021/PC/Gau-16521.inp" -scrdir="/scratch/gongke2021/PC/"
 Entering Link 1 = /opt/soft/g16/l1.exe PID=     16522.
  
 Copyright (c) 1988,1990,1992,1993,1995,1998,2003,2009,2016,
            Gaussian, Inc.  All Rights Reserved.
  
 This is part of the Gaussian(R) 16 program.  It is based on
 the Gaussian(R) 09 system (copyright 2009, Gaussian, Inc.),
 the Gaussian(R) 03 system (copyright 2003, Gaussian, Inc.),
 the Gaussian(R) 98 system (copyright 1998, Gaussian, Inc.),
 the Gaussian(R) 94 system (copyright 1995, Gaussian, Inc.),
 the Gaussian 92(TM) system (copyright 1992, Gaussian, Inc.),
 the Gaussian 90(TM) system (copyright 1990, Gaussian, Inc.),
 the Gaussian 88(TM) system (copyright 1988, Gaussian, Inc.),
 the Gaussian 86(TM) system (copyright 1986, Carnegie Mellon
 University), and the Gaussian 82(TM) system (copyright 1983,
 Carnegie Mellon University). Gaussian is a federally registered
 trademark of Gaussian, Inc.
  
 This software contains proprietary and confidential information,
 including trade secrets, belonging to Gaussian, Inc.
  
 This software is provided under written license and may be
 used, copied, transmitted, or stored only in accord with that
 written license.
  
 The following legend is applicable only to US Government
 contracts under FAR:
  
                    RESTRICTED RIGHTS LEGEND
  
 Use, reproduction and disclosure by the US Government is
 subject to restrictions as set forth in subparagraphs (a)
 and (c) of the Commercial Computer Software - Restricted
 Rights clause in FAR 52.227-19.
  
 Gaussian, Inc.
 340 Quinnipiac St., Bldg. 40, Wallingford CT 06492
  
  
 ---------------------------------------------------------------
 Warning -- This program may not be used in any manner that
 competes with the business of Gaussian, Inc. or will provide
 assistance to any competitor of Gaussian, Inc.  The licensee
 of this program is prohibited from giving any competitor of
 Gaussian, Inc. access to this program.  By using this program,
 the user acknowledges that Gaussian, Inc. is engaged in the
 business of creating and licensing software in the field of
 computational chemistry and represents and warrants to the
 licensee that it is not a competitor of Gaussian, Inc. and that
 it will not use this program in any manner prohibited above.
 ---------------------------------------------------------------
  

 Cite this work as:
 Gaussian 16, Revision A.03,
 M. J. Frisch, G. W. Trucks, H. B. Schlegel, G. E. Scuseria, 
 M. A. Robb, J. R. Cheeseman, G. Scalmani, V. Barone, 
 G. A. Petersson, H. Nakatsuji, X. Li, M. Caricato, A. V. Marenich, 
 J. Bloino, B. G. Janesko, R. Gomperts, B. Mennucci, H. P. Hratchian, 
 J. V. Ortiz, A. F. Izmaylov, J. L. Sonnenberg, D. Williams-Young, 
 F. Ding, F. Lipparini, F. Egidi, J. Goings, B. Peng, A. Petrone, 
 T. Henderson, D. Ranasinghe, V. G. Zakrzewski, J. Gao, N. Rega, 
 G. Zheng, W. Liang, M. Hada, M. Ehara, K. Toyota, R. Fukuda, 
 J. Hasegawa, M. Ishida, T. Nakajima, Y. Honda, O. Kitao, H. Nakai, 
 T. Vreven, K. Throssell, J. A. Montgomery, Jr., J. E. Peralta, 
 F. Ogliaro, M. J. Bearpark, J. J. Heyd, E. N. Brothers, K. N. Kudin, 
 V. N. Staroverov, T. A. Keith, R. Kobayashi, J. Normand, 
 K. Raghavachari, A. P. Rendell, J. C. Burant, S. S. Iyengar, 
 J. Tomasi, M. Cossi, J. M. Millam, M. Klene, C. Adamo, R. Cammi, 
 J. W. Ochterski, R. L. Martin, K. Morokuma, O. Farkas, 
 J. B. Foresman, and D. J. Fox, Gaussian, Inc., Wallingford CT, 2016.
 
 ******************************************
 Gaussian 16:  ES64L-G16RevA.03 25-Dec-2016
                 5-Jun-2023 
 ******************************************
 %mem=10GB
 %nprocshared=24
 Will use up to   24 processors via shared memory.
 ----------------------------
 # opt freq 6-31+g(d,p) m062x
 ----------------------------
 1/18=20,19=15,26=3,38=1/1,3;
 2/9=110,12=2,17=6,18=5,40=1/2;
 3/5=1,6=6,7=111,11=2,25=1,30=1,71=1,74=-55/1,2,3;
 4//1;
 5/5=2,38=5/2;
 6/7=2,8=2,9=2,10=2,28=1/1;
 7//1,2,3,16;
 1/18=20,19=15,26=3/3(2);
 2/9=110/2;
 99//99;
 2/9=110/2;
 3/5=1,6=6,7=111,11=2,25=1,30=1,71=1,74=-55/1,2,3;
 4/5=5,16=3,69=1/1;
 5/5=2,38=5/2;
 7//1,2,3,16;
 1/18=20,19=15,26=3/3(-5);
 2/9=110/2;
 6/7=2,8=2,9=2,10=2,19=2,28=1/1;
 99/9=1/99;
 ----
 test
 ----
 Symbolic Z-matrix:
 Charge =  0 Multiplicity = 1
 N                     0.5435   -0.95407  -0.10324 
 N                     0.93022   0.32008  -0.04593 
 C                     2.26301   0.38426   0.12669 
 C                     2.67076  -0.93226   0.1646 
 N                     1.5794   -1.7239    0.02509 
 H                     2.76719   1.33413   0.20255 
 H                     3.65809  -1.34905   0.28215 
 H                    -0.9473   -1.43392  -0.09256 
 C                    -0.03291   1.48751  -0.1423 
 O                     0.47399   2.55642   0.10365 
 O                    -1.17747   1.1133   -0.48847 
 H                    -2.59163  -0.69554   0.24208 
 O                    -1.85584  -1.88504  -0.08476 
 H                    -2.06358  -2.3389   -0.91038 
 H                    -1.73904   0.31883   0.06383 
 O                    -3.16831   0.06064   0.35042 
 H                    -3.45271   0.22845   1.2559 
 
 Add virtual bond connecting atoms H15        and H12        Dist= 2.53D+00.
 Add virtual bond connecting atoms H15        and O16        Dist= 2.80D+00.
 Add virtual bond connecting atoms H8         and N1         Dist= 2.96D+00.
 Add virtual bond connecting atoms O13        and H12        Dist= 2.71D+00.

 GradGradGradGradGradGradGradGradGradGradGradGradGradGradGradGradGradGrad
 Berny optimization.
 Initialization pass.
                           ----------------------------
                           !    Initial Parameters    !
                           ! (Angstroms and Degrees)  !
 --------------------------                            --------------------------
 ! Name  Definition              Value          Derivative Info.                !
 --------------------------------------------------------------------------------
 ! R1    R(1,2)                  1.3328         estimate D2E/DX2                !
 ! R2    R(1,5)                  1.297          estimate D2E/DX2                !
 ! R3    R(1,8)                  1.5662         estimate D2E/DX2                !
 ! R4    R(2,3)                  1.3455         estimate D2E/DX2                !
 ! R5    R(2,9)                  1.5165         estimate D2E/DX2                !
 ! R6    R(3,4)                  1.3787         estimate D2E/DX2                !
 ! R7    R(3,6)                  1.0781         estimate D2E/DX2                !
 ! R8    R(4,5)                  1.3555         estimate D2E/DX2                !
 ! R9    R(4,7)                  1.0781         estimate D2E/DX2                !
 ! R10   R(8,13)                 1.0144         estimate D2E/DX2                !
 ! R11   R(9,10)                 1.2083         estimate D2E/DX2                !
 ! R12   R(9,11)                 1.253          estimate D2E/DX2                !
 ! R13   R(11,15)                1.1187         estimate D2E/DX2                !
 ! R14   R(12,13)                1.4364         estimate D2E/DX2                !
 ! R15   R(12,15)                1.337          estimate D2E/DX2                !
 ! R16   R(12,16)                0.9571         estimate D2E/DX2                !
 ! R17   R(13,14)                0.9648         estimate D2E/DX2                !
 ! R18   R(15,16)                1.4804         estimate D2E/DX2                !
 ! R19   R(16,17)                0.9638         estimate D2E/DX2                !
 ! A1    A(2,1,5)              109.3561         estimate D2E/DX2                !
 ! A2    A(2,1,8)              124.6682         estimate D2E/DX2                !
 ! A3    A(5,1,8)              125.2906         estimate D2E/DX2                !
 ! A4    A(1,2,3)              109.7885         estimate D2E/DX2                !
 ! A5    A(1,2,9)              123.2941         estimate D2E/DX2                !
 ! A6    A(3,2,9)              126.9096         estimate D2E/DX2                !
 ! A7    A(2,3,4)              104.5335         estimate D2E/DX2                !
 ! A8    A(2,3,6)              120.9527         estimate D2E/DX2                !
 ! A9    A(4,3,6)              134.5139         estimate D2E/DX2                !
 ! A10   A(3,4,5)              108.4654         estimate D2E/DX2                !
 ! A11   A(3,4,7)              130.0146         estimate D2E/DX2                !
 ! A12   A(5,4,7)              121.52           estimate D2E/DX2                !
 ! A13   A(1,5,4)              107.8546         estimate D2E/DX2                !
 ! A14   A(2,9,10)             113.6808         estimate D2E/DX2                !
 ! A15   A(2,9,11)             111.5798         estimate D2E/DX2                !
 ! A16   A(10,9,11)            134.7217         estimate D2E/DX2                !
 ! A17   A(9,11,15)            122.2928         estimate D2E/DX2                !
 ! A18   A(13,12,15)           105.7415         estimate D2E/DX2                !
 ! A19   A(8,13,12)             95.2942         estimate D2E/DX2                !
 ! A20   A(8,13,14)            113.2956         estimate D2E/DX2                !
 ! A21   A(12,13,14)           118.2942         estimate D2E/DX2                !
 ! A22   A(11,15,12)           157.6207         estimate D2E/DX2                !
 ! A23   A(11,15,16)           134.7532         estimate D2E/DX2                !
 ! A24   A(12,16,17)           114.9408         estimate D2E/DX2                !
 ! A25   A(15,16,17)           115.8738         estimate D2E/DX2                !
 ! A26   L(1,8,13,11,-1)       188.4639         estimate D2E/DX2                !
 ! A27   L(13,12,16,2,-1)      185.3322         estimate D2E/DX2                !
 ! A28   L(1,8,13,11,-2)       178.6388         estimate D2E/DX2                !
 ! A29   L(13,12,16,2,-2)      172.8161         estimate D2E/DX2                !
 ! D1    D(5,1,2,3)             -0.0526         estimate D2E/DX2                !
 ! D2    D(5,1,2,9)           -179.0931         estimate D2E/DX2                !
 ! D3    D(8,1,2,3)            170.8693         estimate D2E/DX2                !
 ! D4    D(8,1,2,9)             -8.1712         estimate D2E/DX2                !
 ! D5    D(2,1,5,4)             -0.2347         estimate D2E/DX2                !
 ! D6    D(8,1,5,4)           -171.0868         estimate D2E/DX2                !
 ! D7    D(2,1,13,12)           -9.8459         estimate D2E/DX2                !
 ! D8    D(2,1,13,14)          116.242          estimate D2E/DX2                !
 ! D9    D(5,1,13,12)          159.7481         estimate D2E/DX2                !
 ! D10   D(5,1,13,14)          -74.164          estimate D2E/DX2                !
 ! D11   D(1,2,3,4)              0.3075         estimate D2E/DX2                !
 ! D12   D(1,2,3,6)           -179.6783         estimate D2E/DX2                !
 ! D13   D(9,2,3,4)            179.3045         estimate D2E/DX2                !
 ! D14   D(9,2,3,6)             -0.6814         estimate D2E/DX2                !
 ! D15   D(1,2,9,10)           170.8418         estimate D2E/DX2                !
 ! D16   D(1,2,9,11)           -10.4578         estimate D2E/DX2                !
 ! D17   D(3,2,9,10)            -8.0291         estimate D2E/DX2                !
 ! D18   D(3,2,9,11)           170.6713         estimate D2E/DX2                !
 ! D19   D(2,3,4,5)             -0.4457         estimate D2E/DX2                !
 ! D20   D(2,3,4,7)            179.6454         estimate D2E/DX2                !
 ! D21   D(6,3,4,5)            179.5373         estimate D2E/DX2                !
 ! D22   D(6,3,4,7)             -0.3717         estimate D2E/DX2                !
 ! D23   D(3,4,5,1)              0.4291         estimate D2E/DX2                !
 ! D24   D(7,4,5,1)           -179.6527         estimate D2E/DX2                !
 ! D25   D(2,9,11,15)           54.5657         estimate D2E/DX2                !
 ! D26   D(10,9,11,15)        -127.1094         estimate D2E/DX2                !
 ! D27   D(9,11,15,12)        -149.8341         estimate D2E/DX2                !
 ! D28   D(9,11,15,16)         147.1656         estimate D2E/DX2                !
 ! D29   D(15,12,13,8)          12.7975         estimate D2E/DX2                !
 ! D30   D(15,12,13,14)       -107.2649         estimate D2E/DX2                !
 ! D31   D(8,13,16,17)         -98.6805         estimate D2E/DX2                !
 ! D32   D(14,13,16,17)        141.2304         estimate D2E/DX2                !
 ! D33   D(13,12,15,11)         84.9524         estimate D2E/DX2                !
 ! D34   D(11,15,16,17)       -106.4589         estimate D2E/DX2                !
 --------------------------------------------------------------------------------
 Trust Radius=3.00D-01 FncErr=1.00D-07 GrdErr=1.00D-06 EigMax=2.50D+02 EigMin=1.00D-04
 Number of steps in this run=     92 maximum allowed number of steps=    102.
 GradGradGradGradGradGradGradGradGradGradGradGradGradGradGradGradGradGrad

                          Input orientation:                          
 ---------------------------------------------------------------------
 Center     Atomic      Atomic             Coordinates (Angstroms)
 Number     Number       Type             X           Y           Z
 ---------------------------------------------------------------------
      1          7           0        0.543495   -0.954066   -0.103236
      2          7           0        0.930219    0.320083   -0.045931
      3          6           0        2.263006    0.384257    0.126693
      4          6           0        2.670762   -0.932261    0.164604
      5          7           0        1.579395   -1.723904    0.025090
      6          1           0        2.767190    1.334125    0.202549
      7          1           0        3.658086   -1.349054    0.282151
      8          1           0       -0.947301   -1.433924   -0.092562
      9          6           0       -0.032905    1.487507   -0.142296
     10          8           0        0.473992    2.556418    0.103650
     11          8           0       -1.177465    1.113297   -0.488467
     12          1           0       -2.591630   -0.695541    0.242078
     13          8           0       -1.855839   -1.885042   -0.084756
     14          1           0       -2.063580   -2.338898   -0.910376
     15          1           0       -1.739043    0.318828    0.063832
     16          8           0       -3.168310    0.060638    0.350417
     17          1           0       -3.452714    0.228449    1.255904
 ---------------------------------------------------------------------
                    Distance matrix (angstroms):
                    1          2          3          4          5
     1  N    0.000000
     2  N    1.332777   0.000000
     3  C    2.191049   1.345451   0.000000
     4  C    2.144173   2.154572   1.378739   0.000000
     5  N    1.296999   2.145776   2.218556   1.355450   0.000000
     6  H    3.205330   2.112933   1.078056   2.268754   3.285406
     7  H    3.163102   3.214796   2.230422   1.078120   2.127804
     8  H    1.566158   2.569785   3.695934   3.661718   2.546001
     9  C    2.508992   1.516500   2.561391   3.641329   3.597317
    10  O    3.517262   2.287294   2.814140   4.123154   4.421453
    11  O    2.717369   2.295073   3.570261   4.406774   3.989201
    12  H    3.164662   3.676665   4.974613   5.268284   4.301403
    13  O    2.573686   3.553337   4.707368   4.632503   3.440765
    14  H    3.060404   4.096374   5.216362   5.054523   3.811113
    15  H    2.618807   2.671518   4.003077   4.584949   3.896959
    16  O    3.874651   4.125814   5.445546   5.925803   5.082434
    17  H    4.383525   4.573103   5.828280   6.327333   5.536127
                    6          7          8          9         10
     6  H    0.000000
     7  H    2.828336   0.000000
     8  H    4.641835   4.621385   0.000000
     9  C    2.825416   4.674361   3.061593   0.000000
    10  O    2.600488   5.042125   4.240449   1.208307   0.000000
    11  O    4.010807   5.480837   2.588060   1.252951   2.271676
    12  H    5.730450   6.283919   1.833306   3.385339   4.471291
    13  O    5.640743   5.552051   1.014401   3.834121   5.018982
    14  H    6.169768   5.927847   1.653444   4.399428   5.606393
    15  H    4.621277   5.653185   1.929626   2.078270   3.147367
    16  O    6.072380   6.970766   2.713453   3.479869   4.422236
    17  H    6.404630   7.348482   3.295290   3.903240   4.708094
                   11         12         13         14         15
    11  O    0.000000
    12  H    2.409451   0.000000
    13  O    3.100518   1.436357   0.000000
    14  H    3.588991   2.075478   0.964775   0.000000
    15  H    1.118742   1.337020   2.211959   2.849195   0.000000
    16  O    2.403181   0.957133   2.386970   2.927081   1.480405
    17  H    3.000424   1.619588   2.968876   3.635070   2.089467
                   16         17
    16  O    0.000000
    17  H    0.963822   0.000000
 Stoichiometry    C3H7N3O4
 Framework group  C1[X(C3H7N3O4)]
 Deg. of freedom    45
 Full point group                 C1      NOp   1
 Largest Abelian subgroup         C1      NOp   1
 Largest concise Abelian subgroup C1      NOp   1
                         Standard orientation:                         
 ---------------------------------------------------------------------
 Center     Atomic      Atomic             Coordinates (Angstroms)
 Number     Number       Type             X           Y           Z
 ---------------------------------------------------------------------
      1          7           0        0.532497   -0.955436   -0.105072
      2          7           0        0.923909    0.317225   -0.046564
      3          6           0        2.256809    0.376324    0.126993
      4          6           0        2.659651   -0.941727    0.164198
      5          7           0        1.565446   -1.729209    0.023371
      6          1           0        2.764465    1.324257    0.203889
      7          1           0        3.645342   -1.362269    0.282092
      8          1           0       -0.960077   -1.429765   -0.095745
      9          6           0       -0.034811    1.488288   -0.142703
     10          8           0        0.475886    2.555127    0.104373
     11          8           0       -1.180521    1.118585   -0.489912
     12          1           0       -2.601877   -0.685531    0.238350
     13          8           0       -1.870288   -1.877513   -0.088878
     14          1           0       -2.079161   -2.329983   -0.914972
     15          1           0       -1.745412    0.325798    0.061423
     16          8           0       -3.175819    0.072704    0.346867
     17          1           0       -3.460202    0.240899    1.252289
 ---------------------------------------------------------------------
 Rotational constants (GHZ):           1.7011727           1.0160301           0.6518726
 Standard basis: 6-31+G(d,p) (6D, 7F)
 There are   225 symmetry adapted cartesian basis functions of A   symmetry.
 There are   225 symmetry adapted basis functions of A   symmetry.
   225 basis functions,   369 primitive gaussians,   225 cartesian basis functions
    39 alpha electrons       39 beta electrons
       nuclear repulsion energy       564.5023641170 Hartrees.
 NAtoms=   17 NActive=   17 NUniq=   17 SFac= 1.00D+00 NAtFMM=   60 NAOKFM=F Big=F
 Integral buffers will be    131072 words long.
 Raffenetti 2 integral format.
 Two-electron integral symmetry is turned on.
 One-electron integrals computed using PRISM.
 NBasis=   225 RedAO= T EigKep=  1.90D-05  NBF=   225
 NBsUse=   225 1.00D-06 EigRej= -1.00D+00 NBFU=   225
 ExpMin= 4.38D-02 ExpMax= 5.48D+03 ExpMxC= 8.25D+02 IAcc=3 IRadAn=         5 AccDes= 0.00D+00
 Harris functional with IExCor= 1009 and IRadAn=       5 diagonalized for initial guess.
 HarFok:  IExCor= 1009 AccDes= 0.00D+00 IRadAn=         5 IDoV= 1 UseB2=F ITyADJ=14
 ICtDFT=  3500011 ScaDFX=  1.000000  1.000000  1.000000  1.000000
 FoFCou: FMM=F IPFlag=           0 FMFlag=      100000 FMFlg1=           0
         NFxFlg=           0 DoJE=T BraDBF=F KetDBF=T FulRan=T
         wScrn=  0.000000 ICntrl=       500 IOpCl=  0 I1Cent=   200000004 NGrid=           0
         NMat0=    1 NMatS0=      1 NMatT0=    0 NMatD0=    1 NMtDS0=    0 NMtDT0=    0
 Petite list used in FoFCou.
 Requested convergence on RMS density matrix=1.00D-08 within 128 cycles.
 Requested convergence on MAX density matrix=1.00D-06.
 Requested convergence on             energy=1.00D-06.
 No special actions if energy rises.
 SCF Done:  E(RM062X) =  -583.419962224     A.U. after   14 cycles
            NFock= 14  Conv=0.84D-08     -V/T= 2.0077

 **********************************************************************

            Population analysis using the SCF density.

 **********************************************************************

 Orbital symmetries:
       Occupied  (A) (A) (A) (A) (A) (A) (A) (A) (A) (A) (A) (A)
                 (A) (A) (A) (A) (A) (A) (A) (A) (A) (A) (A) (A)
                 (A) (A) (A) (A) (A) (A) (A) (A) (A) (A) (A) (A)
                 (A) (A) (A)
       Virtual   (A) (A) (A) (A) (A) (A) (A) (A) (A) (A) (A) (A)
                 (A) (A) (A) (A) (A) (A) (A) (A) (A) (A) (A) (A)
                 (A) (A) (A) (A) (A) (A) (A) (A) (A) (A) (A) (A)
                 (A) (A) (A) (A) (A) (A) (A) (A) (A) (A) (A) (A)
                 (A) (A) (A) (A) (A) (A) (A) (A) (A) (A) (A) (A)
                 (A) (A) (A) (A) (A) (A) (A) (A) (A) (A) (A) (A)
                 (A) (A) (A) (A) (A) (A) (A) (A) (A) (A) (A) (A)
                 (A) (A) (A) (A) (A) (A) (A) (A) (A) (A) (A) (A)
                 (A) (A) (A) (A) (A) (A) (A) (A) (A) (A) (A) (A)
                 (A) (A) (A) (A) (A) (A) (A) (A) (A) (A) (A) (A)
                 (A) (A) (A) (A) (A) (A) (A) (A) (A) (A) (A) (A)
                 (A) (A) (A) (A) (A) (A) (A) (A) (A) (A) (A) (A)
                 (A) (A) (A) (A) (A) (A) (A) (A) (A) (A) (A) (A)
                 (A) (A) (A) (A) (A) (A) (A) (A) (A) (A) (A) (A)
                 (A) (A) (A) (A) (A) (A) (A) (A) (A) (A) (A) (A)
                 (A) (A) (A) (A) (A) (A)
 The electronic state is 1-A.
 Alpha  occ. eigenvalues --  -19.70499 -19.67038 -19.66271 -19.65981 -14.88703
 Alpha  occ. eigenvalues --  -14.86697 -14.82561 -10.75677 -10.62493 -10.60374
 Alpha  occ. eigenvalues --   -1.28546  -1.24673  -1.19075  -1.17294  -1.13724
 Alpha  occ. eigenvalues --   -1.04446  -0.94034  -0.79153  -0.74730  -0.73591
 Alpha  occ. eigenvalues --   -0.69642  -0.66638  -0.63468  -0.61218  -0.58223
 Alpha  occ. eigenvalues --   -0.56762  -0.55718  -0.54494  -0.51937  -0.47629
 Alpha  occ. eigenvalues --   -0.46623  -0.44224  -0.43518  -0.41642  -0.41033
 Alpha  occ. eigenvalues --   -0.40050  -0.39033  -0.37506  -0.35288
 Alpha virt. eigenvalues --   -0.02742   0.00756   0.02385   0.03493   0.03698
 Alpha virt. eigenvalues --    0.04690   0.05545   0.05941   0.06949   0.07179
 Alpha virt. eigenvalues --    0.08280   0.09648   0.10647   0.11757   0.12062
 Alpha virt. eigenvalues --    0.13487   0.14105   0.15119   0.16486   0.17059
 Alpha virt. eigenvalues --    0.18173   0.18592   0.19754   0.20115   0.21368
 Alpha virt. eigenvalues --    0.21760   0.22760   0.23188   0.23589   0.23714
 Alpha virt. eigenvalues --    0.24233   0.25958   0.26134   0.26829   0.27840
 Alpha virt. eigenvalues --    0.28042   0.29216   0.29371   0.29753   0.31513
 Alpha virt. eigenvalues --    0.32656   0.33004   0.33429   0.34547   0.36121
 Alpha virt. eigenvalues --    0.36892   0.37362   0.37602   0.40497   0.41021
 Alpha virt. eigenvalues --    0.43346   0.43962   0.44926   0.46910   0.48495
 Alpha virt. eigenvalues --    0.49854   0.52185   0.65028   0.71146   0.72666
 Alpha virt. eigenvalues --    0.74586   0.79448   0.81847   0.85609   0.86548
 Alpha virt. eigenvalues --    0.87878   0.91950   0.92652   0.94451   0.95222
 Alpha virt. eigenvalues --    0.96233   0.97796   0.99720   1.00848   1.02150
 Alpha virt. eigenvalues --    1.04222   1.06046   1.10142   1.11005   1.12112
 Alpha virt. eigenvalues --    1.14196   1.14469   1.17650   1.20150   1.20659
 Alpha virt. eigenvalues --    1.23022   1.25229   1.26490   1.27353   1.27559
 Alpha virt. eigenvalues --    1.32388   1.33810   1.34373   1.35545   1.35724
 Alpha virt. eigenvalues --    1.37148   1.37804   1.38245   1.40169   1.41518
 Alpha virt. eigenvalues --    1.43493   1.46152   1.48256   1.50778   1.53208
 Alpha virt. eigenvalues --    1.54083   1.55699   1.58042   1.60433   1.62805
 Alpha virt. eigenvalues --    1.63949   1.65498   1.69197   1.71329   1.71886
 Alpha virt. eigenvalues --    1.78194   1.80416   1.82833   1.82965   1.85925
 Alpha virt. eigenvalues --    1.90142   1.91550   1.94480   1.96456   1.98288
 Alpha virt. eigenvalues --    2.02457   2.05076   2.08038   2.12779   2.18621
 Alpha virt. eigenvalues --    2.19687   2.23213   2.23295   2.25049   2.25640
 Alpha virt. eigenvalues --    2.30891   2.33707   2.36658   2.38199   2.39076
 Alpha virt. eigenvalues --    2.41909   2.45143   2.49289   2.51671   2.52270
 Alpha virt. eigenvalues --    2.54609   2.56635   2.59469   2.62279   2.65290
 Alpha virt. eigenvalues --    2.66080   2.69975   2.72309   2.73193   2.75146
 Alpha virt. eigenvalues --    2.83904   2.85192   2.90241   2.93840   2.95431
 Alpha virt. eigenvalues --    2.97083   3.01723   3.04651   3.06172   3.11629
 Alpha virt. eigenvalues --    3.14582   3.18633   3.22783   3.28404   3.33279
 Alpha virt. eigenvalues --    3.43006   3.44803   3.63262   3.66972   3.73256
 Alpha virt. eigenvalues --    3.85941   4.04691   4.19817   4.25585   4.26798
 Alpha virt. eigenvalues --    4.29804   4.47992   4.52593   4.54061   4.70356
 Alpha virt. eigenvalues --    4.75046
          Condensed to atoms (all electrons):
               1          2          3          4          5          6
     1  N    9.923019  -1.010533  -0.789784   0.838596  -1.814574  -0.008692
     2  N   -1.010533   8.014285   0.466656  -0.313371   0.333253  -0.039581
     3  C   -0.789784   0.466656   5.999917  -0.365068   0.454539   0.425849
     4  C    0.838596  -0.313371  -0.365068   6.014892  -0.306707  -0.036128
     5  N   -1.814574   0.333253   0.454539  -0.306707   8.470132   0.002287
     6  H   -0.008692  -0.039581   0.425849  -0.036128   0.002287   0.435326
     7  H    0.028845  -0.032204   0.000351   0.379462  -0.051324   0.000509
     8  H    0.008559   0.017592   0.008555  -0.003595   0.036809  -0.000003
     9  C   -0.021989   0.075220  -0.098841  -0.037640   0.067109  -0.006671
    10  O   -0.015692  -0.063842  -0.073123   0.050089   0.001836  -0.000516
    11  O    0.028742  -0.128589   0.000884   0.030701  -0.059009  -0.001291
    12  H    0.001716   0.007528   0.001419  -0.001672   0.008110  -0.000000
    13  O    0.012197  -0.076284  -0.004740   0.002634  -0.031249   0.000030
    14  H    0.004374   0.002813  -0.000162   0.000028   0.001456  -0.000000
    15  H    0.043003  -0.060593  -0.000779  -0.006428   0.037074  -0.000003
    16  O    0.000889  -0.018597  -0.001094   0.000512   0.017038  -0.000010
    17  H    0.002522  -0.001620   0.000280  -0.000229   0.000982   0.000000
               7          8          9         10         11         12
     1  N    0.028845   0.008559  -0.021989  -0.015692   0.028742   0.001716
     2  N   -0.032204   0.017592   0.075220  -0.063842  -0.128589   0.007528
     3  C    0.000351   0.008555  -0.098841  -0.073123   0.000884   0.001419
     4  C    0.379462  -0.003595  -0.037640   0.050089   0.030701  -0.001672
     5  N   -0.051324   0.036809   0.067109   0.001836  -0.059009   0.008110
     6  H    0.000509  -0.000003  -0.006671  -0.000516  -0.001291  -0.000000
     7  H    0.486033   0.000002  -0.000713  -0.000232   0.000003  -0.000000
     8  H    0.000002   0.286037  -0.003780   0.000441  -0.003160   0.003172
     9  C   -0.000713  -0.003780   4.538573   0.515410   0.216853  -0.004921
    10  O   -0.000232   0.000441   0.515410   8.119297  -0.115820   0.000497
    11  O    0.000003  -0.003160   0.216853  -0.115820   8.482558  -0.002073
    12  H   -0.000000   0.003172  -0.004921   0.000497  -0.002073   0.292961
    13  O    0.000058   0.172246  -0.004376  -0.001944   0.006897  -0.003863
    14  H   -0.000000  -0.015153   0.000047   0.000000  -0.002275  -0.004102
    15  H    0.000000   0.002981   0.020371  -0.001632   0.086844   0.004006
    16  O    0.000000   0.004199   0.019117  -0.004284  -0.128005   0.233684
    17  H    0.000000  -0.000021  -0.001041   0.000080  -0.002320  -0.021615
              13         14         15         16         17
     1  N    0.012197   0.004374   0.043003   0.000889   0.002522
     2  N   -0.076284   0.002813  -0.060593  -0.018597  -0.001620
     3  C   -0.004740  -0.000162  -0.000779  -0.001094   0.000280
     4  C    0.002634   0.000028  -0.006428   0.000512  -0.000229
     5  N   -0.031249   0.001456   0.037074   0.017038   0.000982
     6  H    0.000030  -0.000000  -0.000003  -0.000010   0.000000
     7  H    0.000058  -0.000000   0.000000   0.000000   0.000000
     8  H    0.172246  -0.015153   0.002981   0.004199  -0.000021
     9  C   -0.004376   0.000047   0.020371   0.019117  -0.001041
    10  O   -0.001944   0.000000  -0.001632  -0.004284   0.000080
    11  O    0.006897  -0.002275   0.086844  -0.128005  -0.002320
    12  H   -0.003863  -0.004102   0.004006   0.233684  -0.021615
    13  O    8.611240   0.280584   0.026820  -0.148582   0.007636
    14  H    0.280584   0.308567  -0.000741   0.010953  -0.000155
    15  H    0.026820  -0.000741   0.405569   0.101078  -0.000793
    16  O   -0.148582   0.010953   0.101078   8.385167   0.293252
    17  H    0.007636  -0.000155  -0.000793   0.293252   0.317513
 Mulliken charges:
               1
     1  N   -0.231197
     2  N   -0.172134
     3  C   -0.024859
     4  C   -0.246076
     5  N   -0.167762
     6  H    0.228893
     7  H    0.189208
     8  H    0.485120
     9  C    0.727272
    10  O   -0.410566
    11  O   -0.410941
    12  H    0.485150
    13  O   -0.849305
    14  H    0.413765
    15  H    0.343223
    16  O   -0.765318
    17  H    0.405528
 Sum of Mulliken charges =  -0.00000
 Mulliken charges with hydrogens summed into heavy atoms:
               1
     1  N   -0.231197
     2  N   -0.172134
     3  C    0.204034
     4  C   -0.056868
     5  N   -0.167762
     9  C    0.727272
    10  O   -0.410566
    11  O   -0.067718
    13  O    0.049580
    16  O    0.125360
 Electronic spatial extent (au):  <R**2>=           1643.8641
 Charge=             -0.0000 electrons
 Dipole moment (field-independent basis, Debye):
    X=              1.3506    Y=             -1.2078    Z=              0.8292  Tot=              1.9926
 Quadrupole moment (field-independent basis, Debye-Ang):
   XX=            -50.2302   YY=            -71.1388   ZZ=            -55.4771
   XY=              3.4726   XZ=             -3.2310   YZ=              4.2653
 Traceless Quadrupole moment (field-independent basis, Debye-Ang):
   XX=              8.7185   YY=            -12.1901   ZZ=              3.4716
   XY=              3.4726   XZ=             -3.2310   YZ=              4.2653
 Octapole moment (field-independent basis, Debye-Ang**2):
  XXX=             15.0914  YYY=            -15.1324  ZZZ=              1.5541  XYY=            -14.1578
  XXY=             -3.8239  XXZ=             19.8038  XZZ=            -22.5391  YZZ=             -0.7491
  YYZ=            -11.1555  XYZ=            -12.7953
 Hexadecapole moment (field-independent basis, Debye-Ang**3):
 XXXX=          -1122.9154 YYYY=           -815.3349 ZZZZ=            -71.1443 XXXY=              3.2438
 XXXZ=            -54.4427 YYYX=             34.8205 YYYZ=             24.3300 ZZZX=            -16.5075
 ZZZY=              7.6895 XXYY=           -307.5379 XXZZ=           -187.4915 YYZZ=           -123.1859
 XXYZ=             26.4549 YYXZ=             20.2199 ZZXY=             11.3358
 N-N= 5.645023641170D+02 E-N=-2.495115674424D+03  KE= 5.789409239710D+02
 Calling FoFJK, ICntrl=      2127 FMM=F ISym2X=0 I1Cent= 0 IOpClX= 0 NMat=1 NMatS=1 NMatT=0.
 ***** Axes restored to original set *****
 -------------------------------------------------------------------
 Center     Atomic                   Forces (Hartrees/Bohr)
 Number     Number              X              Y              Z
 -------------------------------------------------------------------
      1        7           0.003515997    0.002391421    0.000965110
      2        7          -0.002030523    0.006307154    0.001197782
      3        6           0.005085877    0.001900673    0.001217715
      4        6           0.000275106    0.003379951   -0.000252193
      5        7          -0.005395658    0.002562878   -0.000192663
      6        1           0.000834009   -0.000256970    0.000085336
      7        1           0.000053872    0.000241236   -0.000130654
      8        1           0.003177976   -0.025535955   -0.012037374
      9        6           0.064134359    0.001479848    0.021200564
     10        8          -0.017425273   -0.011825112   -0.010777550
     11        8          -0.043926293   -0.022461289    0.006821653
     12        1          -0.011270357   -0.066466920    0.004281024
     13        8           0.006561023   -0.004931489    0.004364342
     14        1           0.005954247    0.003802233    0.000947818
     15        1           0.005085551    0.063137503   -0.024564486
     16        8          -0.018573661    0.051518704    0.007659096
     17        1           0.003943747   -0.005243865   -0.000785521
 -------------------------------------------------------------------
 Cartesian Forces:  Max     0.066466920 RMS     0.020278994

 GradGradGradGradGradGradGradGradGradGradGradGradGradGradGradGradGradGrad
 Berny optimization.
 FormGI is forming the generalized inverse of G from B-inverse, IUseBI=4.
 Internal  Forces:  Max     0.041790428 RMS     0.010457217
 Search for a local minimum.
 Step number   1 out of a maximum of   92
 All quantities printed in internal units (Hartrees-Bohrs-Radians)
 Mixed Optimization -- RFO/linear search
 Second derivative matrix not updated -- first step.
 ITU=  0
     Eigenvalues ---    0.00315   0.00477   0.00736   0.01412   0.01501
     Eigenvalues ---    0.01733   0.02052   0.02342   0.02360   0.02388
     Eigenvalues ---    0.02416   0.02825   0.03553   0.03995   0.05152
     Eigenvalues ---    0.06675   0.07339   0.09049   0.10050   0.10452
     Eigenvalues ---    0.12943   0.13588   0.14828   0.16000   0.16000
     Eigenvalues ---    0.16793   0.22406   0.23096   0.23525   0.24992
     Eigenvalues ---    0.30050   0.30556   0.36222   0.36230   0.42873
     Eigenvalues ---    0.44761   0.48593   0.49602   0.54432   0.54459
     Eigenvalues ---    0.54659   0.55183   0.65092   0.79433   1.00758
 RFO step:  Lambda=-4.07054612D-02 EMin= 3.14946209D-03
 Linear search not attempted -- first point.
 Maximum step size (   0.300) exceeded in Quadratic search.
    -- Step size scaled by   0.589
 Iteration  1 RMS(Cart)=  0.04622905 RMS(Int)=  0.00232034
 Iteration  2 RMS(Cart)=  0.00301558 RMS(Int)=  0.00078765
 Iteration  3 RMS(Cart)=  0.00000889 RMS(Int)=  0.00078763
 Iteration  4 RMS(Cart)=  0.00000001 RMS(Int)=  0.00078763
 Variable       Old X    -DE/DX   Delta X   Delta X   Delta X     New X
                                 (Linear)    (Quad)   (Total)
    R1        2.51858   0.00769   0.00000   0.00917   0.00903   2.52761
    R2        2.45097  -0.00434   0.00000  -0.00330  -0.00328   2.44769
    R3        2.95961   0.01111   0.00000   0.04887   0.04879   3.00840
    R4        2.54253   0.00359   0.00000   0.00436   0.00434   2.54688
    R5        2.86577  -0.00674   0.00000  -0.01108  -0.01117   2.85460
    R6        2.60544  -0.00290   0.00000  -0.00460  -0.00461   2.60083
    R7        2.03723   0.00017   0.00000   0.00025   0.00025   2.03748
    R8        2.56143   0.00318   0.00000   0.00165   0.00167   2.56309
    R9        2.03735  -0.00006   0.00000  -0.00009  -0.00009   2.03727
   R10        1.91694   0.00395   0.00000   0.00521   0.00513   1.92207
   R11        2.28337  -0.01997   0.00000  -0.01122  -0.01122   2.27215
   R12        2.36773   0.03856   0.00000   0.02638   0.02644   2.39417
   R13        2.11412  -0.02957   0.00000  -0.05069  -0.05058   2.06354
   R14        2.71432   0.02451   0.00000   0.08466   0.08476   2.79908
   R15        2.52660   0.03078   0.00000   0.16454   0.16514   2.69174
   R16        1.80872   0.04179   0.00000   0.05399   0.05529   1.86401
   R17        1.82316  -0.00388   0.00000  -0.00391  -0.00391   1.81925
   R18        2.79756   0.00112   0.00000  -0.04126  -0.04260   2.75496
   R19        1.82136  -0.00282   0.00000  -0.00282  -0.00282   1.81854
    A1        1.90862  -0.00421   0.00000  -0.00960  -0.00959   1.89904
    A2        2.17587   0.00716   0.00000   0.03625   0.03615   2.21202
    A3        2.18673  -0.00270   0.00000  -0.02458  -0.02454   2.16219
    A4        1.91617   0.00188   0.00000   0.00464   0.00468   1.92085
    A5        2.15189   0.00144   0.00000   0.01213   0.01198   2.16387
    A6        2.21499  -0.00332   0.00000  -0.01670  -0.01660   2.19839
    A7        1.82445  -0.00227   0.00000  -0.00294  -0.00298   1.82147
    A8        2.11102   0.00201   0.00000   0.00404   0.00406   2.11508
    A9        2.34771   0.00026   0.00000  -0.00110  -0.00108   2.34663
   A10        1.89308   0.00137   0.00000   0.00053   0.00051   1.89359
   A11        2.26918  -0.00093   0.00000  -0.00097  -0.00096   2.26822
   A12        2.12092  -0.00044   0.00000   0.00045   0.00045   2.12138
   A13        1.88242   0.00324   0.00000   0.00738   0.00739   1.88980
   A14        1.98411   0.00853   0.00000   0.01160   0.01148   1.99559
   A15        1.94743   0.00973   0.00000   0.03064   0.03067   1.97811
   A16        2.35134  -0.01828   0.00000  -0.04270  -0.04278   2.30855
   A17        2.13441  -0.00759   0.00000  -0.01444  -0.01511   2.11931
   A18        1.84554   0.00163   0.00000  -0.00283  -0.00327   1.84226
   A19        1.66320   0.01172   0.00000   0.06147   0.06168   1.72488
   A20        1.97738  -0.00544   0.00000  -0.03004  -0.03085   1.94653
   A21        2.06462  -0.00183   0.00000  -0.00242  -0.00274   2.06188
   A22        2.75100   0.00419   0.00000   0.00856   0.00681   2.75781
   A23        2.35189  -0.00488   0.00000   0.03563   0.03978   2.39166
   A24        2.00610  -0.01084   0.00000  -0.03018  -0.03120   1.97490
   A25        2.02238   0.00377   0.00000   0.00527   0.00716   2.02954
   A26        3.28932  -0.01624   0.00000  -0.08197  -0.08203   3.20729
   A27        3.23466  -0.02507   0.00000  -0.13148  -0.12915   3.10550
   A28        3.11784   0.01042   0.00000   0.05765   0.05639   3.17423
   A29        3.01621   0.00782   0.00000   0.07035   0.06817   3.08438
    D1       -0.00092   0.00023   0.00000  -0.00084  -0.00080  -0.00172
    D2       -3.12576   0.00062   0.00000  -0.00502  -0.00507  -3.13084
    D3        2.98223   0.00145   0.00000   0.00976   0.01030   2.99253
    D4       -0.14261   0.00184   0.00000   0.00558   0.00602  -0.13659
    D5       -0.00410  -0.00010   0.00000   0.00181   0.00177  -0.00232
    D6       -2.98603  -0.00244   0.00000  -0.01571  -0.01569  -3.00172
    D7       -0.17184   0.00371   0.00000   0.00240   0.00239  -0.16945
    D8        2.02881   0.00290   0.00000   0.00725   0.00722   2.03602
    D9        2.78813   0.00116   0.00000  -0.00551  -0.00546   2.78267
   D10       -1.29441   0.00035   0.00000  -0.00066  -0.00064  -1.29505
   D11        0.00537  -0.00024   0.00000  -0.00047  -0.00049   0.00487
   D12       -3.13598  -0.00002   0.00000  -0.00123  -0.00125  -3.13722
   D13        3.12945  -0.00060   0.00000   0.00426   0.00424   3.13369
   D14       -0.01189  -0.00037   0.00000   0.00350   0.00349  -0.00841
   D15        2.98175   0.00165   0.00000   0.03007   0.03039   3.01214
   D16       -0.18252   0.00078   0.00000   0.01203   0.01232  -0.17020
   D17       -0.14013   0.00205   0.00000   0.02487   0.02515  -0.11498
   D18        2.97878   0.00118   0.00000   0.00683   0.00708   2.98586
   D19       -0.00778   0.00019   0.00000   0.00158   0.00157  -0.00620
   D20        3.13540   0.00007   0.00000  -0.00123  -0.00122   3.13418
   D21        3.13352  -0.00009   0.00000   0.00249   0.00248   3.13599
   D22       -0.00649  -0.00021   0.00000  -0.00031  -0.00032  -0.00681
   D23        0.00749  -0.00003   0.00000  -0.00208  -0.00207   0.00542
   D24       -3.13553   0.00008   0.00000   0.00044   0.00045  -3.13508
   D25        0.95235  -0.00443   0.00000  -0.01346  -0.01389   0.93846
   D26       -2.21848  -0.00492   0.00000  -0.03533  -0.03484  -2.25331
   D27       -2.61510   0.01668   0.00000   0.07798   0.07779  -2.53731
   D28        2.56852  -0.00926   0.00000  -0.04287  -0.04352   2.52500
   D29        0.22336   0.00331   0.00000  -0.00106  -0.00269   0.22067
   D30       -1.87213   0.00274   0.00000  -0.00522  -0.00644  -1.87856
   D31       -1.72230   0.00001   0.00000   0.00569   0.00668  -1.71562
   D32        2.46494   0.00337   0.00000   0.01834   0.01891   2.48384
   D33        1.48270  -0.00523   0.00000  -0.05177  -0.05057   1.43213
   D34       -1.85806  -0.00101   0.00000  -0.01405  -0.01356  -1.87161
         Item               Value     Threshold  Converged?
 Maximum Force            0.041790     0.000450     NO 
 RMS     Force            0.010457     0.000300     NO 
 Maximum Displacement     0.162848     0.001800     NO 
 RMS     Displacement     0.046102     0.001200     NO 
 Predicted change in Energy=-1.892549D-02
 GradGradGradGradGradGradGradGradGradGradGradGradGradGradGradGradGradGrad

                          Input orientation:                          
 ---------------------------------------------------------------------
 Center     Atomic      Atomic             Coordinates (Angstroms)
 Number     Number       Type             X           Y           Z
 ---------------------------------------------------------------------
      1          7           0        0.547934   -0.968150   -0.111932
      2          7           0        0.926296    0.312966   -0.043829
      3          6           0        2.258442    0.392084    0.144722
      4          6           0        2.676436   -0.918681    0.181884
      5          7           0        1.593640   -1.720199    0.024542
      6          1           0        2.754616    1.345541    0.229700
      7          1           0        3.666418   -1.326408    0.308135
      8          1           0       -0.945085   -1.520100   -0.137266
      9          6           0       -0.025650    1.481167   -0.148637
     10          8           0        0.476042    2.550795    0.074738
     11          8           0       -1.194859    1.145606   -0.502878
     12          1           0       -2.650773   -0.713599    0.224837
     13          8           0       -1.875675   -1.929877   -0.112620
     14          1           0       -2.082484   -2.386521   -0.934514
     15          1           0       -1.753657    0.376212    0.033955
     16          8           0       -3.143161    0.123832    0.395809
     17          1           0       -3.371122    0.246244    1.322698
 ---------------------------------------------------------------------
                    Distance matrix (angstroms):
                    1          2          3          4          5
     1  N    0.000000
     2  N    1.337556   0.000000
     3  C    2.200443   1.347748   0.000000
     4  C    2.149255   2.151951   1.376302   0.000000
     5  N    1.295262   2.140978   2.217690   1.356331   0.000000
     6  H    3.215482   2.117495   1.078188   2.266076   3.284618
     7  H    3.166978   3.212429   2.227626   1.078075   2.128827
     8  H    1.591978   2.621245   3.741464   3.684966   2.551734
     9  C    2.515850   1.510589   2.547398   3.629020   3.591774
    10  O    3.524626   2.285753   2.800335   4.109803   4.415081
    11  O    2.767333   2.324502   3.593392   4.440394   4.033204
    12  H    3.226444   3.731145   5.032827   5.331328   4.366739
    13  O    2.607451   3.589724   4.748542   4.672362   3.478351
    14  H    3.099599   4.139239   5.265836   5.103745   3.857157
    15  H    2.669441   2.681827   4.013659   4.617830   3.949611
    16  O    3.882577   4.097503   5.414085   5.916105   5.096623
    17  H    4.346483   4.509950   5.753337   6.263503   5.495541
                    6          7          8          9         10
     6  H    0.000000
     7  H    2.824331   0.000000
     8  H    4.694076   4.637009   0.000000
     9  C    2.809166   4.660739   3.138964   0.000000
    10  O    2.582354   5.026498   4.317028   1.202371   0.000000
    11  O    4.021815   5.513674   2.702230   1.266940   2.258342
    12  H    5.784316   6.347392   1.921181   3.442057   4.522806
    13  O    5.682001   5.590707   1.017115   3.880607   5.063802
    14  H    6.219422   5.976444   1.637060   4.450525   5.651702
    15  H    4.615457   5.687821   2.068600   2.059192   3.114809
    16  O    6.025275   6.962847   2.796107   3.443494   4.369424
    17  H    6.318842   7.282139   3.337233   3.857725   4.655001
                   11         12         13         14         15
    11  O    0.000000
    12  H    2.471012   0.000000
    13  O    3.174020   1.481211   0.000000
    14  H    3.667438   2.113224   0.962707   0.000000
    15  H    1.091976   1.424410   2.313961   2.945972   0.000000
    16  O    2.376456   0.986391   2.466320   3.032600   1.457860
    17  H    2.979547   1.626499   3.005329   3.699601   2.072183
                   16         17
    16  O    0.000000
    17  H    0.962328   0.000000
 Stoichiometry    C3H7N3O4
 Framework group  C1[X(C3H7N3O4)]
 Deg. of freedom    45
 Full point group                 C1      NOp   1
 Largest Abelian subgroup         C1      NOp   1
 Largest concise Abelian subgroup C1      NOp   1
                         Standard orientation:                         
 ---------------------------------------------------------------------
 Center     Atomic      Atomic             Coordinates (Angstroms)
 Number     Number       Type             X           Y           Z
 ---------------------------------------------------------------------
      1          7           0        0.542007   -0.969913   -0.112790
      2          7           0        0.917234    0.312102   -0.044257
      3          6           0        2.249195    0.394417    0.144235
      4          6           0        2.670401   -0.915334    0.180903
      5          7           0        1.589562   -1.719446    0.023347
      6          1           0        2.743038    1.349055    0.229519
      7          1           0        3.661388   -1.320679    0.306944
      8          1           0       -0.949656   -1.525509   -0.138223
      9          6           0       -0.037577    1.478005   -0.148585
     10          8           0        0.461508    2.548779    0.075137
     11          8           0       -1.205984    1.139706   -0.502869
     12          1           0       -2.657291   -0.723319    0.224280
     13          8           0       -1.879238   -1.937573   -0.113661
     14          1           0       -2.084983   -2.394430   -0.935704
     15          1           0       -1.762860    0.368755    0.033727
     16          8           0       -3.151717    0.112842    0.395582
     17          1           0       -3.379916    0.234366    1.322530
 ---------------------------------------------------------------------
 Rotational constants (GHZ):           1.6735560           1.0135911           0.6487642
 Standard basis: 6-31+G(d,p) (6D, 7F)
 There are   225 symmetry adapted cartesian basis functions of A   symmetry.
 There are   225 symmetry adapted basis functions of A   symmetry.
   225 basis functions,   369 primitive gaussians,   225 cartesian basis functions
    39 alpha electrons       39 beta electrons
       nuclear repulsion energy       562.4158164013 Hartrees.
 NAtoms=   17 NActive=   17 NUniq=   17 SFac= 1.00D+00 NAtFMM=   60 NAOKFM=F Big=F
 Integral buffers will be    131072 words long.
 Raffenetti 2 integral format.
 Two-electron integral symmetry is turned on.
 One-electron integrals computed using PRISM.
 NBasis=   225 RedAO= T EigKep=  1.90D-05  NBF=   225
 NBsUse=   225 1.00D-06 EigRej= -1.00D+00 NBFU=   225
 Initial guess from the checkpoint file:  "/scratch/gongke2021/PC/Gau-16522.chk"
 B after Tr=    -0.000000   -0.000000    0.000000
         Rot=    0.999997    0.001388   -0.000984   -0.002010 Ang=   0.30 deg.
 ExpMin= 4.38D-02 ExpMax= 5.48D+03 ExpMxC= 8.25D+02 IAcc=2 IRadAn=         4 AccDes= 0.00D+00
 Harris functional with IExCor= 1009 and IRadAn=       4 diagonalized for initial guess.
 HarFok:  IExCor= 1009 AccDes= 0.00D+00 IRadAn=         4 IDoV= 1 UseB2=F ITyADJ=14
 ICtDFT=  3500011 ScaDFX=  1.000000  1.000000  1.000000  1.000000
 FoFCou: FMM=F IPFlag=           0 FMFlag=      100000 FMFlg1=           0
         NFxFlg=           0 DoJE=T BraDBF=F KetDBF=T FulRan=T
         wScrn=  0.000000 ICntrl=       500 IOpCl=  0 I1Cent=   200000004 NGrid=           0
         NMat0=    1 NMatS0=      1 NMatT0=    0 NMatD0=    1 NMtDS0=    0 NMtDT0=    0
 Petite list used in FoFCou.
 Requested convergence on RMS density matrix=1.00D-08 within 128 cycles.
 Requested convergence on MAX density matrix=1.00D-06.
 Requested convergence on             energy=1.00D-06.
 No special actions if energy rises.
 SCF Done:  E(RM062X) =  -583.439403276     A.U. after   13 cycles
            NFock= 13  Conv=0.59D-08     -V/T= 2.0079
 Calling FoFJK, ICntrl=      2127 FMM=F ISym2X=0 I1Cent= 0 IOpClX= 0 NMat=1 NMatS=1 NMatT=0.
 ***** Axes restored to original set *****
 -------------------------------------------------------------------
 Center     Atomic                   Forces (Hartrees/Bohr)
 Number     Number              X              Y              Z
 -------------------------------------------------------------------
      1        7           0.005298924    0.004558635    0.000668535
      2        7          -0.007125129    0.007409397    0.000844531
      3        6           0.002745779    0.001123194    0.000988066
      4        6           0.000313416    0.002094404   -0.000372301
      5        7          -0.004578377   -0.000157038   -0.000102374
      6        1           0.000255818   -0.000202749    0.000031099
      7        1          -0.000035625    0.000046029   -0.000070599
      8        1          -0.004269538   -0.019087381   -0.007620435
      9        6           0.042841769   -0.004063402    0.011707200
     10        8          -0.009352332   -0.004876219   -0.006543696
     11        8          -0.020763489   -0.017226314    0.005379003
     12        1          -0.019646810   -0.038328036    0.005227394
     13        8           0.007104323    0.003336252    0.003920927
     14        1           0.003765390    0.001594634   -0.000592231
     15        1           0.000920993    0.050597760   -0.016919651
     16        8           0.000627477    0.017920622    0.002950894
     17        1           0.001897409   -0.004739787    0.000503639
 -------------------------------------------------------------------
 Cartesian Forces:  Max     0.050597760 RMS     0.013069883

 GradGradGradGradGradGradGradGradGradGradGradGradGradGradGradGradGradGrad
 Berny optimization.
 Using GEDIIS/GDIIS optimizer.
 FormGI is forming the generalized inverse of G from B-inverse, IUseBI=4.
 Internal  Forces:  Max     0.026607083 RMS     0.006097409
 Search for a local minimum.
 Step number   2 out of a maximum of   92
 All quantities printed in internal units (Hartrees-Bohrs-Radians)
 Mixed Optimization -- RFO/linear search
 Update second derivatives using D2CorX and points    1    2
 DE= -1.94D-02 DEPred=-1.89D-02 R= 1.03D+00
 TightC=F SS=  1.41D+00  RLast= 3.23D-01 DXNew= 5.0454D-01 9.7014D-01
 Trust test= 1.03D+00 RLast= 3.23D-01 DXMaxT set to 5.05D-01
 ITU=  1  0
 Use linear search instead of GDIIS.
 Linear search step of   0.600 exceeds DXMaxT=   0.505 but not scaled.
 Quartic linear search produced a step of  2.00000.
 Iteration  1 RMS(Cart)=  0.08317552 RMS(Int)=  0.01776768
 Iteration  2 RMS(Cart)=  0.02079628 RMS(Int)=  0.00440164
 Iteration  3 RMS(Cart)=  0.00042219 RMS(Int)=  0.00438146
 Iteration  4 RMS(Cart)=  0.00000471 RMS(Int)=  0.00438146
 Iteration  5 RMS(Cart)=  0.00000004 RMS(Int)=  0.00438146
 Variable       Old X    -DE/DX   Delta X   Delta X   Delta X     New X
                                 (Linear)    (Quad)   (Total)
    R1        2.52761   0.00438   0.01806   0.00000   0.01706   2.54467
    R2        2.44769  -0.00304  -0.00657   0.00000  -0.00649   2.44120
    R3        3.00840   0.00831   0.09759   0.00000   0.09695   3.10535
    R4        2.54688   0.00188   0.00868   0.00000   0.00859   2.55547
    R5        2.85460  -0.00985  -0.02234   0.00000  -0.02303   2.83156
    R6        2.60083  -0.00131  -0.00921   0.00000  -0.00924   2.59159
    R7        2.03748  -0.00006   0.00050   0.00000   0.00050   2.03798
    R8        2.56309   0.00195   0.00333   0.00000   0.00341   2.56650
    R9        2.03727  -0.00006  -0.00017   0.00000  -0.00017   2.03710
   R10        1.92207  -0.00282   0.01026   0.00000   0.00967   1.93173
   R11        2.27215  -0.00946  -0.02243   0.00000  -0.02243   2.24972
   R12        2.39417   0.02347   0.05287   0.00000   0.05317   2.44734
   R13        2.06354  -0.01716  -0.10116   0.00000  -0.10009   1.96345
   R14        2.79908   0.01078   0.16952   0.00000   0.17006   2.96914
   R15        2.69174   0.02661   0.33028   0.00000   0.33112   3.02286
   R16        1.86401   0.01056   0.11058   0.00000   0.11582   1.97983
   R17        1.81925  -0.00106  -0.00782   0.00000  -0.00782   1.81144
   R18        2.75496   0.00055  -0.08521   0.00000  -0.08887   2.66609
   R19        1.81854  -0.00057  -0.00565   0.00000  -0.00565   1.81289
    A1        1.89904  -0.00126  -0.01918   0.00000  -0.01910   1.87993
    A2        2.21202   0.00588   0.07231   0.00000   0.07145   2.28347
    A3        2.16219  -0.00445  -0.04908   0.00000  -0.04871   2.11348
    A4        1.92085   0.00027   0.00937   0.00000   0.00965   1.93051
    A5        2.16387   0.00212   0.02397   0.00000   0.02299   2.18686
    A6        2.19839  -0.00239  -0.03321   0.00000  -0.03257   2.16581
    A7        1.82147  -0.00105  -0.00596   0.00000  -0.00621   1.81526
    A8        2.11508   0.00085   0.00811   0.00000   0.00824   2.12332
    A9        2.34663   0.00019  -0.00216   0.00000  -0.00203   2.34460
   A10        1.89359   0.00087   0.00102   0.00000   0.00091   1.89450
   A11        2.26822  -0.00046  -0.00193   0.00000  -0.00188   2.26633
   A12        2.12138  -0.00041   0.00091   0.00000   0.00095   2.12233
   A13        1.88980   0.00118   0.01477   0.00000   0.01476   1.90457
   A14        1.99559   0.00662   0.02296   0.00000   0.02228   2.01787
   A15        1.97811   0.00312   0.06135   0.00000   0.06158   2.03969
   A16        2.30855  -0.00976  -0.08557   0.00000  -0.08591   2.22264
   A17        2.11931  -0.00378  -0.03021   0.00000  -0.03304   2.08626
   A18        1.84226  -0.00054  -0.00655   0.00000  -0.00851   1.83375
   A19        1.72488   0.00689   0.12336   0.00000   0.12451   1.84938
   A20        1.94653  -0.00377  -0.06169   0.00000  -0.06573   1.88080
   A21        2.06188  -0.00056  -0.00548   0.00000  -0.00784   2.05404
   A22        2.75781   0.00274   0.01362   0.00000   0.00454   2.76236
   A23        2.39166   0.00500   0.07955   0.00000   0.10271   2.49437
   A24        1.97490  -0.00737  -0.06240   0.00000  -0.06986   1.90504
   A25        2.02954   0.00231   0.01433   0.00000   0.02409   2.05363
   A26        3.20729  -0.00905  -0.16405   0.00000  -0.16419   3.04310
   A27        3.10550  -0.01530  -0.25831   0.00000  -0.24550   2.86000
   A28        3.17423   0.00599   0.11279   0.00000   0.10546   3.27968
   A29        3.08438   0.00576   0.13634   0.00000   0.12229   3.20667
    D1       -0.00172   0.00009  -0.00159   0.00000  -0.00122  -0.00293
    D2       -3.13084  -0.00001  -0.01015   0.00000  -0.01031  -3.14115
    D3        2.99253   0.00083   0.02060   0.00000   0.02381   3.01634
    D4       -0.13659   0.00073   0.01205   0.00000   0.01472  -0.12187
    D5       -0.00232  -0.00001   0.00355   0.00000   0.00317   0.00085
    D6       -3.00172  -0.00178  -0.03138   0.00000  -0.03101  -3.03272
    D7       -0.16945   0.00132   0.00479   0.00000   0.00519  -0.16426
    D8        2.03602   0.00149   0.01444   0.00000   0.01423   2.05026
    D9        2.78267   0.00007  -0.01093   0.00000  -0.01016   2.77251
   D10       -1.29505   0.00024  -0.00128   0.00000  -0.00111  -1.29616
   D11        0.00487  -0.00013  -0.00099   0.00000  -0.00119   0.00369
   D12       -3.13722  -0.00008  -0.00249   0.00000  -0.00260  -3.13983
   D13        3.13369   0.00001   0.00848   0.00000   0.00826  -3.14124
   D14       -0.00841   0.00006   0.00697   0.00000   0.00684  -0.00156
   D15        3.01214   0.00172   0.06077   0.00000   0.06262   3.07476
   D16       -0.17020   0.00103   0.02464   0.00000   0.02649  -0.14372
   D17       -0.11498   0.00158   0.05030   0.00000   0.05197  -0.06302
   D18        2.98586   0.00089   0.01416   0.00000   0.01583   3.00169
   D19       -0.00620   0.00012   0.00315   0.00000   0.00311  -0.00310
   D20        3.13418   0.00000  -0.00244   0.00000  -0.00235   3.13183
   D21        3.13599   0.00006   0.00495   0.00000   0.00479   3.14078
   D22       -0.00681  -0.00006  -0.00064   0.00000  -0.00067  -0.00748
   D23        0.00542  -0.00007  -0.00414   0.00000  -0.00396   0.00147
   D24       -3.13508   0.00004   0.00089   0.00000   0.00096  -3.13412
   D25        0.93846  -0.00304  -0.02778   0.00000  -0.02948   0.90898
   D26       -2.25331  -0.00329  -0.06967   0.00000  -0.06653  -2.31985
   D27       -2.53731   0.01020   0.15558   0.00000   0.15390  -2.38341
   D28        2.52500  -0.00384  -0.08704   0.00000  -0.08994   2.43506
   D29        0.22067   0.00168  -0.00538   0.00000  -0.01464   0.20603
   D30       -1.87856   0.00172  -0.01288   0.00000  -0.01956  -1.89812
   D31       -1.71562  -0.00026   0.01335   0.00000   0.01919  -1.69644
   D32        2.48384   0.00193   0.03781   0.00000   0.04123   2.52507
   D33        1.43213  -0.00472  -0.10114   0.00000  -0.09392   1.33821
   D34       -1.87161  -0.00224  -0.02711   0.00000  -0.02235  -1.89397
         Item               Value     Threshold  Converged?
 Maximum Force            0.026607     0.000450     NO 
 RMS     Force            0.006097     0.000300     NO 
 Maximum Displacement     0.358415     0.001800     NO 
 RMS     Displacement     0.090385     0.001200     NO 
 Predicted change in Energy=-1.282478D-02
 GradGradGradGradGradGradGradGradGradGradGradGradGradGradGradGradGradGrad

                          Input orientation:                          
 ---------------------------------------------------------------------
 Center     Atomic      Atomic             Coordinates (Angstroms)
 Number     Number       Type             X           Y           Z
 ---------------------------------------------------------------------
      1          7           0        0.545856   -0.991597   -0.125227
      2          7           0        0.912264    0.301391   -0.040322
      3          6           0        2.242563    0.405749    0.179023
      4          6           0        2.675339   -0.894955    0.219556
      5          7           0        1.606918   -1.711816    0.030503
      6          1           0        2.726357    1.364472    0.278272
      7          1           0        3.668508   -1.288315    0.364242
      8          1           0       -0.941821   -1.682526   -0.224234
      9          6           0       -0.012965    1.473446   -0.164580
     10          8           0        0.483246    2.541566    0.009148
     11          8           0       -1.229244    1.222557   -0.531929
     12          1           0       -2.766906   -0.737002    0.190551
     13          8           0       -1.909656   -2.005628   -0.162142
     14          1           0       -2.115490   -2.470421   -0.974827
     15          1           0       -1.780225    0.503923   -0.022487
     16          8           0       -3.065931    0.222715    0.485776
     17          1           0       -3.181457    0.237352    1.438022
 ---------------------------------------------------------------------
                    Distance matrix (angstroms):
                    1          2          3          4          5
     1  N    0.000000
     2  N    1.346581   0.000000
     3  C    2.218999   1.352294   0.000000
     4  C    2.159378   2.146442   1.371411   0.000000
     5  N    1.291828   2.130860   2.215893   1.358133   0.000000
     6  H    3.235499   2.126635   1.078451   2.260765   3.282999
     7  H    3.174678   3.207448   2.222044   1.077985   2.130936
     8  H    1.643280   2.721650   3.829335   3.728413   2.561605
     9  C    2.527897   1.498399   2.519017   3.603312   3.578823
    10  O    3.536272   2.281422   2.772322   4.081571   4.399358
    11  O    2.866856   2.382494   3.636766   4.504925   4.119549
    12  H    3.337503   3.829863   5.138170   5.444614   4.483995
    13  O    2.656908   3.646972   4.813736   4.733019   3.534081
    14  H    3.160934   4.209933   5.347555   5.182730   3.929694
    15  H    2.767271   2.700155   4.029029   4.676270   4.047845
    16  O    3.859130   4.013602   5.320499   5.855104   5.077913
    17  H    4.224562   4.352947   5.570766   6.088419   5.358069
                    6          7          8          9         10
     6  H    0.000000
     7  H    2.816438   0.000000
     8  H    4.795022   4.664423   0.000000
     9  C    2.777026   4.632518   3.290364   0.000000
    10  O    2.547454   4.993994   4.464106   1.190499   0.000000
    11  O    4.040215   5.576341   2.935438   1.295077   2.228267
    12  H    5.882161   6.461321   2.096902   3.549140   4.620109
    13  O    5.748404   5.648675   1.022230   3.962499   5.141235
    14  H    6.302391   6.053521   1.600521   4.542158   5.730763
    15  H    4.597856   5.748946   2.350358   2.020736   3.045701
    16  O    5.907391   6.902945   2.940391   3.362721   4.266252
    17  H    6.125168   7.099485   3.386001   3.759735   4.558633
                   11         12         13         14         15
    11  O    0.000000
    12  H    2.593502   0.000000
    13  O    3.319771   1.571204   0.000000
    14  H    3.823568   2.187964   0.958570   0.000000
    15  H    1.039012   1.599631   2.516764   3.141031   0.000000
    16  O    2.325689   1.047679   2.592736   3.207753   1.410832
    17  H    2.943208   1.636277   3.034628   3.780233   2.041469
                   16         17
    16  O    0.000000
    17  H    0.959340   0.000000
 Stoichiometry    C3H7N3O4
 Framework group  C1[X(C3H7N3O4)]
 Deg. of freedom    45
 Full point group                 C1      NOp   1
 Largest Abelian subgroup         C1      NOp   1
 Largest concise Abelian subgroup C1      NOp   1
                         Standard orientation:                         
 ---------------------------------------------------------------------
 Center     Atomic      Atomic             Coordinates (Angstroms)
 Number     Number       Type             X           Y           Z
 ---------------------------------------------------------------------
      1          7           0        0.545299   -0.997473   -0.128554
      2          7           0        0.900252    0.298515   -0.040786
      3          6           0        2.230144    0.414237    0.175307
      4          6           0        2.674748   -0.882619    0.210814
      5          7           0        1.613234   -1.708536    0.022193
      6          1           0        2.705533    1.376993    0.276112
      7          1           0        3.671813   -1.267419    0.351671
      8          1           0       -0.936345   -1.701515   -0.225634
      9          6           0       -0.035847    1.462528   -0.159082
     10          8           0        0.451173    2.534569    0.016493
     11          8           0       -1.250801    1.201748   -0.523918
     12          1           0       -2.768760   -0.773741    0.196844
     13          8           0       -1.901053   -2.033527   -0.161913
     14          1           0       -2.104881   -2.497761   -0.975423
     15          1           0       -1.793897    0.476668   -0.015143
     16          8           0       -3.075634    0.182361    0.495721
     17          1           0       -3.188713    0.193146    1.448311
 ---------------------------------------------------------------------
 Rotational constants (GHZ):           1.6173588           1.0187430           0.6467015
 Standard basis: 6-31+G(d,p) (6D, 7F)
 There are   225 symmetry adapted cartesian basis functions of A   symmetry.
 There are   225 symmetry adapted basis functions of A   symmetry.
   225 basis functions,   369 primitive gaussians,   225 cartesian basis functions
    39 alpha electrons       39 beta electrons
       nuclear repulsion energy       559.5234836711 Hartrees.
 NAtoms=   17 NActive=   17 NUniq=   17 SFac= 1.00D+00 NAtFMM=   60 NAOKFM=F Big=F
 Integral buffers will be    131072 words long.
 Raffenetti 2 integral format.
 Two-electron integral symmetry is turned on.
 One-electron integrals computed using PRISM.
 NBasis=   225 RedAO= T EigKep=  1.91D-05  NBF=   225
 NBsUse=   225 1.00D-06 EigRej= -1.00D+00 NBFU=   225
 Initial guess from the checkpoint file:  "/scratch/gongke2021/PC/Gau-16522.chk"
 B after Tr=    -0.000000   -0.000000   -0.000000
         Rot=    0.999994    0.001753   -0.002626   -0.001231 Ang=   0.39 deg.
 ExpMin= 4.38D-02 ExpMax= 5.48D+03 ExpMxC= 8.25D+02 IAcc=2 IRadAn=         4 AccDes= 0.00D+00
 Harris functional with IExCor= 1009 and IRadAn=       4 diagonalized for initial guess.
 HarFok:  IExCor= 1009 AccDes= 0.00D+00 IRadAn=         4 IDoV= 1 UseB2=F ITyADJ=14
 ICtDFT=  3500011 ScaDFX=  1.000000  1.000000  1.000000  1.000000
 FoFCou: FMM=F IPFlag=           0 FMFlag=      100000 FMFlg1=           0
         NFxFlg=           0 DoJE=T BraDBF=F KetDBF=T FulRan=T
         wScrn=  0.000000 ICntrl=       500 IOpCl=  0 I1Cent=   200000004 NGrid=           0
         NMat0=    1 NMatS0=      1 NMatT0=    0 NMatD0=    1 NMtDS0=    0 NMtDT0=    0
 Petite list used in FoFCou.
 Requested convergence on RMS density matrix=1.00D-08 within 128 cycles.
 Requested convergence on MAX density matrix=1.00D-06.
 Requested convergence on             energy=1.00D-06.
 No special actions if energy rises.
 SCF Done:  E(RM062X) =  -583.454467918     A.U. after   13 cycles
            NFock= 13  Conv=0.80D-08     -V/T= 2.0081
 Calling FoFJK, ICntrl=      2127 FMM=F ISym2X=0 I1Cent= 0 IOpClX= 0 NMat=1 NMatS=1 NMatT=0.
 ***** Axes restored to original set *****
 -------------------------------------------------------------------
 Center     Atomic                   Forces (Hartrees/Bohr)
 Number     Number              X              Y              Z
 -------------------------------------------------------------------
      1        7           0.010624328    0.009799076    0.000642826
      2        7          -0.015393782    0.009801502    0.000067813
      3        6          -0.001430243   -0.000433910    0.000431493
      4        6           0.000659310   -0.000581836   -0.000582397
      5        7          -0.002775038   -0.005665478    0.000061439
      6        1          -0.000835285   -0.000159367   -0.000111218
      7        1          -0.000196088   -0.000370168    0.000032784
      8        1          -0.017989325   -0.007723386    0.001224462
      9        6           0.003225934   -0.012433096   -0.005965701
     10        8           0.008195581    0.011253784    0.001589387
     11        8           0.023224297   -0.005066529   -0.002263084
     12        1          -0.017888599    0.014002114    0.015042649
     13        8           0.013492554    0.009973065    0.001250365
     14        1          -0.001262452   -0.002789244   -0.003833395
     15        1          -0.007728158    0.023280300   -0.000850498
     16        8           0.006902657   -0.040154670   -0.010976106
     17        1          -0.000825692   -0.002732160    0.004239182
 -------------------------------------------------------------------
 Cartesian Forces:  Max     0.040154670 RMS     0.010287044

 GradGradGradGradGradGradGradGradGradGradGradGradGradGradGradGradGradGrad
 Berny optimization.
 Using GEDIIS/GDIIS optimizer.
 FormGI is forming the generalized inverse of G from B-inverse, IUseBI=4.
 Internal  Forces:  Max     0.037281997 RMS     0.006483718
 Search for a local minimum.
 Step number   3 out of a maximum of   92
 All quantities printed in internal units (Hartrees-Bohrs-Radians)
 Mixed Optimization -- RFO/linear search
 Update second derivatives using D2CorX and points    2    3
 ITU=  0  1  0
 Use linear search instead of GDIIS.
     Eigenvalues ---    0.00310   0.00482   0.00721   0.01380   0.01498
     Eigenvalues ---    0.01662   0.01883   0.02204   0.02342   0.02389
     Eigenvalues ---    0.02415   0.03132   0.03575   0.03597   0.04507
     Eigenvalues ---    0.05766   0.06997   0.09253   0.10146   0.10619
     Eigenvalues ---    0.12615   0.13403   0.14391   0.16000   0.16003
     Eigenvalues ---    0.17451   0.22496   0.23170   0.23705   0.24959
     Eigenvalues ---    0.30073   0.32218   0.36222   0.36231   0.43329
     Eigenvalues ---    0.44738   0.48536   0.53622   0.54477   0.54572
     Eigenvalues ---    0.55109   0.55454   0.65067   0.77459   1.01505
 RFO step:  Lambda=-1.30674565D-02 EMin= 3.09668512D-03
 Quartic linear search produced a step of  0.03982.
 Iteration  1 RMS(Cart)=  0.05984477 RMS(Int)=  0.00468198
 Iteration  2 RMS(Cart)=  0.00690729 RMS(Int)=  0.00074263
 Iteration  3 RMS(Cart)=  0.00002486 RMS(Int)=  0.00074217
 Iteration  4 RMS(Cart)=  0.00000003 RMS(Int)=  0.00074217
 Variable       Old X    -DE/DX   Delta X   Delta X   Delta X     New X
                                 (Linear)    (Quad)   (Total)
    R1        2.54467   0.00013   0.00068   0.00103   0.00189   2.54656
    R2        2.44120  -0.00037  -0.00026  -0.00205  -0.00233   2.43887
    R3        3.10535   0.00591   0.00386   0.05919   0.06339   3.16874
    R4        2.55547  -0.00090   0.00034  -0.00011   0.00020   2.55567
    R5        2.83156  -0.01325  -0.00092  -0.04499  -0.04591   2.78565
    R6        2.59159   0.00198  -0.00037   0.00302   0.00271   2.59430
    R7        2.03798  -0.00053   0.00002  -0.00127  -0.00125   2.03673
    R8        2.56650  -0.00048   0.00014   0.00038   0.00058   2.56708
    R9        2.03710  -0.00004  -0.00001  -0.00014  -0.00014   2.03695
   R10        1.93173  -0.01402   0.00038  -0.02963  -0.02891   1.90283
   R11        2.24972   0.01374  -0.00089   0.00895   0.00806   2.25777
   R12        2.44734  -0.00166   0.00212   0.00856   0.01039   2.45773
   R13        1.96345   0.01449  -0.00399   0.02819   0.02388   1.98733
   R14        2.96914  -0.00492   0.00677  -0.00231   0.00449   2.97364
   R15        3.02286   0.01616   0.01319   0.23203   0.24307   3.26594
   R16        1.97983  -0.03728   0.00461  -0.04250  -0.03652   1.94331
   R17        1.81144   0.00487  -0.00031   0.00705   0.00674   1.81817
   R18        2.66609   0.00888  -0.00354   0.05047   0.04811   2.71420
   R19        1.81289   0.00427  -0.00022   0.00636   0.00614   1.81902
    A1        1.87993   0.00417  -0.00076   0.01407   0.01333   1.89326
    A2        2.28347   0.00491   0.00285   0.03314   0.03585   2.31932
    A3        2.11348  -0.00907  -0.00194  -0.04573  -0.04769   2.06579
    A4        1.93051  -0.00343   0.00038  -0.01201  -0.01161   1.91890
    A5        2.18686   0.00471   0.00092   0.01828   0.01875   2.20561
    A6        2.16581  -0.00127  -0.00130  -0.00621  -0.00727   2.15854
    A7        1.81526   0.00172  -0.00025   0.00550   0.00520   1.82047
    A8        2.12332  -0.00155   0.00033  -0.00570  -0.00536   2.11796
    A9        2.34460  -0.00017  -0.00008   0.00020   0.00013   2.34473
   A10        1.89450   0.00004   0.00004   0.00130   0.00138   1.89588
   A11        2.26633   0.00040  -0.00008   0.00144   0.00135   2.26768
   A12        2.12233  -0.00044   0.00004  -0.00275  -0.00274   2.11960
   A13        1.90457  -0.00250   0.00059  -0.00886  -0.00832   1.89625
   A14        2.01787   0.00165   0.00089   0.00939   0.01077   2.02863
   A15        2.03969  -0.00894   0.00245  -0.01878  -0.01751   2.02218
   A16        2.22264   0.00730  -0.00342   0.01103   0.00805   2.23069
   A17        2.08626   0.00378  -0.00132   0.02742   0.02651   2.11278
   A18        1.83375  -0.00421  -0.00034  -0.01913  -0.01857   1.81518
   A19        1.84938  -0.00204   0.00496   0.00632   0.01060   1.85998
   A20        1.88080   0.00047  -0.00262  -0.00311  -0.00505   1.87576
   A21        2.05404   0.00169  -0.00031   0.00966   0.00945   2.06350
   A22        2.76236   0.00344   0.00018  -0.01364  -0.01167   2.75068
   A23        2.49437   0.01905   0.00409   0.10386   0.10984   2.60421
   A24        1.90504  -0.00163  -0.00278  -0.03187  -0.03510   1.86994
   A25        2.05363  -0.00051   0.00096   0.00957   0.01256   2.06619
   A26        3.04310   0.00286  -0.00654   0.00667  -0.00013   3.04296
   A27        2.86000  -0.00393  -0.00978  -0.08443  -0.09650   2.76350
   A28        3.27968   0.00047   0.00420   0.03303   0.03886   3.31854
   A29        3.20667   0.00422   0.00487  -0.00210   0.00284   3.20952
    D1       -0.00293  -0.00024  -0.00005  -0.00133  -0.00168  -0.00462
    D2       -3.14115  -0.00096  -0.00041  -0.02129  -0.02217   3.11987
    D3        3.01634  -0.00080   0.00095   0.00939   0.01026   3.02660
    D4       -0.12187  -0.00152   0.00059  -0.01058  -0.01022  -0.13209
    D5        0.00085   0.00019   0.00013   0.00089   0.00117   0.00202
    D6       -3.03272  -0.00037  -0.00123  -0.01465  -0.01501  -3.04773
    D7       -0.16426  -0.00256   0.00021  -0.04876  -0.04853  -0.21280
    D8        2.05026  -0.00093   0.00057  -0.02783  -0.02680   2.02346
    D9        2.77251  -0.00172  -0.00040  -0.04840  -0.04964   2.72287
   D10       -1.29616  -0.00009  -0.00004  -0.02746  -0.02790  -1.32406
   D11        0.00369   0.00019  -0.00005   0.00117   0.00145   0.00514
   D12       -3.13983  -0.00008  -0.00010  -0.00370  -0.00365   3.13971
   D13       -3.14124   0.00091   0.00033   0.02090   0.02133  -3.11990
   D14       -0.00156   0.00065   0.00027   0.01603   0.01623   0.01467
   D15        3.07476   0.00054   0.00249   0.05803   0.06027   3.13503
   D16       -0.14372   0.00109   0.00105   0.07958   0.07974  -0.06397
   D17       -0.06302  -0.00028   0.00207   0.03547   0.03713  -0.02588
   D18        3.00169   0.00028   0.00063   0.05702   0.05660   3.05830
   D19       -0.00310  -0.00008   0.00012  -0.00065  -0.00077  -0.00387
   D20        3.13183  -0.00012  -0.00009  -0.00148  -0.00171   3.13013
   D21        3.14078   0.00024   0.00019   0.00516   0.00533  -3.13708
   D22       -0.00748   0.00020  -0.00003   0.00433   0.00440  -0.00308
   D23        0.00147  -0.00007  -0.00016  -0.00015  -0.00024   0.00122
   D24       -3.13412  -0.00004   0.00004   0.00058   0.00058  -3.13354
   D25        0.90898  -0.00201  -0.00117  -0.05311  -0.05427   0.85471
   D26       -2.31985  -0.00180  -0.00265  -0.02898  -0.03223  -2.35207
   D27       -2.38341   0.00052   0.00613   0.10507   0.11097  -2.27245
   D28        2.43506   0.00340  -0.00358   0.05681   0.05573   2.49079
   D29        0.20603   0.00047  -0.00058   0.00457   0.00414   0.21017
   D30       -1.89812   0.00037  -0.00078  -0.00252  -0.00384  -1.90196
   D31       -1.69644  -0.00095   0.00076  -0.01814  -0.01641  -1.71285
   D32        2.52507  -0.00127   0.00164  -0.00673  -0.00405   2.52102
   D33        1.33821  -0.00514  -0.00374  -0.11788  -0.12134   1.21686
   D34       -1.89397  -0.00237  -0.00089  -0.05474  -0.05548  -1.94944
         Item               Value     Threshold  Converged?
 Maximum Force            0.037282     0.000450     NO 
 RMS     Force            0.006484     0.000300     NO 
 Maximum Displacement     0.221855     0.001800     NO 
 RMS     Displacement     0.063479     0.001200     NO 
 Predicted change in Energy=-7.486583D-03
 GradGradGradGradGradGradGradGradGradGradGradGradGradGradGradGradGradGrad

                          Input orientation:                          
 ---------------------------------------------------------------------
 Center     Atomic      Atomic             Coordinates (Angstroms)
 Number     Number       Type             X           Y           Z
 ---------------------------------------------------------------------
      1          7           0        0.521546   -0.949624   -0.128464
      2          7           0        0.903160    0.340247   -0.047337
      3          6           0        2.231368    0.413926    0.196434
      4          6           0        2.639086   -0.895773    0.252668
      5          7           0        1.559825   -1.695281    0.049330
      6          1           0        2.731637    1.363523    0.294544
      7          1           0        3.621388   -1.308121    0.416802
      8          1           0       -0.976711   -1.689951   -0.265877
      9          6           0        0.036442    1.520597   -0.216313
     10          8           0        0.565570    2.585397   -0.099345
     11          8           0       -1.198972    1.275531   -0.540637
     12          1           0       -2.809422   -0.794669    0.217247
     13          8           0       -1.922016   -2.028523   -0.190518
     14          1           0       -2.130437   -2.488101   -1.009697
     15          1           0       -1.767298    0.564532   -0.013904
     16          8           0       -3.029065    0.157251    0.538367
     17          1           0       -3.118743    0.119952    1.496041
 ---------------------------------------------------------------------
                    Distance matrix (angstroms):
                    1          2          3          4          5
     1  N    0.000000
     2  N    1.347582   0.000000
     3  C    2.210954   1.352402   0.000000
     4  C    2.152240   2.152020   1.372847   0.000000
     5  N    1.290596   2.141011   2.218415   1.358442   0.000000
     6  H    3.227087   2.123042   1.077790   2.261579   3.284746
     7  H    3.167784   3.212679   2.223997   1.077908   2.129547
     8  H    1.676824   2.775495   3.864169   3.738127   2.556051
     9  C    2.518936   1.474103   2.492546   3.582255   3.568352
    10  O    3.535415   2.270985   2.752755   4.067178   4.397142
    11  O    2.842778   2.353096   3.612876   4.480467   4.096919
    12  H    3.352443   3.891182   5.183696   5.449561   4.464259
    13  O    2.671866   3.689605   4.833827   4.720507   3.505965
    14  H    3.190063   4.257746   5.376045   5.184345   3.920221
    15  H    2.746744   2.680068   4.007026   4.649707   4.022499
    16  O    3.778449   3.979815   5.277779   5.772211   4.972820
    17  H    4.127313   4.313496   5.513537   5.977481   5.222742
                    6          7          8          9         10
     6  H    0.000000
     7  H    2.818561   0.000000
     8  H    4.836282   4.664156   0.000000
     9  C    2.747677   4.610241   3.366980   0.000000
    10  O    2.517930   4.976336   4.548073   1.194763   0.000000
    11  O    4.019323   5.552280   2.986466   1.300573   2.241450
    12  H    5.947025   6.454360   2.096132   3.694235   4.787029
    13  O    5.779079   5.622912   1.006932   4.053699   5.242581
[...]
   zy        -0.189499D+01     -0.280808D+00     -0.312441D+00
   zz         0.913426D+02      0.135356D+02      0.150604D+02

 ----------------------------------------------------------------------
 1\1\GINC-NODE4\Freq\RM062X\6-31+G(d,p)\C3H7N3O4\GONGKE2021\05-Jun-2023
 \0\\#N Geom=AllCheck Guess=TCheck SCRF=Check GenChk RM062X/6-31+G(d,p)
  Freq\\test\\0,1\N,0.1228194879,-0.4392506085,-0.0444332164\N,0.845299
 8383,0.6756446421,0.0518114264\C,2.174014875,0.397079521,0.0575964699\
 C,2.2207508604,-0.969349192,-0.0393324991\N,0.9378283838,-1.4381782446
 ,-0.0987648339\H,2.9149421612,1.176512935,0.129492937\H,3.0690473067,-
 1.6338303608,-0.0691287275\H,-0.764916155,-2.5857642273,0.0383186798\C
 ,0.2237784381,1.9865408686,0.1565798403\O,0.9457084599,2.9422749028,0.
 2285268774\O,-1.0722638361,1.9789038954,0.1649043638\H,-2.3036887797,-
 0.8996253444,0.0498861194\O,-1.7343207306,-2.6069783129,0.11073524\H,-
 2.047296778,-3.2620584381,-0.5202693013\H,-1.592837317,1.0951286824,0.
 1066572896\O,-2.6591466833,0.0155507902,0.0213024437\H,-3.4223617817,0
 .0583102011,0.6054614408\\Version=ES64L-G16RevA.03\State=1-A\HF=-583.4
 844064\RMSD=4.629e-09\RMSF=6.349e-06\ZeroPoint=0.124833\Thermal=0.1364
 524\Dipole=0.1954302,-1.602985,-0.0703029\DipoleDeriv=-0.53721,0.05262
 12,-0.0016528,0.0603648,0.4975952,0.0447469,0.0129412,0.0455376,-0.084
 8567,-0.2233854,0.4185518,0.0362262,0.4344534,-1.2993582,-0.0944539,0.
 0296758,-0.0950214,0.0191034,0.0448489,-0.369026,-0.0240335,0.006237,0
 .2288375,0.0188603,0.0002326,0.0102323,-0.0402538,0.0713108,-0.1485455
 ,-0.0072383,-0.2104584,-0.1279181,-0.0037284,-0.0129403,-0.0047156,-0.
 0876298,-0.082529,0.286193,0.037344,-0.0295078,-0.555395,-0.0243117,0.
 0205753,-0.0114675,-0.2295699,0.1426998,0.0127597,-0.0002733,-0.015112
 4,0.129908,-0.0044816,-0.0020097,-0.0043378,0.191446,0.0531395,0.02149
 35,-0.000557,0.046284,0.0785288,-0.006317,0.0014249,-0.0061241,0.17481
 32,0.5537313,0.2703461,0.0201266,0.1914676,0.4313644,-0.0355294,0.0107
 211,-0.050264,0.2784667,2.2423631,0.0092407,-0.0207417,-0.2238674,2.42
 00011,0.1444656,-0.0282323,0.153095,0.4628204,-0.8454569,-0.3559767,-0
 .0183121,-0.242039,-1.3087662,-0.0610641,-0.0163914,-0.0732918,-0.4050
 567,-1.7837697,-0.2626224,0.0082853,-0.3350709,-0.8624815,-0.0176534,-
 0.0010535,-0.025877,-0.3848663,0.4515115,-0.1654262,0.0067524,-0.13821
 95,0.7600097,0.0434543,0.0208754,0.0385613,0.2820042,-0.7747877,-0.137
 8246,-0.0260067,-0.0692779,-0.855366,0.0952271,-0.0115145,0.1172807,-0
 .5411002,0.3233483,0.0469608,0.0131512,0.0220972,0.305921,-0.0632278,0
 .0007623,-0.0682141,0.2839651,1.0264704,0.446706,0.0081119,0.7025717,0
 .8244686,0.0012202,0.0280563,0.0142326,0.3066111,-0.9952679,-0.1040474
 ,-0.0732771,-0.1434932,-0.9524349,-0.0595879,-0.1042182,-0.0511597,-0.
 5295921,0.332983,-0.021404,0.0420949,-0.0564292,0.2850856,0.0223807,0.
 0510948,0.0115335,0.3036953\Polar=88.3901586,3.172158,91.9431838,-0.14
 7133,3.4329204,46.6672507\Quadrupole=9.0742482,-6.9043599,-2.1698883,0
 .7122453,-1.1989775,2.6139561\PG=C01 [X(C3H7N3O4)]\NImag=0\\0.64656523
 ,-0.07421684,0.54316092,0.00265865,0.02925880,0.11959262,-0.20275403,-
 0.13023274,-0.01119869,0.74990657,-0.05843786,-0.17988207,-0.00927105,
 -0.06741681,0.74664062,-0.00585212,-0.01088148,-0.07327985,0.00381153,
 0.04782937,0.11941164,-0.09159424,-0.05559478,-0.00624229,-0.31799254,
 0.03750637,-0.00182639,0.73078914,-0.00259471,-0.03513861,-0.00372731,
 0.02856198,-0.12231509,-0.00414962,0.16884361,0.82962791,-0.00249218,-
 0.00488560,0.01792733,-0.00306619,-0.00367798,-0.06441799,0.02393067,0
 .05463589,0.13500960,-0.11329857,0.07762716,0.00284961,-0.01209626,0.0
 0519004,0.00011411,-0.11918155,0.03536688,0.00147670,0.74532039,-0.004
 28794,0.00873496,-0.00131843,0.10936063,-0.05724956,-0.00246732,-0.004
 04857,-0.40117490,-0.02412694,-0.18874844,0.77683530,-0.00315571,0.000
 34757,0.02433635,0.00770680,-0.00462300,0.00889844,-0.00151161,-0.0230
 9848,-0.07072502,-0.00104263,0.04182138,0.13785009,-0.23779271,0.18670
 348,0.01062022,-0.02894321,0.05519923,0.00230528,0.00279988,-0.1076056
 7,-0.00802608,-0.25434996,-0.06533371,-0.00824348,0.53837791,0.1237627
 2,-0.28051556,-0.01076807,0.00050363,-0.16333597,-0.01392409,-0.017142
 71,-0.03192174,-0.00409781,-0.07155372,-0.15200620,-0.00679540,-0.0391
 9033,0.61876720,0.00601955,-0.00951718,-0.09503838,-0.00139100,-0.0123
 5231,0.02651026,-0.00124202,-0.00576051,0.01743341,-0.00909724,-0.0064
 2877,-0.07311307,0.00570234,0.03380916,0.12102295,-0.00453296,0.001988
 50,-0.00005633,-0.01646428,-0.02434835,-0.00206558,-0.20424995,-0.1540
 0358,-0.01481160,0.01070392,0.00344064,0.00047688,0.00127906,0.0046245
 6,0.00017272,0.21289399,0.00580723,-0.00075639,-0.00043299,0.00835669,
 0.01234948,0.00126392,-0.16604582,-0.22754430,-0.01783877,-0.01671962,
 -0.00157516,-0.00051055,-0.00223601,-0.00482382,-0.00081748,0.17069900
 ,0.22281168,0.00024768,-0.00050858,0.00653530,0.00023084,0.00056005,-0
 .00240318,-0.01561129,-0.01767395,-0.03245110,-0.00097578,-0.00001399,
 0.00055994,-0.00029878,-0.00073815,0.00650442,0.01636083,0.01809695,0.
 02518916,-0.00542039,-0.00151277,-0.00038735,0.00000792,-0.00390098,-0
 .00041244,0.00815469,-0.00424482,-0.00013009,-0.24590014,0.15188445,0.
 00632050,-0.01654616,0.01956943,0.00117619,-0.00037829,0.00048190,0.00
 007324,0.25951197,-0.00582667,0.00084434,-0.00063908,-0.00001728,-0.00
 624194,-0.00093470,0.02099261,-0.00408146,0.00016916,0.15749227,-0.184
 15034,-0.00755982,-0.01048618,0.01351326,0.00120621,-0.00038635,-0.000
 13091,0.00013785,-0.16281108,0.17955289,-0.00061522,-0.00061198,0.0080
 8180,-0.00007067,-0.00098044,0.00660230,0.00168552,-0.00037691,-0.0002
 5353,0.00675968,-0.00758639,-0.03129819,-0.00108243,0.00181229,-0.0066
 0933,0.00001041,0.00016135,-0.00221306,-0.00665901,0.00761136,0.024694
 99,0.00029893,-0.00788098,-0.00043100,-0.00001340,0.00709960,0.0008747
 8,0.00104122,0.00106983,0.00028769,-0.00296376,0.00297285,-0.00005150,
 0.00219692,-0.00380108,-0.00165797,-0.00032585,0.00022123,0.00005308,-
 0.00003798,-0.00004019,-0.00004298,0.50710653,-0.00342220,-0.00616635,
 -0.00000231,0.00099975,0.00059290,-0.00004652,0.00205172,0.00084081,0.
 00020330,-0.00050430,0.00228022,-0.00000304,-0.00141070,-0.00319445,-0
 .00005643,-0.00000987,0.00000535,0.00005586,0.00018886,0.00007597,-0.0
 0003034,0.01681242,0.03972354,0.00049204,0.00008402,-0.00018040,-0.000
 23559,-0.00025694,0.00029754,-0.00024381,-0.00018170,0.00048751,0.0001
 2477,-0.00047215,-0.00044752,-0.00055919,0.00088596,-0.00366865,0.0000
 0920,-0.00004992,0.00024782,-0.00001147,0.00001313,-0.00001819,-0.0270
 8947,0.02084818,0.03238414,0.02510887,0.00667252,0.00100091,-0.1399522
 0,0.03160011,0.00184420,-0.01361842,0.03377884,0.00265407,-0.01387539,
 -0.00539427,-0.00080638,0.00476415,-0.02377287,-0.00144007,-0.00209281
 ,0.00062069,0.00001165,0.00015988,0.00059859,-0.00000575,0.00416501,0.
 00149616,0.00001665,0.92128708,-0.00248242,-0.05465322,-0.00338423,0.0
 2509706,-0.12756255,-0.00564354,0.02934142,-0.00568787,0.00058209,0.00
 229345,0.01651621,0.00090132,-0.02128932,0.01696150,0.00008299,-0.0029
 9813,0.00198827,0.00023525,0.00042862,0.00145282,-0.00004321,-0.003786
 35,-0.00278520,0.00013545,0.31011161,0.80267754,0.00022993,-0.00320291
 ,-0.01444211,0.00158231,-0.00676238,-0.05418053,0.00222388,0.00079703,
 -0.00663169,-0.00015233,0.00103151,0.00329445,-0.00178197,0.00079031,0
 .00802650,-0.00020072,0.00021707,-0.00109326,0.00000222,0.00002021,0.0
 0176086,-0.00022142,-0.00023553,0.00030530,0.02064401,0.04484749,0.217
 23924,0.00139347,0.00154211,-0.00000713,0.01858770,-0.00816402,-0.0007
 0521,-0.00438657,0.00140094,0.00007075,0.00137375,-0.00249958,-0.00013
 173,0.00298142,0.00181244,0.00018404,0.00201530,-0.00013510,0.00002069
 ,0.00007171,-0.00008111,-0.00000470,-0.00068435,-0.00011160,-0.0000384
 2,-0.34098279,-0.32254029,-0.02407765,0.40163398,0.01511022,0.00678550
 ,0.00045399,-0.02550567,-0.09218970,-0.00892088,-0.00852972,0.00248894
 ,0.00006094,-0.00300672,-0.00378131,-0.00038915,0.00387786,-0.01144773
 ,-0.00054396,0.00065603,-0.00203072,-0.00009080,0.00010069,-0.00022749
 ,-0.00000738,0.00157348,0.00111285,-0.00011130,-0.32804588,-0.54122479
 ,-0.03447377,0.38934074,0.63434061,0.00109799,0.00025646,0.00472221,-0
 .00203053,-0.00873526,0.01859282,-0.00073630,0.00016190,0.00049977,-0.
 00024227,-0.00041773,0.00035272,0.00045535,-0.00076034,-0.00230882,0.0
 0008093,-0.00009700,-0.00072594,0.00001035,-0.00000978,-0.00014566,0.0
 0008662,0.00008121,-0.00013324,-0.02447620,-0.03447301,-0.08648719,0.0
 2868837,0.04508914,0.04023774,-0.00388182,-0.01204364,-0.00114164,-0.0
 5090681,0.03199893,0.00274818,0.01138978,0.00095685,0.00043480,0.00175
 470,0.00606809,0.00046594,-0.00598801,0.00876402,0.00038503,0.00112060
 ,-0.00088991,-0.00002504,0.00039720,0.00067154,0.00003454,-0.00323392,
 -0.00147174,-0.00006835,-0.41174599,0.00942677,0.00345526,-0.08410057,
 -0.04749874,-0.00317265,0.64686914,0.00205843,-0.00162064,-0.00007567,
 0.04506856,-0.00635474,-0.00185010,-0.00247642,-0.00485217,-0.00085924
 ,0.00347036,-0.00120882,0.00006914,0.00135303,0.00192048,0.00005050,0.
 00071747,-0.00057033,-0.00002782,0.00001546,-0.00039153,0.00006313,-0.
 00050472,0.00013663,-0.00009230,-0.01127447,-0.12300647,-0.00494386,-0
 .07252540,0.00206423,-0.00082326,0.14350107,0.41526955,0.00020122,-0.0
 0036446,0.00089024,0.00404957,-0.00159158,0.01410391,-0.00033438,-0.00
 081682,0.00358990,0.00038295,-0.00006116,-0.00041491,0.00012923,0.0000
 1747,0.00042730,0.00004233,-0.00003185,-0.00000028,0.00001932,0.000011
 02,-0.00076439,0.00001882,0.00005946,-0.00018827,0.00093479,-0.0051634
 4,-0.05837584,-0.00470402,-0.00082765,0.01867951,0.00624761,0.02635043
 ,0.03723049,-0.00254594,-0.00010467,-0.00010579,-0.00011817,0.00083871
 ,0.00000685,0.00223762,0.00005393,0.00008839,0.00102562,0.00137457,0.0
 0017521,-0.00160659,0.00142164,-0.00005308,0.00015095,-0.00016680,0.00
 001007,0.00012068,0.00006290,0.00001463,-0.00251412,0.00500616,-0.0005
 1736,0.00576165,-0.00459014,-0.00032405,-0.00194130,0.00059334,0.00004
 551,-0.00980725,-0.00436295,-0.00025500,0.10798425,0.00156110,0.000796
 99,-0.00026640,-0.00016574,-0.00305146,-0.00028250,-0.00051149,-0.0004
 4486,-0.00004541,0.00131254,-0.00085135,0.00002785,-0.00008298,-0.0007
 5020,0.00016768,-0.00000443,-0.00003536,-0.00000552,0.00013427,0.00006
 956,0.00001542,0.00610779,0.00368124,0.00080550,-0.00708964,0.00138483
 ,0.00012451,0.00216187,0.00039249,0.00005276,0.00617662,0.00332450,-0.
 00021816,-0.14291309,0.39510143,0.00034264,-0.00007120,-0.00188855,-0.
 00017907,-0.00019777,-0.00018880,-0.00012945,-0.00009716,0.00017198,0.
 00003835,-0.00009681,0.00022774,0.00012102,-0.00004872,-0.00035842,-0.
 00002013,-0.00000050,0.00012316,0.00000167,-0.00000171,0.00006971,0.00
 077183,-0.00040140,0.00111500,-0.00093742,0.00014564,0.00054050,0.0002
 7799,0.00007255,-0.00013329,0.00067616,0.00038296,-0.00019728,-0.01449
 338,-0.01315019,0.03619208,-0.00139513,0.00118255,0.00059406,-0.000385
 24,-0.00406536,-0.00049908,-0.00177978,-0.00084361,-0.00014866,0.00195
 760,-0.00268712,-0.00011264,-0.00705294,-0.00242242,0.00070989,0.00012
 210,-0.00007330,-0.00002597,0.00000638,0.00004067,0.00000105,-0.497188
 19,0.01330663,0.06079640,-0.00428143,0.00395758,0.00026460,0.00087749,
 -0.00133478,-0.00006727,0.00412561,0.00097116,0.00000144,-0.00898885,-
 0.00376205,-0.00372020,0.61338640,-0.00206595,-0.00357614,-0.00040691,
 -0.00120306,0.00187712,0.00018434,-0.00110947,-0.00046706,-0.00005925,
 -0.00022701,-0.00090145,0.00004876,-0.00156335,-0.00055345,0.00029433,
 -0.00006639,0.00004360,-0.00001059,-0.00015285,-0.00006917,0.00002293,
 -0.02350947,-0.03272556,-0.01958021,0.00287990,0.00098652,0.00009067,-
 0.00121297,-0.00101118,-0.00008284,-0.00322073,-0.00210119,-0.00010786
 ,-0.00614509,0.00640284,0.00383234,0.11616071,0.30775415,-0.00021521,-
 0.00054259,0.00099945,-0.00012311,-0.00000291,0.00009330,0.00011022,0.
 00000464,-0.00025687,-0.00001085,0.00012403,0.00031452,0.00000902,-0.0
 0010402,0.00204815,-0.00001897,0.00001510,-0.00024706,0.00001579,0.000
 00792,-0.00005460,0.02151710,-0.02209336,-0.03116310,-0.00023692,-0.00
 000152,-0.00035753,0.00010995,0.00007872,0.00017093,0.00028508,0.00011
 463,0.00030764,-0.00204745,0.00087651,-0.00831469,0.06582110,0.2652455
 2,0.27251598,-0.00009072,-0.00008044,-0.00012761,-0.00006430,0.0005290
 4,0.00000795,0.00003211,-0.00008995,-0.00004749,0.00006308,-0.00007681
 ,0.00014962,-0.00116094,-0.00014910,0.00065618,-0.00001099,-0.00002208
 ,-0.00004789,-0.00003147,-0.00001536,0.00000152,-0.00980554,-0.0329285
 6,-0.03289933,0.00019797,-0.00049010,-0.00005091,0.00001901,0.00023405
 ,0.00002611,-0.00011423,0.00009638,0.00001210,0.00282456,-0.00321193,0
 .00191647,-0.09891391,-0.08871679,-0.08555708,0.10845411,-0.00013888,-
 0.00112054,0.00024175,-0.00013416,0.00026237,0.00008466,0.00011545,0.0
 0002603,-0.00002911,-0.00014374,0.00023694,0.00001612,0.00046330,0.000
 17977,-0.00004520,-0.00003434,0.00001697,-0.00003412,0.00001043,0.0000
 1299,-0.00001427,0.00504511,-0.00115108,-0.00188624,-0.00021498,-0.000
 30551,-0.00007665,0.00013744,0.00020911,0.00003694,0.00027553,0.000253
 09,0.00006778,-0.00258469,0.00045655,-0.00341921,-0.12633755,-0.259485
 65,-0.24290949,0.12267125,0.26156196,0.00004380,0.00050705,0.00002038,
 0.00027201,0.00015871,-0.00004621,0.00012299,0.00010068,0.00005075,-0.
 00003972,0.00018005,-0.00001624,0.00051032,0.00004207,-0.00029753,0.00
 001618,0.00000865,0.00002860,-0.00000244,-0.00001247,0.00002761,0.0061
 0121,0.00146421,0.00110113,0.00013469,-0.00019371,0.00005747,-0.000010
 50,0.00008514,-0.00001823,-0.00007524,0.00006344,-0.00008227,0.0015176
 5,-0.00194303,0.00054025,-0.12435596,-0.24869294,-0.23965104,0.1165637
 8,0.24707355,0.23849249,-0.00201567,0.00391807,0.00067062,0.00251179,-
 0.00520549,-0.00044523,-0.00305525,-0.00083714,-0.00019167,0.00066399,
 -0.00207363,-0.00011081,0.00243269,-0.00238992,-0.00010477,-0.00026725
 ,0.00007484,-0.00001399,0.00006061,-0.00013105,-0.00000194,0.00262330,
 0.00152820,0.00010924,-0.04612047,-0.01900543,-0.00122656,0.00831034,0
 .00464969,0.00040854,-0.07009578,-0.07639682,-0.00474048,0.01393340,-0
 .00577225,-0.00084901,-0.00414974,0.00382936,-0.00028998,0.00002302,-0
 .00028474,0.00002137,0.09828745,0.00490470,0.00576711,0.00066585,0.008
 95977,-0.00763408,-0.00061509,-0.00592360,0.00057417,-0.00010878,-0.00
 208060,-0.00343104,-0.00037423,0.00251236,-0.00507903,-0.00005848,-0.0
 0049290,0.00040427,0.00001085,-0.00022835,-0.00029862,-0.00004345,0.00
 213697,0.00044885,0.00013301,-0.03259852,0.02407278,0.00271465,0.01968
 801,0.00635095,-0.00010567,-0.09549711,-0.25316765,-0.01601580,0.00282
 086,-0.01088794,-0.00187625,-0.00274554,0.00373591,-0.00024513,-0.0000
 9019,-0.00035093,-0.00004008,0.07186802,0.22609019,0.00048383,0.000546
 95,-0.00059515,0.00060187,-0.00047215,-0.00000623,-0.00038353,0.000102
 14,-0.00030074,-0.00020596,-0.00022597,0.00045520,0.00009419,-0.000242
 65,-0.00104355,-0.00003153,0.00002245,0.00003975,-0.00002697,-0.000035
 14,0.00019837,0.00004388,-0.00002820,0.00026362,-0.00151365,0.00249527
 ,-0.01002909,0.00112151,-0.00019512,0.00703143,-0.00731303,-0.01736624
 ,-0.02190627,0.00044130,0.00087901,0.00027385,-0.00009140,0.00018310,-
 0.00044013,0.00000218,-0.00011470,0.00008577,0.00419743,0.01646538,0.0
 4093159,-0.00729393,0.00171954,0.00137593,-0.00116072,0.00172844,0.000
 11163,-0.00053624,0.00022687,-0.00004529,-0.00114151,-0.00005689,-0.00
 016777,-0.00112004,-0.00000951,0.00010167,0.00006919,0.00002975,-0.000
 02313,-0.00016109,-0.00004699,-0.00003578,-0.00045659,-0.00153377,0.00
 007560,0.01270266,-0.00305962,-0.00032662,-0.00561633,-0.00260349,-0.0
 0021910,-0.02654409,-0.02922738,-0.00116222,-0.09572608,0.15161814,0.0
 0526977,0.00357925,0.00719197,0.00084513,-0.00176547,0.00113459,-0.000
 73615,-0.00028238,0.02515650,-0.00133734,0.46932401,0.00009092,-0.0033
 5484,-0.00027249,-0.00259996,0.00437174,0.00030452,0.00265730,0.000017
 42,0.00008195,0.00024820,0.00182540,0.00010541,-0.00079763,0.00244166,
 -0.00002434,0.00020831,-0.00015376,0.00000666,0.00003983,0.00007271,0.
 00000643,-0.00369853,-0.00337153,-0.00027038,0.02031167,-0.01067516,-0
 .00078966,-0.00841512,-0.00154745,-0.00022365,-0.04443890,-0.02476529,
 0.00032883,0.11690764,-0.40110860,0.04199218,0.00971795,-0.01785436,-0
 .00132357,0.00202457,-0.00054626,0.00120834,0.02451635,0.00387901,-0.0
 0811227,-0.15211230,0.50454481,0.00130336,-0.00080242,0.00199130,0.000
 15447,0.00039170,0.00000669,0.00030775,0.00009093,-0.00013073,0.000123
 49,0.00007037,-0.00024896,0.00027798,0.00016201,0.00053411,0.00004505,
 -0.00000881,-0.00010867,0.00003062,0.00002143,-0.00008676,-0.00039731,
 0.00017310,-0.00051704,0.00174215,-0.00052615,0.00023420,-0.00055679,-
 0.00015786,-0.00025002,-0.00154611,0.00159528,0.00722580,0.01790465,0.
 00956888,-0.02808478,0.00130939,-0.00158721,0.00448352,-0.00083420,0.0
 0116492,-0.00032938,0.00119912,-0.00503284,-0.01576541,-0.27336154,-0.
 01129205,0.23562154,-0.00075039,0.00031291,-0.00007217,-0.00016282,-0.
 00015160,-0.00001847,-0.00004989,-0.00004024,0.00001619,-0.00005592,0.
 00010573,0.00003933,-0.00027146,-0.00002678,-0.00012146,-0.00003275,-0
 .00000270,0.00001377,-0.00001553,-0.00001632,0.00001112,-0.00020822,0.
 00000285,0.00003911,-0.00147776,-0.00041472,-0.00003998,0.00044775,0.0
 0038893,0.00004454,0.00076143,-0.00048375,-0.00084328,-0.01079042,-0.0
 0555875,0.01091275,0.00008037,-0.00086882,-0.00021383,0.00034371,0.000
 01999,-0.00008398,-0.00286005,0.00160963,0.00391723,-0.34387063,0.0353
 3969,0.25229795,0.35891259,0.00017814,0.00069454,-0.00005545,0.0003673
 5,-0.00027706,0.00004904,-0.00012590,0.00005279,-0.00000445,-0.0000167
 6,-0.00009891,0.00001610,-0.00011339,-0.00015572,-0.00000620,0.0000098
 4,0.00000112,0.00000005,-0.00000307,-0.00000307,0.00000146,0.00018204,
 0.00049578,-0.00000409,0.00032054,-0.00013969,-0.00014869,-0.00039835,
 -0.00028430,0.00005013,-0.00277867,-0.00492964,-0.00163624,0.03178768,
 0.00551932,-0.02706476,-0.00106551,-0.00205491,0.00075553,0.00031602,-
 0.00025583,-0.00000965,0.00171195,0.00952605,0.00609815,-0.00015586,-0
 .05377551,0.00616874,-0.03021605,0.04568504,-0.00079028,0.00038755,0.0
 0032745,-0.00011454,-0.00001603,0.00000590,-0.00011994,-0.00001075,-0.
 00000259,-0.00010289,-0.00001167,-0.00002551,-0.00023301,-0.00004002,-
 0.00006933,-0.00000965,0.00000237,0.00001440,-0.00002013,-0.00000561,0
 .00000808,0.00013664,0.00001182,0.00011433,0.00043328,0.00000331,0.000
 13873,-0.00023715,-0.00012261,-0.00008473,-0.00139053,-0.00265104,-0.0
 0052527,-0.00240816,0.00339311,-0.00008845,-0.00047674,0.00062582,-0.0
 0044848,0.00022859,-0.00015674,0.00003646,0.00136812,0.00452607,0.0008
 0700,0.26963522,-0.02172591,-0.20457540,-0.26589882,0.01579033,0.20436
 740\\0.00001117,-0.00001285,-0.00000132,-0.00001465,0.00000058,0.00000
 328,0.00000070,-0.00000029,-0.00000045,0.00000220,-0.00000388,-0.00000
 057,-0.00000033,0.00000572,-0.00000015,0.00000146,-0.00000288,-0.00000
 083,-0.00000050,-0.00000226,0.00000078,-0.00001363,0.00000402,-0.00000
 230,0.00000258,0.00000188,0.00000174,0.00000229,-0.00000155,0.00000089
 ,0.00000200,-0.00000385,-0.00000146,-0.00000759,0.00002111,-0.00000019
 ,0.00000924,-0.00000124,-0.00000040,-0.00000010,-0.00000145,-0.0000008
 9,0.00000522,0.00000734,0.00000627,-0.00000278,-0.00001880,-0.00000743
 ,0.00000271,0.00000839,0.00000303\\\@


 KNIGHT- SIRE, I'VE JUST RETURNED FROM THE FRONT
 KING-   HOW GOES THE BATTLE                    
 KNIGHT- THE SITUATION IS QUITE FLUID           
 KING-   WHAT DOES *THAT* MEAN                  
 KNIGHT- WE'RE UP THE CREEK                     
                THE WIZARD OF ID                
 Job cpu time:       0 days  0 hours 30 minutes 13.8 seconds.
 Elapsed time:       0 days  0 hours  1 minutes 16.1 seconds.
 File lengths (MBytes):  RWF=     98 Int=      0 D2E=      0 Chk=      5 Scr=      1
 Normal termination of Gaussian 16 at Mon Jun  5 08:13:40 2023.
