 Entering Gaussian System, Link 0=/opt/soft/g16b/g16/g16
 Initial command:
 /opt/soft/g16b/g16/l1.exe "/scratch/gongke2021/PC/Gau-27981.inp" -scrdir="/scratch/gongke2021/PC/"
 Entering Link 1 = /opt/soft/g16b/g16/l1.exe PID=     27982.
  
 Copyright (c) 1988,1990,1992,1993,1995,1998,2003,2009,2016,
            Gaussian, Inc.  All Rights Reserved.
  
 This is part of the Gaussian(R) 16 program.  It is based on
 the Gaussian(R) 09 system (copyright 2009, Gaussian, Inc.),
 the Gaussian(R) 03 system (copyright 2003, Gaussian, Inc.),
 the Gaussian(R) 98 system (copyright 1998, Gaussian, Inc.),
 the Gaussian(R) 94 system (copyright 1995, Gaussian, Inc.),
 the Gaussian 92(TM) system (copyright 1992, Gaussian, Inc.),
 the Gaussian 90(TM) system (copyright 1990, Gaussian, Inc.),
 the Gaussian 88(TM) system (copyright 1988, Gaussian, Inc.),
 the Gaussian 86(TM) system (copyright 1986, Carnegie Mellon
 University), and the Gaussian 82(TM) system (copyright 1983,
 Carnegie Mellon University). Gaussian is a federally registered
 trademark of Gaussian, Inc.
  
 This software contains proprietary and confidential information,
 including trade secrets, belonging to Gaussian, Inc.
  
 This software is provided under written license and may be
 used, copied, transmitted, or stored only in accord with that
 written license.
  
 The following legend is applicable only to US Government
 contracts under FAR:
  
                    RESTRICTED RIGHTS LEGEND
  
 Use, reproduction and disclosure by the US Government is
 subject to restrictions as set forth in subparagraphs (a)
 and (c) of the Commercial Computer Software - Restricted
 Rights clause in FAR 52.227-19.
  
 Gaussian, Inc.
 340 Quinnipiac St., Bldg. 40, Wallingford CT 06492
  
  
 ---------------------------------------------------------------
 Warning -- This program may not be used in any manner that
 competes with the business of Gaussian, Inc. or will provide
 assistance to any competitor of Gaussian, Inc.  The licensee
 of this program is prohibited from giving any competitor of
 Gaussian, Inc. access to this program.  By using this program,
 the user acknowledges that Gaussian, Inc. is engaged in the
 business of creating and licensing software in the field of
 computational chemistry and represents and warrants to the
 licensee that it is not a competitor of Gaussian, Inc. and that
 it will not use this program in any manner prohibited above.
 ---------------------------------------------------------------
  

 Cite this work as:
 Gaussian 16, Revision A.03,
 M. J. Frisch, G. W. Trucks, H. B. Schlegel, G. E. Scuseria, 
 M. A. Robb, J. R. Cheeseman, G. Scalmani, V. Barone, 
 G. A. Petersson, H. Nakatsuji, X. Li, M. Caricato, A. V. Marenich, 
 J. Bloino, B. G. Janesko, R. Gomperts, B. Mennucci, H. P. Hratchian, 
 J. V. Ortiz, A. F. Izmaylov, J. L. Sonnenberg, D. Williams-Young, 
 F. Ding, F. Lipparini, F. Egidi, J. Goings, B. Peng, A. Petrone, 
 T. Henderson, D. Ranasinghe, V. G. Zakrzewski, J. Gao, N. Rega, 
 G. Zheng, W. Liang, M. Hada, M. Ehara, K. Toyota, R. Fukuda, 
 J. Hasegawa, M. Ishida, T. Nakajima, Y. Honda, O. Kitao, H. Nakai, 
 T. Vreven, K. Throssell, J. A. Montgomery, Jr., J. E. Peralta, 
 F. Ogliaro, M. J. Bearpark, J. J. Heyd, E. N. Brothers, K. N. Kudin, 
 V. N. Staroverov, T. A. Keith, R. Kobayashi, J. Normand, 
 K. Raghavachari, A. P. Rendell, J. C. Burant, S. S. Iyengar, 
 J. Tomasi, M. Cossi, J. M. Millam, M. Klene, C. Adamo, R. Cammi, 
 J. W. Ochterski, R. L. Martin, K. Morokuma, O. Farkas, 
 J. B. Foresman, and D. J. Fox, Gaussian, Inc., Wallingford CT, 2016.
 
 ******************************************
 Gaussian 16:  ES64L-G16RevA.03 25-Dec-2016
                 2-Jun-2023 
 ******************************************
 %mem=10GB
 %nprocshared=20
 Will use up to   20 processors via shared memory.
 ----------------------------
 # opt freq 6-31+g(d,p) m062x
 ----------------------------
 1/18=20,19=15,26=3,38=1/1,3;
 2/9=110,12=2,17=6,18=5,40=1/2;
 3/5=1,6=6,7=111,11=2,25=1,30=1,71=1,74=-55/1,2,3;
 4//1;
 5/5=2,38=5/2;
 6/7=2,8=2,9=2,10=2,28=1/1;
 7//1,2,3,16;
 1/18=20,19=15,26=3/3(2);
 2/9=110/2;
 99//99;
 2/9=110/2;
 3/5=1,6=6,7=111,11=2,25=1,30=1,71=1,74=-55/1,2,3;
 4/5=5,16=3,69=1/1;
 5/5=2,38=5/2;
 7//1,2,3,16;
 1/18=20,19=15,26=3/3(-5);
 2/9=110/2;
 6/7=2,8=2,9=2,10=2,19=2,28=1/1;
 99/9=1/99;
 ----
 test
 ----
 Symbolic Z-matrix:
 Charge =  0 Multiplicity = 1
 N                     0.6068   -0.93156  -0.00047 
 N                     0.03609   0.25478  -0.00061 
 C                     0.98711   1.19243  -0.00003 
 C                     2.17787   0.46947   0.00035 
 N                     1.89791  -0.85344   0.00017 
 H                     0.75974   2.24642  -0.00011 
 H                     3.19648   0.82363   0.00072 
 H                    -0.70959  -1.89837  -0.08068 
 C                    -1.53873   0.05769   0.00011 
 O                    -2.19624   1.05298   0.00009 
 O                    -1.69163  -1.18972   0.00029 
 
 Add virtual bond connecting atoms O11        and H8         Dist= 2.29D+00.

 GradGradGradGradGradGradGradGradGradGradGradGradGradGradGradGradGradGrad
 Berny optimization.
 Initialization pass.
                           ----------------------------
                           !    Initial Parameters    !
                           ! (Angstroms and Degrees)  !
 --------------------------                            --------------------------
 ! Name  Definition              Value          Derivative Info.                !
 --------------------------------------------------------------------------------
 ! R1    R(1,2)                  1.3165         estimate D2E/DX2                !
 ! R2    R(1,5)                  1.2935         estimate D2E/DX2                !
 ! R3    R(2,3)                  1.3355         estimate D2E/DX2                !
 ! R4    R(2,9)                  1.5871         estimate D2E/DX2                !
 ! R5    R(3,4)                  1.393          estimate D2E/DX2                !
 ! R6    R(3,6)                  1.0782         estimate D2E/DX2                !
 ! R7    R(4,5)                  1.3522         estimate D2E/DX2                !
 ! R8    R(4,7)                  1.0784         estimate D2E/DX2                !
 ! R9    R(8,11)                 1.2137         estimate D2E/DX2                !
 ! R10   R(9,10)                 1.1929         estimate D2E/DX2                !
 ! R11   R(9,11)                 1.2567         estimate D2E/DX2                !
 ! A1    A(2,1,5)              112.2283         estimate D2E/DX2                !
 ! A2    A(1,2,3)              108.9037         estimate D2E/DX2                !
 ! A3    A(1,2,9)              108.557          estimate D2E/DX2                !
 ! A4    A(3,2,9)              142.5393         estimate D2E/DX2                !
 ! A5    A(2,3,4)              104.1424         estimate D2E/DX2                !
 ! A6    A(2,3,6)              122.421          estimate D2E/DX2                !
 ! A7    A(4,3,6)              133.4366         estimate D2E/DX2                !
 ! A8    A(3,4,5)              109.3145         estimate D2E/DX2                !
 ! A9    A(3,4,7)              129.5644         estimate D2E/DX2                !
 ! A10   A(5,4,7)              121.1211         estimate D2E/DX2                !
 ! A11   A(1,5,4)              105.4112         estimate D2E/DX2                !
 ! A12   A(2,9,10)             116.3161         estimate D2E/DX2                !
 ! A13   A(2,9,11)             104.1217         estimate D2E/DX2                !
 ! A14   A(10,9,11)            139.5623         estimate D2E/DX2                !
 ! A15   A(8,11,9)             118.7559         estimate D2E/DX2                !
 ! D1    D(5,1,2,3)             -0.0003         estimate D2E/DX2                !
 ! D2    D(5,1,2,9)           -179.9429         estimate D2E/DX2                !
 ! D3    D(2,1,5,4)             -0.0047         estimate D2E/DX2                !
 ! D4    D(1,2,3,4)              0.005          estimate D2E/DX2                !
 ! D5    D(1,2,3,6)            179.9946         estimate D2E/DX2                !
 ! D6    D(9,2,3,4)            179.9155         estimate D2E/DX2                !
 ! D7    D(9,2,3,6)             -0.0949         estimate D2E/DX2                !
 ! D8    D(1,2,9,10)           179.9986         estimate D2E/DX2                !
 ! D9    D(1,2,9,11)            -0.0132         estimate D2E/DX2                !
 ! D10   D(3,2,9,10)             0.088          estimate D2E/DX2                !
 ! D11   D(3,2,9,11)          -179.9239         estimate D2E/DX2                !
 ! D12   D(2,3,4,5)             -0.0079         estimate D2E/DX2                !
 ! D13   D(2,3,4,7)            179.9911         estimate D2E/DX2                !
 ! D14   D(6,3,4,5)           -179.9958         estimate D2E/DX2                !
 ! D15   D(6,3,4,7)              0.0032         estimate D2E/DX2                !
 ! D16   D(3,4,5,1)              0.0078         estimate D2E/DX2                !
 ! D17   D(7,4,5,1)           -179.9913         estimate D2E/DX2                !
 ! D18   D(2,9,11,8)            -4.3442         estimate D2E/DX2                !
 ! D19   D(10,9,11,8)          175.6395         estimate D2E/DX2                !
 --------------------------------------------------------------------------------
 Trust Radius=3.00D-01 FncErr=1.00D-07 GrdErr=1.00D-06 EigMax=2.50D+02 EigMin=1.00D-04
 Number of steps in this run=     55 maximum allowed number of steps=    100.
 GradGradGradGradGradGradGradGradGradGradGradGradGradGradGradGradGradGrad

                          Input orientation:                          
 ---------------------------------------------------------------------
 Center     Atomic      Atomic             Coordinates (Angstroms)
 Number     Number       Type             X           Y           Z
 ---------------------------------------------------------------------
      1          7           0        0.606797   -0.931555   -0.000465
      2          7           0        0.036092    0.254784   -0.000605
      3          6           0        0.987109    1.192425   -0.000032
      4          6           0        2.177873    0.469470    0.000347
      5          7           0        1.897912   -0.853441    0.000168
      6          1           0        0.759744    2.246417   -0.000106
      7          1           0        3.196479    0.823632    0.000716
      8          1           0       -0.709591   -1.898373   -0.080679
      9          6           0       -1.538727    0.057693    0.000112
     10          8           0       -2.196236    1.052981    0.000094
     11          8           0       -1.691627   -1.189720    0.000292
 ---------------------------------------------------------------------
                    Distance matrix (angstroms):
                    1          2          3          4          5
     1  N    0.000000
     2  N    1.316474   0.000000
     3  C    2.157760   1.335516   0.000000
     4  C    2.105030   2.152514   1.393048   0.000000
     5  N    1.293476   2.166688   2.239449   1.352210   0.000000
     6  H    3.181650   2.119027   1.078237   2.273462   3.302203
     7  H    3.128440   3.211174   2.239939   1.078420   2.121049
     8  H    1.635251   2.280030   3.526801   3.735062   2.810247
     9  C    2.362601   1.587104   2.769019   3.739342   3.555370
    10  O    3.434440   2.370740   3.186398   4.412858   4.516248
    11  O    2.312878   2.252023   3.584723   4.210219   3.605256
                    6          7          8          9         10
     6  H    0.000000
     7  H    2.821701   0.000000
     8  H    4.398263   4.761650   0.000000
     9  C    3.173875   4.796753   2.126073   0.000000
    10  O    3.187806   5.397590   3.305621   1.192861   0.000000
    11  O    4.220931   5.286508   1.213730   1.256749   2.298769
                   11
    11  O    0.000000
 Stoichiometry    C3H3N3O2
 Framework group  C1[X(C3H3N3O2)]
 Deg. of freedom    27
 Full point group                 C1      NOp   1
 Largest Abelian subgroup         C1      NOp   1
 Largest concise Abelian subgroup C1      NOp   1
                         Standard orientation:                         
 ---------------------------------------------------------------------
 Center     Atomic      Atomic             Coordinates (Angstroms)
 Number     Number       Type             X           Y           Z
 ---------------------------------------------------------------------
      1          7           0       -0.605398   -0.930555   -0.003472
      2          7           0       -0.043396    0.259926    0.000006
      3          6           0       -1.001253    1.190574    0.002586
      4          6           0       -2.186691    0.458922    0.000482
      5          7           0       -1.897051   -0.861898   -0.003398
      6          1           0       -0.781612    2.246198    0.005729
      7          1           0       -3.207864    0.805614    0.001546
      8          1           0        0.718065   -1.887942    0.073368
      9          6           0        1.532824    0.074377   -0.001878
     10          8           0        2.183027    1.074449    0.000876
     11          8           0        1.694854   -1.171877   -0.005844
 ---------------------------------------------------------------------
 Rotational constants (GHZ):           5.4536863           1.7614180           1.3314482
 Standard basis: 6-31+G(d,p) (6D, 7F)
 There are   167 symmetry adapted cartesian basis functions of A   symmetry.
 There are   167 symmetry adapted basis functions of A   symmetry.
   167 basis functions,   277 primitive gaussians,   167 cartesian basis functions
    29 alpha electrons       29 beta electrons
       nuclear repulsion energy       362.2127114127 Hartrees.
 NAtoms=   11 NActive=   11 NUniq=   11 SFac= 1.00D+00 NAtFMM=   60 NAOKFM=F Big=F
 Integral buffers will be    131072 words long.
 Raffenetti 2 integral format.
 Two-electron integral symmetry is turned on.
 One-electron integrals computed using PRISM.
 NBasis=   167 RedAO= T EigKep=  2.25D-05  NBF=   167
 NBsUse=   167 1.00D-06 EigRej= -1.00D+00 NBFU=   167
 ExpMin= 4.38D-02 ExpMax= 5.48D+03 ExpMxC= 8.25D+02 IAcc=3 IRadAn=         5 AccDes= 0.00D+00
 Harris functional with IExCor= 1009 and IRadAn=       5 diagonalized for initial guess.
 HarFok:  IExCor= 1009 AccDes= 0.00D+00 IRadAn=         5 IDoV= 1 UseB2=F ITyADJ=14
 ICtDFT=  3500011 ScaDFX=  1.000000  1.000000  1.000000  1.000000
 FoFCou: FMM=F IPFlag=           0 FMFlag=      100000 FMFlg1=           0
         NFxFlg=           0 DoJE=T BraDBF=F KetDBF=T FulRan=T
         wScrn=  0.000000 ICntrl=       500 IOpCl=  0 I1Cent=   200000004 NGrid=           0
         NMat0=    1 NMatS0=      1 NMatT0=    0 NMatD0=    1 NMtDS0=    0 NMtDT0=    0
 Petite list used in FoFCou.
 Keep R1 ints in memory in canonical form, NReq=118249495.
 Requested convergence on RMS density matrix=1.00D-08 within 128 cycles.
 Requested convergence on MAX density matrix=1.00D-06.
 Requested convergence on             energy=1.00D-06.
 No special actions if energy rises.
 SCF Done:  E(RM062X) =  -430.605168712     A.U. after   14 cycles
            NFock= 14  Conv=0.97D-08     -V/T= 2.0084

 **********************************************************************

            Population analysis using the SCF density.

 **********************************************************************

 Orbital symmetries:
       Occupied  (A) (A) (A) (A) (A) (A) (A) (A) (A) (A) (A) (A)
                 (A) (A) (A) (A) (A) (A) (A) (A) (A) (A) (A) (A)
                 (A) (A) (A) (A) (A)
       Virtual   (A) (A) (A) (A) (A) (A) (A) (A) (A) (A) (A) (A)
                 (A) (A) (A) (A) (A) (A) (A) (A) (A) (A) (A) (A)
                 (A) (A) (A) (A) (A) (A) (A) (A) (A) (A) (A) (A)
                 (A) (A) (A) (A) (A) (A) (A) (A) (A) (A) (A) (A)
                 (A) (A) (A) (A) (A) (A) (A) (A) (A) (A) (A) (A)
                 (A) (A) (A) (A) (A) (A) (A) (A) (A) (A) (A) (A)
                 (A) (A) (A) (A) (A) (A) (A) (A) (A) (A) (A) (A)
                 (A) (A) (A) (A) (A) (A) (A) (A) (A) (A) (A) (A)
                 (A) (A) (A) (A) (A) (A) (A) (A) (A) (A) (A) (A)
                 (A) (A) (A) (A) (A) (A) (A) (A) (A) (A) (A) (A)
                 (A) (A) (A) (A) (A) (A) (A) (A) (A) (A) (A) (A)
                 (A) (A) (A) (A) (A) (A)
 The electronic state is 1-A.
 Alpha  occ. eigenvalues --  -19.71815 -19.67983 -14.88544 -14.86774 -14.82485
 Alpha  occ. eigenvalues --  -10.76508 -10.62930 -10.60478  -1.29245  -1.24740
 Alpha  occ. eigenvalues --   -1.19309  -1.04589  -0.93872  -0.77664  -0.74743
 Alpha  occ. eigenvalues --   -0.70906  -0.68578  -0.61239  -0.58534  -0.56704
 Alpha  occ. eigenvalues --   -0.55500  -0.55004  -0.50562  -0.43786  -0.42583
 Alpha  occ. eigenvalues --   -0.40300  -0.39561  -0.38260  -0.35022
 Alpha virt. eigenvalues --   -0.01781   0.00363   0.02299   0.03259   0.03757
 Alpha virt. eigenvalues --    0.04324   0.04609   0.05613   0.07010   0.07849
 Alpha virt. eigenvalues --    0.08595   0.08856   0.10534   0.11816   0.11997
 Alpha virt. eigenvalues --    0.14025   0.14689   0.15801   0.16875   0.19311
 Alpha virt. eigenvalues --    0.20298   0.20409   0.22350   0.22505   0.23299
 Alpha virt. eigenvalues --    0.23882   0.25017   0.26425   0.26995   0.27156
 Alpha virt. eigenvalues --    0.28801   0.28957   0.29327   0.31152   0.32335
 Alpha virt. eigenvalues --    0.32907   0.33637   0.34455   0.36498   0.39737
 Alpha virt. eigenvalues --    0.41297   0.44105   0.45727   0.49952   0.52471
 Alpha virt. eigenvalues --    0.65314   0.70002   0.72433   0.73763   0.76820
 Alpha virt. eigenvalues --    0.80270   0.85501   0.86100   0.88142   0.89793
 Alpha virt. eigenvalues --    0.91721   0.92294   0.93864   0.95469   0.96730
 Alpha virt. eigenvalues --    0.99949   1.01233   1.06027   1.10999   1.15619
 Alpha virt. eigenvalues --    1.16826   1.18997   1.20651   1.23234   1.25243
 Alpha virt. eigenvalues --    1.28094   1.30501   1.32459   1.32933   1.34729
 Alpha virt. eigenvalues --    1.36260   1.38390   1.40113   1.43061   1.43942
 Alpha virt. eigenvalues --    1.49570   1.51066   1.54519   1.56897   1.60689
 Alpha virt. eigenvalues --    1.63548   1.64964   1.69556   1.75223   1.79553
 Alpha virt. eigenvalues --    1.87418   1.88737   1.91733   1.94145   1.95463
 Alpha virt. eigenvalues --    2.01990   2.04862   2.07825   2.08766   2.14083
 Alpha virt. eigenvalues --    2.19859   2.22885   2.25177   2.28077   2.30198
 Alpha virt. eigenvalues --    2.35452   2.36941   2.39832   2.44458   2.48218
 Alpha virt. eigenvalues --    2.50091   2.54175   2.56039   2.61666   2.67356
 Alpha virt. eigenvalues --    2.70900   2.71749   2.79576   2.81258   2.83437
 Alpha virt. eigenvalues --    2.93677   2.97930   3.05241   3.09827   3.13021
 Alpha virt. eigenvalues --    3.22427   3.24508   3.29541   3.43414   3.71088
 Alpha virt. eigenvalues --    3.99502   4.17147   4.18345   4.23762   4.43113
 Alpha virt. eigenvalues --    4.55462   4.66020   4.76577
          Condensed to atoms (all electrons):
               1          2          3          4          5          6
     1  N    8.354771  -0.128042  -0.475128   0.465567  -1.062493  -0.001776
     2  N   -0.128042   7.024939   0.447829  -0.188930   0.194091  -0.040699
     3  C   -0.475128   0.447829   5.609597  -0.017794   0.244433   0.403701
     4  C    0.465567  -0.188930  -0.017794   5.597926  -0.032134  -0.019200
     5  N   -1.062493   0.194091   0.244433  -0.032134   7.774586   0.003050
     6  H   -0.001776  -0.040699   0.403701  -0.019200   0.003050   0.444938
     7  H   -0.002699  -0.014903   0.003525   0.370048  -0.030309   0.000502
     8  H    0.073344  -0.009813   0.008482  -0.008845   0.069354  -0.000005
     9  C    0.072854   0.029951  -0.065517   0.001966  -0.019879  -0.004528
    10  O    0.022727  -0.061579  -0.073289   0.028997  -0.007731   0.000167
    11  O   -0.009444  -0.156756  -0.018433   0.017903  -0.023090  -0.000836
               7          8          9         10         11
     1  N   -0.002699   0.073344   0.072854   0.022727  -0.009444
     2  N   -0.014903  -0.009813   0.029951  -0.061579  -0.156756
     3  C    0.003525   0.008482  -0.065517  -0.073289  -0.018433
     4  C    0.370048  -0.008845   0.001966   0.028997   0.017903
     5  N   -0.030309   0.069354  -0.019879  -0.007731  -0.023090
     6  H    0.000502  -0.000005  -0.004528   0.000167  -0.000836
     7  H    0.487356  -0.000001  -0.000584  -0.000052  -0.000016
     8  H   -0.000001   0.263127  -0.006299   0.001045   0.124263
     9  C   -0.000584  -0.006299   4.387548   0.528027   0.298601
    10  O   -0.000052   0.001045   0.528027   8.101844  -0.104599
    11  O   -0.000016   0.124263   0.298601  -0.104599   8.303326
 Mulliken charges:
               1
     1  N   -0.309681
     2  N   -0.096088
     3  C   -0.067405
     4  C   -0.215503
     5  N   -0.109878
     6  H    0.214687
     7  H    0.187133
     8  H    0.485349
     9  C    0.777861
    10  O   -0.435557
    11  O   -0.430918
 Sum of Mulliken charges =  -0.00000
 Mulliken charges with hydrogens summed into heavy atoms:
               1
     1  N   -0.309681
     2  N   -0.096088
     3  C    0.147282
     4  C   -0.028371
     5  N   -0.109878
     9  C    0.777861
    10  O   -0.435557
    11  O    0.054431
 Electronic spatial extent (au):  <R**2>=            819.2540
 Charge=              0.0000 electrons
 Dipole moment (field-independent basis, Debye):
    X=             -2.0463    Y=              0.7859    Z=              0.1380  Tot=              2.1963
 Quadrupole moment (field-independent basis, Debye-Ang):
   XX=            -52.3093   YY=            -42.7576   ZZ=            -45.6540
   XY=             -8.1469   XZ=              0.0914   YZ=             -0.3167
 Traceless Quadrupole moment (field-independent basis, Debye-Ang):
   XX=             -5.4023   YY=              4.1493   ZZ=              1.2530
   XY=             -8.1469   XZ=              0.0914   YZ=             -0.3167
 Octapole moment (field-independent basis, Debye-Ang**2):
  XXX=            -16.8667  YYY=             -2.1968  ZZZ=             -0.0002  XYY=              1.3247
  XXY=              7.9751  XXZ=              0.0315  XZZ=              7.2280  YZZ=             -1.4342
  YYZ=              0.7175  XYZ=             -0.2570
 Hexadecapole moment (field-independent basis, Debye-Ang**3):
 XXXX=           -739.5847 YYYY=           -231.0436 ZZZZ=            -44.1771 XXXY=            -41.6250
 XXXZ=             -0.1642 YYYX=            -23.6380 YYYZ=             -1.3345 ZZZX=              0.0219
 ZZZY=             -0.1208 XXYY=           -191.2967 XXZZ=           -133.0648 YYZZ=            -55.1849
 XXYZ=             -0.1649 YYXZ=              0.4795 ZZXY=              1.9760
 N-N= 3.622127114127D+02 E-N=-1.729874720360D+03  KE= 4.270018041777D+02
 Calling FoFJK, ICntrl=      2127 FMM=F ISym2X=0 I1Cent= 0 IOpClX= 0 NMat=1 NMatS=1 NMatT=0.
 ***** Axes restored to original set *****
 -------------------------------------------------------------------
 Center     Atomic                   Forces (Hartrees/Bohr)
 Number     Number              X              Y              Z
 -------------------------------------------------------------------
      1        7           0.013738186   -0.038071207   -0.002301441
      2        7          -0.018797354   -0.022433334   -0.000189428
      3        6           0.008878571    0.008820675    0.000121562
      4        6           0.000999150    0.009994446    0.000364961
      5        7          -0.008226489    0.010112773   -0.000665761
      6        1           0.000684201    0.000095138    0.000085123
      7        1          -0.000173499    0.001653675    0.000089626
      8        1          -0.030244417    0.076820410    0.008926442
      9        6           0.050685628    0.033342396   -0.001650003
     10        8          -0.006235188   -0.015612901    0.000859373
     11        8          -0.011308789   -0.064722072   -0.005640453
 -------------------------------------------------------------------
 Cartesian Forces:  Max     0.076820410 RMS     0.023447346

 GradGradGradGradGradGradGradGradGradGradGradGradGradGradGradGradGradGrad
 Berny optimization.
 FormGI is forming the generalized inverse of G from B-inverse, IUseBI=4.
 Internal  Forces:  Max     0.101857689 RMS     0.020803437
 Search for a local minimum.
 Step number   1 out of a maximum of   55
 All quantities printed in internal units (Hartrees-Bohrs-Radians)
 Mixed Optimization -- RFO/linear search
 Second derivative matrix not updated -- first step.
 ITU=  0
     Eigenvalues ---    0.00230   0.01579   0.01870   0.02220   0.02338
     Eigenvalues ---    0.02366   0.02489   0.03587   0.16000   0.16000
     Eigenvalues ---    0.16000   0.22739   0.23690   0.24722   0.24737
     Eigenvalues ---    0.25000   0.25000   0.25000   0.36186   0.36208
     Eigenvalues ---    0.43897   0.49983   0.56267   0.59976   0.66356
     Eigenvalues ---    0.80792   1.08494
 RFO step:  Lambda=-7.21087159D-02 EMin= 2.30000000D-03
 Linear search not attempted -- first point.
 Maximum step size (   0.300) exceeded in Quadratic search.
    -- Step size scaled by   0.573
 Iteration  1 RMS(Cart)=  0.07397838 RMS(Int)=  0.00900951
 Iteration  2 RMS(Cart)=  0.01461913 RMS(Int)=  0.00035482
 Iteration  3 RMS(Cart)=  0.00039115 RMS(Int)=  0.00007582
 Iteration  4 RMS(Cart)=  0.00000026 RMS(Int)=  0.00007582
 Variable       Old X    -DE/DX   Delta X   Delta X   Delta X     New X
                                 (Linear)    (Quad)   (Total)
    R1        2.48778   0.02768   0.00000   0.02417   0.02420   2.51197
    R2        2.44432   0.00138   0.00000   0.00150   0.00156   2.44587
    R3        2.52376   0.01272   0.00000   0.01175   0.01171   2.53547
    R4        2.99919  -0.00658   0.00000  -0.01181  -0.01181   2.98738
    R5        2.63248  -0.01069   0.00000  -0.01294  -0.01299   2.61949
    R6        2.03757  -0.00005   0.00000  -0.00007  -0.00007   2.03751
    R7        2.55531   0.00583   0.00000   0.00400   0.00401   2.55931
    R8        2.03792   0.00038   0.00000   0.00050   0.00050   2.03842
    R9        2.29362  -0.06992   0.00000  -0.12972  -0.12972   2.16390
   R10        2.25418  -0.00959   0.00000  -0.00475  -0.00475   2.24943
   R11        2.37491  -0.00695   0.00000  -0.00453  -0.00453   2.37038
    A1        1.95875  -0.01897   0.00000  -0.02857  -0.02848   1.93027
    A2        1.90073   0.00182   0.00000   0.00699   0.00696   1.90768
    A3        1.89468   0.02705   0.00000   0.04628   0.04628   1.94096
    A4        2.48778  -0.02887   0.00000  -0.05326  -0.05325   2.43453
    A5        1.81763   0.00313   0.00000   0.00460   0.00450   1.82213
    A6        2.13665  -0.00086   0.00000  -0.00057  -0.00052   2.13613
    A7        2.32891  -0.00226   0.00000  -0.00403  -0.00398   2.32493
    A8        1.90790  -0.00161   0.00000  -0.00845  -0.00849   1.89940
    A9        2.26133  -0.00085   0.00000   0.00014   0.00016   2.26149
   A10        2.11396   0.00246   0.00000   0.00830   0.00833   2.12229
   A11        1.83977   0.01564   0.00000   0.02544   0.02551   1.86528
   A12        2.03010   0.02096   0.00000   0.03730   0.03728   2.06738
   A13        1.81727  -0.01079   0.00000  -0.01920  -0.01922   1.79805
   A14        2.43582  -0.01017   0.00000  -0.01810  -0.01812   2.41770
   A15        2.07268  -0.10186   0.00000  -0.25159  -0.25159   1.82110
    D1       -0.00000   0.00029   0.00000   0.00202   0.00207   0.00206
    D2       -3.14060  -0.00046   0.00000  -0.00306  -0.00339   3.13920
    D3       -0.00008   0.00003   0.00000   0.00003  -0.00004  -0.00012
    D4        0.00009  -0.00046   0.00000  -0.00305  -0.00310  -0.00301
    D5        3.14150  -0.00034   0.00000  -0.00232  -0.00232   3.13917
    D6        3.14012   0.00078   0.00000   0.00500   0.00485  -3.13821
    D7       -0.00166   0.00090   0.00000   0.00573   0.00563   0.00397
    D8        3.14157   0.00319   0.00000   0.02291   0.02300  -3.11862
    D9       -0.00023   0.00180   0.00000   0.01411   0.01404   0.01381
   D10        0.00154   0.00197   0.00000   0.01490   0.01497   0.01651
   D11       -3.14026   0.00057   0.00000   0.00610   0.00601  -3.13426
   D12       -0.00014   0.00049   0.00000   0.00311   0.00309   0.00295
   D13        3.14144   0.00014   0.00000   0.00087   0.00090  -3.14085
   D14       -3.14152   0.00035   0.00000   0.00226   0.00219  -3.13933
   D15        0.00006  -0.00000   0.00000   0.00002  -0.00000   0.00005
   D16        0.00014  -0.00033   0.00000  -0.00198  -0.00193  -0.00180
   D17       -3.14144  -0.00001   0.00000   0.00004   0.00005  -3.14139
   D18       -0.07582   0.00690   0.00000   0.03763   0.03750  -0.03832
   D19        3.06549   0.00498   0.00000   0.02549   0.02562   3.09110
         Item               Value     Threshold  Converged?
 Maximum Force            0.101858     0.000450     NO 
 RMS     Force            0.020803     0.000300     NO 
 Maximum Displacement     0.509752     0.001800     NO 
 RMS     Displacement     0.087174     0.001200     NO 
 Predicted change in Energy=-3.284696D-02
 GradGradGradGradGradGradGradGradGradGradGradGradGradGradGradGradGradGrad

                          Input orientation:                          
 ---------------------------------------------------------------------
 Center     Atomic      Atomic             Coordinates (Angstroms)
 Number     Number       Type             X           Y           Z
 ---------------------------------------------------------------------
      1          7           0        0.626355   -1.000731   -0.015605
      2          7           0        0.034649    0.189507   -0.001460
      3          6           0        0.971144    1.150302    0.005328
      4          6           0        2.173232    0.460076   -0.001642
      5          7           0        1.913947   -0.869125   -0.015970
      6          1           0        0.722311    2.199355    0.014700
      7          1           0        3.183204    0.838906    0.000935
      8          1           0       -0.649906   -1.628624   -0.042560
      9          6           0       -1.539640    0.045617   -0.004345
     10          8           0       -2.199631    1.036163   -0.016739
     11          8           0       -1.709839   -1.197134   -0.002801
 ---------------------------------------------------------------------
                    Distance matrix (angstroms):
                    1          2          3          4          5
     1  N    0.000000
     2  N    1.329279   0.000000
     3  C    2.178592   1.341714   0.000000
     4  C    2.127670   2.155631   1.386174   0.000000
     5  N    1.294299   2.157006   2.228771   1.354330   0.000000
     6  H    3.201668   2.124295   1.078201   2.265068   3.291886
     7  H    3.149922   3.214828   2.233875   1.078685   2.128067
     8  H    1.422610   1.943169   3.217534   3.512043   2.674113
     9  C    2.405516   1.580854   2.743075   3.735934   3.572695
    10  O    3.483552   2.389365   3.172905   4.410673   4.533392
    11  O    2.344471   2.228456   3.563453   4.221918   3.638624
                    6          7          8          9         10
     6  H    0.000000
     7  H    2.811940   0.000000
     8  H    4.066901   4.558873   0.000000
     9  C    3.123360   4.789007   1.896357   0.000000
    10  O    3.145115   5.386476   3.082759   1.190346   0.000000
    11  O    4.177535   5.299749   1.145086   1.254353   2.286418
                   11
    11  O    0.000000
 Stoichiometry    C3H3N3O2
 Framework group  C1[X(C3H3N3O2)]
 Deg. of freedom    27
 Full point group                 C1      NOp   1
 Largest Abelian subgroup         C1      NOp   1
 Largest concise Abelian subgroup C1      NOp   1
                         Standard orientation:                         
 ---------------------------------------------------------------------
 Center     Atomic      Atomic             Coordinates (Angstroms)
 Number     Number       Type             X           Y           Z
 ---------------------------------------------------------------------
      1          7           0       -0.635174   -0.969740    0.004819
      2          7           0       -0.040420    0.219024   -0.004779
      3          6           0       -0.974445    1.182242   -0.006578
      4          6           0       -2.178299    0.495083   -0.001444
      5          7           0       -1.922421   -0.834829    0.006948
      6          1           0       -0.722922    2.230683   -0.011688
      7          1           0       -3.187294    0.876514   -0.001456
      8          1           0        0.639492   -1.601019    0.027894
      9          6           0        1.533496    0.071079   -0.003977
     10          8           0        2.196044    1.059864    0.012044
     11          8           0        1.700495   -1.172088   -0.011003
 ---------------------------------------------------------------------
 Rotational constants (GHZ):           5.5217889           1.7510826           1.3295263
 Standard basis: 6-31+G(d,p) (6D, 7F)
 There are   167 symmetry adapted cartesian basis functions of A   symmetry.
 There are   167 symmetry adapted basis functions of A   symmetry.
   167 basis functions,   277 primitive gaussians,   167 cartesian basis functions
    29 alpha electrons       29 beta electrons
       nuclear repulsion energy       363.0068994528 Hartrees.
 NAtoms=   11 NActive=   11 NUniq=   11 SFac= 1.00D+00 NAtFMM=   60 NAOKFM=F Big=F
 Integral buffers will be    131072 words long.
 Raffenetti 2 integral format.
 Two-electron integral symmetry is turned on.
 One-electron integrals computed using PRISM.
 NBasis=   167 RedAO= T EigKep=  2.40D-05  NBF=   167
 NBsUse=   167 1.00D-06 EigRej= -1.00D+00 NBFU=   167
 Initial guess from the checkpoint file:  "/scratch/gongke2021/PC/Gau-27982.chk"
 B after Tr=     0.000000   -0.000000    0.000000
         Rot=    0.999990    0.000292    0.000032    0.004567 Ang=   0.52 deg.
 ExpMin= 4.38D-02 ExpMax= 5.48D+03 ExpMxC= 8.25D+02 IAcc=2 IRadAn=         4 AccDes= 0.00D+00
 Harris functional with IExCor= 1009 and IRadAn=       4 diagonalized for initial guess.
 HarFok:  IExCor= 1009 AccDes= 0.00D+00 IRadAn=         4 IDoV= 1 UseB2=F ITyADJ=14
 ICtDFT=  3500011 ScaDFX=  1.000000  1.000000  1.000000  1.000000
 FoFCou: FMM=F IPFlag=           0 FMFlag=      100000 FMFlg1=           0
         NFxFlg=           0 DoJE=T BraDBF=F KetDBF=T FulRan=T
         wScrn=  0.000000 ICntrl=       500 IOpCl=  0 I1Cent=   200000004 NGrid=           0
         NMat0=    1 NMatS0=      1 NMatT0=    0 NMatD0=    1 NMtDS0=    0 NMtDT0=    0
 Petite list used in FoFCou.
 Keep R1 ints in memory in canonical form, NReq=118249495.
 Requested convergence on RMS density matrix=1.00D-08 within 128 cycles.
 Requested convergence on MAX density matrix=1.00D-06.
 Requested convergence on             energy=1.00D-06.
 No special actions if energy rises.
 SCF Done:  E(RM062X) =  -430.629453739     A.U. after   13 cycles
            NFock= 13  Conv=0.82D-08     -V/T= 2.0082
 Calling FoFJK, ICntrl=      2127 FMM=F ISym2X=0 I1Cent= 0 IOpClX= 0 NMat=1 NMatS=1 NMatT=0.
 ***** Axes restored to original set *****
 -------------------------------------------------------------------
 Center     Atomic                   Forces (Hartrees/Bohr)
 Number     Number              X              Y              Z
 -------------------------------------------------------------------
      1        7           0.004023841    0.000912790   -0.000567356
      2        7          -0.007168361    0.000222788   -0.000134177
      3        6          -0.001136301    0.004325133    0.000288247
      4        6          -0.002636405    0.002185056   -0.000108509
      5        7          -0.003234137   -0.001880132   -0.000284981
      6        1          -0.000108844    0.000169408    0.000086181
      7        1          -0.000226812   -0.000150975    0.000046537
      8        1          -0.025169076    0.008297360    0.003325715
      9        6           0.034816855    0.034145088   -0.001469200
     10        8          -0.001085239   -0.007285370    0.001140005
     11        8           0.001924477   -0.040941147   -0.002322462
 -------------------------------------------------------------------
 Cartesian Forces:  Max     0.040941147 RMS     0.012246576

 GradGradGradGradGradGradGradGradGradGradGradGradGradGradGradGradGradGrad
 Berny optimization.
 Using GEDIIS/GDIIS optimizer.
 FormGI is forming the generalized inverse of G from B-inverse, IUseBI=4.
 Internal  Forces:  Max     0.035496549 RMS     0.008901130
 Search for a local minimum.
 Step number   2 out of a maximum of   55
 All quantities printed in internal units (Hartrees-Bohrs-Radians)
 Mixed Optimization -- RFO/linear search
 Update second derivatives using D2CorX and points    1    2
 DE= -2.43D-02 DEPred=-3.28D-02 R= 7.39D-01
 TightC=F SS=  1.41D+00  RLast= 3.05D-01 DXNew= 5.0454D-01 9.1548D-01
 Trust test= 7.39D-01 RLast= 3.05D-01 DXMaxT set to 5.05D-01
 ITU=  1  0
 Use linear search instead of GDIIS.
     Eigenvalues ---    0.00231   0.01573   0.01805   0.02220   0.02338
     Eigenvalues ---    0.02367   0.02489   0.03601   0.16000   0.16000
     Eigenvalues ---    0.20196   0.21126   0.22832   0.24575   0.24736
     Eigenvalues ---    0.24815   0.24999   0.36184   0.36208   0.41555
     Eigenvalues ---    0.45604   0.50401   0.56378   0.61602   0.66365
     Eigenvalues ---    0.90569   1.08392
 RFO step:  Lambda=-1.14072788D-02 EMin= 2.30717741D-03
 Quartic linear search produced a step of  0.05770.
 Iteration  1 RMS(Cart)=  0.09301864 RMS(Int)=  0.00425744
 Iteration  2 RMS(Cart)=  0.00604791 RMS(Int)=  0.00011333
 Iteration  3 RMS(Cart)=  0.00002183 RMS(Int)=  0.00011191
 Iteration  4 RMS(Cart)=  0.00000000 RMS(Int)=  0.00011191
 Variable       Old X    -DE/DX   Delta X   Delta X   Delta X     New X
                                 (Linear)    (Quad)   (Total)
    R1        2.51197  -0.00075   0.00140   0.00250   0.00391   2.51588
    R2        2.44587  -0.00310   0.00009  -0.00459  -0.00449   2.44138
    R3        2.53547   0.00015   0.00068   0.00223   0.00291   2.53838
    R4        2.98738  -0.00992  -0.00068  -0.04173  -0.04242   2.94497
    R5        2.61949  -0.00245  -0.00075  -0.00700  -0.00776   2.61173
    R6        2.03751   0.00019  -0.00000   0.00053   0.00052   2.03803
    R7        2.55931   0.00222   0.00023   0.00490   0.00513   2.56444
    R8        2.03842  -0.00027   0.00003  -0.00067  -0.00065   2.03777
    R9        2.16390  -0.02654  -0.00748  -0.12788  -0.13537   2.02853
   R10        2.24943  -0.00547  -0.00027  -0.00607  -0.00634   2.24308
   R11        2.37038   0.03550  -0.00026   0.04474   0.04448   2.41486
    A1        1.93027  -0.00137  -0.00164  -0.01016  -0.01178   1.91849
    A2        1.90768   0.00244   0.00040   0.01060   0.01099   1.91867
    A3        1.94096   0.00718   0.00267   0.03461   0.03725   1.97821
    A4        2.43453  -0.00963  -0.00307  -0.04526  -0.04835   2.38619
    A5        1.82213  -0.00212   0.00026  -0.00798  -0.00773   1.81440
    A6        2.13613   0.00099  -0.00003   0.00373   0.00370   2.13983
    A7        2.32493   0.00113  -0.00023   0.00425   0.00403   2.32895
    A8        1.89940   0.00075  -0.00049   0.00347   0.00298   1.90238
    A9        2.26149  -0.00031   0.00001  -0.00171  -0.00170   2.25979
   A10        2.12229  -0.00044   0.00048  -0.00176  -0.00128   2.12101
   A11        1.86528   0.00029   0.00147   0.00406   0.00554   1.87083
   A12        2.06738  -0.00860   0.00215  -0.02991  -0.02778   2.03960
   A13        1.79805   0.02828  -0.00111   0.11130   0.11017   1.90821
   A14        2.41770  -0.01968  -0.00105  -0.08126  -0.08233   2.33537
   A15        1.82110   0.00396  -0.01452   0.00182  -0.01269   1.80840
    D1        0.00206  -0.00001   0.00012  -0.00007   0.00014   0.00220
    D2        3.13920  -0.00034  -0.00020  -0.00876  -0.00940   3.12980
    D3       -0.00012   0.00004  -0.00000   0.00077   0.00067   0.00055
    D4       -0.00301  -0.00002  -0.00018  -0.00064  -0.00086  -0.00388
    D5        3.13917  -0.00005  -0.00013  -0.00188  -0.00200   3.13717
    D6       -3.13821   0.00037   0.00028   0.01141   0.01149  -3.12673
    D7        0.00397   0.00034   0.00032   0.01016   0.01035   0.01432
    D8       -3.11862   0.00082   0.00133   0.03775   0.03890  -3.07971
    D9        0.01381   0.00095   0.00081   0.04796   0.04894   0.06275
   D10        0.01651   0.00041   0.00086   0.02549   0.02618   0.04269
   D11       -3.13426   0.00054   0.00035   0.03571   0.03622  -3.09803
   D12        0.00295   0.00004   0.00018   0.00109   0.00125   0.00420
   D13       -3.14085   0.00001   0.00005   0.00020   0.00029  -3.14057
   D14       -3.13933   0.00008   0.00013   0.00253   0.00257  -3.13676
   D15        0.00005   0.00005  -0.00000   0.00164   0.00161   0.00166
   D16       -0.00180  -0.00005  -0.00011  -0.00117  -0.00123  -0.00302
   D17       -3.14139  -0.00002   0.00000  -0.00037  -0.00035   3.14144
   D18       -0.03832   0.00231   0.00216   0.04283   0.04527   0.00695
   D19        3.09110   0.00269   0.00148   0.05732   0.05852  -3.13356
         Item               Value     Threshold  Converged?
 Maximum Force            0.035497     0.000450     NO 
 RMS     Force            0.008901     0.000300     NO 
 Maximum Displacement     0.405863     0.001800     NO 
 RMS     Displacement     0.092182     0.001200     NO 
 Predicted change in Energy=-6.343212D-03
 GradGradGradGradGradGradGradGradGradGradGradGradGradGradGradGradGradGrad

                          Input orientation:                          
 ---------------------------------------------------------------------
 Center     Atomic      Atomic             Coordinates (Angstroms)
 Number     Number       Type             X           Y           Z
 ---------------------------------------------------------------------
      1          7           0        0.694331   -1.018221   -0.051618
      2          7           0        0.071330    0.157562   -0.008168
      3          6           0        0.973023    1.152809    0.019453
      4          6           0        2.190940    0.499978   -0.005057
      5          7           0        1.973729   -0.838777   -0.051116
      6          1           0        0.689699    2.192892    0.052153
      7          1           0        3.188521    0.909314    0.004944
      8          1           0       -0.864679   -1.711396    0.030835
      9          6           0       -1.482120    0.034168   -0.022390
     10          8           0       -2.100327    1.047057   -0.050984
     11          8           0       -1.808620   -1.201072    0.001789
 ---------------------------------------------------------------------
                    Distance matrix (angstroms):
                    1          2          3          4          5
     1  N    0.000000
     2  N    1.331346   0.000000
     3  C    2.189998   1.343253   0.000000
     4  C    2.132354   2.147092   1.382068   0.000000
     5  N    1.291921   2.147942   2.229979   1.357043   0.000000
     6  H    3.212792   2.128047   1.078478   2.263395   3.293997
     7  H    3.152710   3.206584   2.228886   1.078343   2.129480
     8  H    1.708158   2.090607   3.403079   3.772038   2.970647
     9  C    2.417709   1.558409   2.698302   3.702520   3.564513
    10  O    3.474980   2.347154   3.075975   4.326244   4.489355
    11  O    2.510189   2.319526   3.643982   4.346275   3.800029
                    6          7          8          9         10
     6  H    0.000000
     7  H    2.809611   0.000000
     8  H    4.202381   4.826720   0.000000
     9  C    3.063077   4.752002   1.852312   0.000000
    10  O    3.017917   5.290938   3.023670   1.186988   0.000000
    11  O    4.214632   5.424497   1.073452   1.277891   2.267589
                   11
    11  O    0.000000
 Stoichiometry    C3H3N3O2
 Framework group  C1[X(C3H3N3O2)]
 Deg. of freedom    27
 Full point group                 C1      NOp   1
 Largest Abelian subgroup         C1      NOp   1
 Largest concise Abelian subgroup C1      NOp   1
                         Standard orientation:                         
 ---------------------------------------------------------------------
 Center     Atomic      Atomic             Coordinates (Angstroms)
 Number     Number       Type             X           Y           Z
 ---------------------------------------------------------------------
      1          7           0       -0.654627   -1.005437    0.025701
      2          7           0       -0.058076    0.184243   -0.009936
      3          6           0       -0.981790    1.159279   -0.029577
      4          6           0       -2.184804    0.479257   -0.008571
      5          7           0       -1.937711   -0.854608    0.027705
      6          1           0       -0.721790    2.205636   -0.055108
      7          1           0       -3.191284    0.866277   -0.014691
      8          1           0        0.919375   -1.663023   -0.063197
      9          6           0        1.497757    0.095469    0.001919
     10          8           0        2.093231    1.121680    0.037165
     11          8           0        1.851721   -1.131968   -0.031405
 ---------------------------------------------------------------------
 Rotational constants (GHZ):           5.4457316           1.7358790           1.3168305
 Standard basis: 6-31+G(d,p) (6D, 7F)
 There are   167 symmetry adapted cartesian basis functions of A   symmetry.
 There are   167 symmetry adapted basis functions of A   symmetry.
   167 basis functions,   277 primitive gaussians,   167 cartesian basis functions
    29 alpha electrons       29 beta electrons
       nuclear repulsion energy       361.3401512863 Hartrees.
 NAtoms=   11 NActive=   11 NUniq=   11 SFac= 1.00D+00 NAtFMM=   60 NAOKFM=F Big=F
 Integral buffers will be    131072 words long.
 Raffenetti 2 integral format.
 Two-electron integral symmetry is turned on.
 One-electron integrals computed using PRISM.
 NBasis=   167 RedAO= T EigKep=  2.54D-05  NBF=   167
 NBsUse=   167 1.00D-06 EigRej= -1.00D+00 NBFU=   167
 Initial guess from the checkpoint file:  "/scratch/gongke2021/PC/Gau-27982.chk"
 B after Tr=    -0.000000    0.000000   -0.000000
         Rot=    0.999914    0.000105    0.000351   -0.013144 Ang=   1.51 deg.
 ExpMin= 4.38D-02 ExpMax= 5.48D+03 ExpMxC= 8.25D+02 IAcc=2 IRadAn=         4 AccDes= 0.00D+00
 Harris functional with IExCor= 1009 and IRadAn=       4 diagonalized for initial guess.
 HarFok:  IExCor= 1009 AccDes= 0.00D+00 IRadAn=         4 IDoV= 1 UseB2=F ITyADJ=14
 ICtDFT=  3500011 ScaDFX=  1.000000  1.000000  1.000000  1.000000
 FoFCou: FMM=F IPFlag=           0 FMFlag=      100000 FMFlg1=           0
         NFxFlg=           0 DoJE=T BraDBF=F KetDBF=T FulRan=T
         wScrn=  0.000000 ICntrl=       500 IOpCl=  0 I1Cent=   200000004 NGrid=           0
         NMat0=    1 NMatS0=      1 NMatT0=    0 NMatD0=    1 NMtDS0=    0 NMtDT0=    0
 Petite list used in FoFCou.
 Keep R1 ints in memory in canonical form, NReq=118249495.
 Requested convergence on RMS density matrix=1.00D-08 within 128 cycles.
 Requested convergence on MAX density matrix=1.00D-06.
 Requested convergence on             energy=1.00D-06.
 No special actions if energy rises.
 SCF Done:  E(RM062X) =  -430.638638247     A.U. after   14 cycles
            NFock= 14  Conv=0.29D-08     -V/T= 2.0084
 Calling FoFJK, ICntrl=      2127 FMM=F ISym2X=0 I1Cent= 0 IOpClX= 0 NMat=1 NMatS=1 NMatT=0.
 ***** Axes restored to original set *****
 -------------------------------------------------------------------
 Center     Atomic                   Forces (Hartrees/Bohr)
 Number     Number              X              Y              Z
 -------------------------------------------------------------------
      1        7          -0.000573807   -0.008844924    0.000945589
      2        7          -0.025816905   -0.018890348   -0.001200353
      3        6           0.001102292    0.008427136    0.000012338
      4        6          -0.001564521    0.004602223   -0.000501431
      5        7          -0.004744227    0.000061454    0.000917876
      6        1          -0.000122769   -0.000170509    0.000054293
      7        1          -0.000151220    0.000367016   -0.000010388
      8        1          -0.035697002    0.013778925   -0.003017449
      9        6           0.041390862    0.039321360    0.000399480
     10        8          -0.008635169   -0.001995630    0.000041328
     11        8           0.034812465   -0.036656703    0.002358715
 -------------------------------------------------------------------
 Cartesian Forces:  Max     0.041390862 RMS     0.016139949

 GradGradGradGradGradGradGradGradGradGradGradGradGradGradGradGradGradGrad
 Berny optimization.
 Using GEDIIS/GDIIS optimizer.
 FormGI is forming the generalized inverse of G from B-inverse, IUseBI=4.
 Internal  Forces:  Max     0.038024102 RMS     0.009112420
 Search for a local minimum.
 Step number   3 out of a maximum of   55
 All quantities printed in internal units (Hartrees-Bohrs-Radians)
 Mixed Optimization -- RFO/linear search
 Update second derivatives using D2CorX and points    1    2    3
 DE= -9.18D-03 DEPred=-6.34D-03 R= 1.45D+00
 TightC=F SS=  1.41D+00  RLast= 2.41D-01 DXNew= 8.4853D-01 7.2228D-01
 Trust test= 1.45D+00 RLast= 2.41D-01 DXMaxT set to 7.22D-01
 ITU=  1  1  0
 Use linear search instead of GDIIS.
     Eigenvalues ---    0.00251   0.01575   0.01670   0.02101   0.02221
     Eigenvalues ---    0.02339   0.02391   0.02492   0.03958   0.16000
     Eigenvalues ---    0.16002   0.22436   0.23305   0.24558   0.24786
     Eigenvalues ---    0.24988   0.36184   0.36208   0.41758   0.45566
     Eigenvalues ---    0.50513   0.55888   0.61380   0.66162   0.74882
     Eigenvalues ---    0.92588   1.12816
 RFO step:  Lambda=-5.02110203D-02 EMin= 2.51193970D-03
 Quartic linear search produced a step of  2.00000.
 Iteration  1 RMS(Cart)=  0.20638987 RMS(Int)=  0.10677784
 Iteration  2 RMS(Cart)=  0.09694146 RMS(Int)=  0.06825268
 Iteration  3 RMS(Cart)=  0.02730082 RMS(Int)=  0.03828822
 Iteration  4 RMS(Cart)=  0.02598951 RMS(Int)=  0.00852329
 Iteration  5 RMS(Cart)=  0.00736470 RMS(Int)=  0.00102808
 Iteration  6 RMS(Cart)=  0.00000868 RMS(Int)=  0.00102805
 Iteration  7 RMS(Cart)=  0.00000000 RMS(Int)=  0.00102805
 Variable       Old X    -DE/DX   Delta X   Delta X   Delta X     New X
                                 (Linear)    (Quad)   (Total)
    R1        2.51588   0.00235   0.00781   0.02410   0.03205   2.54793
    R2        2.44138  -0.00117  -0.00899  -0.00933  -0.01802   2.42335
    R3        2.53838   0.00383   0.00582   0.02114   0.02677   2.56515
    R4        2.94497  -0.03291  -0.08483  -0.26423  -0.34906   2.59591
    R5        2.61173  -0.00413  -0.01552  -0.03228  -0.04808   2.56365
    R6        2.03803  -0.00013   0.00104   0.00021   0.00125   2.03928
    R7        2.56444   0.00516   0.01025   0.02517   0.03545   2.59990
    R8        2.03777  -0.00000  -0.00129  -0.00078  -0.00207   2.03571
    R9        2.02853  -0.03802  -0.27074  -0.48617  -0.75691   1.27162
   R10        2.24308   0.00279  -0.01269  -0.00833  -0.02102   2.22206
   R11        2.41486   0.02233   0.08896   0.11540   0.20436   2.61923
    A1        1.91849  -0.00764  -0.02356  -0.07358  -0.09658   1.82191
    A2        1.91867   0.00630   0.02197   0.05741   0.07922   1.99789
    A3        1.97821   0.00388   0.07450   0.09638   0.17079   2.14900
    A4        2.38619  -0.01017  -0.09669  -0.15368  -0.25034   2.13584
    A5        1.81440  -0.00326  -0.01546  -0.03014  -0.04611   1.76829
    A6        2.13983   0.00147   0.00741   0.01403   0.02168   2.16151
    A7        2.32895   0.00179   0.00805   0.01611   0.02441   2.35337
    A8        1.90238  -0.00013   0.00595   0.00031   0.00597   1.90836
    A9        2.25979  -0.00033  -0.00341  -0.00520  -0.00847   2.25131
   A10        2.12101   0.00047  -0.00255   0.00491   0.00249   2.12350
   A11        1.87083   0.00473   0.01109   0.04604   0.05750   1.92832
   A12        2.03960   0.01331  -0.05557   0.05223  -0.00359   2.03601
   A13        1.90821  -0.00776   0.22033   0.11027   0.33040   2.23862
   A14        2.33537  -0.00555  -0.16465  -0.16251  -0.32730   2.00807
   A15        1.80840   0.00980  -0.02539  -0.01909  -0.04448   1.76393
    D1        0.00220  -0.00006   0.00028  -0.00340  -0.00270  -0.00049
    D2        3.12980   0.00031  -0.01880   0.00154  -0.02033   3.10947
    D3        0.00055  -0.00022   0.00135  -0.00361  -0.00282  -0.00227
    D4       -0.00388   0.00030  -0.00173   0.00861   0.00683   0.00295
    D5        3.13717   0.00023  -0.00401   0.00552   0.00198   3.13915
    D6       -3.12673  -0.00043   0.02298  -0.00185   0.01944  -3.10728
    D7        0.01432  -0.00050   0.02070  -0.00494   0.01460   0.02892
    D8       -3.07971  -0.00170   0.07781  -0.03532   0.04079  -3.03893
    D9        0.06275  -0.00164   0.09789  -0.02384   0.07552   0.13827
   D10        0.04269  -0.00094   0.05237  -0.02501   0.02589   0.06858
   D11       -3.09803  -0.00088   0.07245  -0.01352   0.06063  -3.03740
   D12        0.00420  -0.00045   0.00249  -0.01093  -0.00834  -0.00414
   D13       -3.14057  -0.00004   0.00057  -0.00113  -0.00014  -3.14070
   D14       -3.13676  -0.00037   0.00514  -0.00734  -0.00266  -3.13942
   D15        0.00166   0.00005   0.00322   0.00246   0.00554   0.00721
   D16       -0.00302   0.00041  -0.00245   0.00909   0.00732   0.00430
   D17        3.14144   0.00004  -0.00071   0.00024  -0.00014   3.14129
   D18        0.00695  -0.00205   0.09054   0.00577   0.09953   0.10649
   D19       -3.13356  -0.00199   0.11704   0.01977   0.13359  -2.99998
         Item               Value     Threshold  Converged?
 Maximum Force            0.038024     0.000450     NO 
 RMS     Force            0.009112     0.000300     NO 
 Maximum Displacement     1.363219     0.001800     NO 
 RMS     Displacement     0.307522     0.001200     NO 
 Predicted change in Energy=-3.612231D-02
 GradGradGradGradGradGradGradGradGradGradGradGradGradGradGradGradGradGrad

                          Input orientation:                          
 ---------------------------------------------------------------------
 Center     Atomic      Atomic             Coordinates (Angstroms)
 Number     Number       Type             X           Y           Z
 ---------------------------------------------------------------------
      1          7           0        0.946685   -1.162164   -0.107168
      2          7           0        0.201623   -0.041493   -0.024022
      3          6           0        0.920433    1.108374    0.036825
      4          6           0        2.189541    0.632160   -0.018146
      5          7           0        2.157843   -0.740775   -0.101112
      6          1           0        0.478524    2.090589    0.104024
      7          1           0        3.119066    1.176321    0.000199
      8          1           0       -1.586063   -1.642737    0.119352
      9          6           0       -1.171969   -0.050389   -0.038387
     10          8           0       -1.705995    0.996821   -0.067141
     11          8           0       -2.023863   -1.142393    0.015417
 ---------------------------------------------------------------------
                    Distance matrix (angstroms):
                    1          2          3          4          5
     1  N    0.000000
     2  N    1.348308   0.000000
     3  C    2.275251   1.357419   0.000000
     4  C    2.184540   2.098967   1.356627   0.000000
     5  N    1.282384   2.078878   2.229251   1.375805   0.000000
     6  H    3.293050   2.153797   1.079141   2.251559   3.298304
     7  H    3.193631   3.161508   2.199988   1.077249   2.146968
     8  H    2.587871   2.404238   3.722627   4.410131   3.857327
     9  C    2.393631   1.373695   2.393018   3.430165   3.401207
    10  O    3.420458   2.172318   2.630852   3.912874   4.236702
    11  O    2.973142   2.483208   3.706115   4.571973   4.202563
                    6          7          8          9         10
     6  H    0.000000
     7  H    2.796270   0.000000
     8  H    4.266202   5.486304   0.000000
     9  C    2.707064   4.463103   1.652855   0.000000
    10  O    2.449031   4.828869   2.648855   1.175866   0.000000
    11  O    4.089250   5.641488   0.672915   1.386035   2.164277
                   11
    11  O    0.000000
 Stoichiometry    C3H3N3O2
 Framework group  C1[X(C3H3N3O2)]
 Deg. of freedom    27
 Full point group                 C1      NOp   1
 Largest Abelian subgroup         C1      NOp   1
 Largest concise Abelian subgroup C1      NOp   1
                         Standard orientation:                         
 ---------------------------------------------------------------------
 Center     Atomic      Atomic             Coordinates (Angstroms)
 Number     Number       Type             X           Y           Z
 ---------------------------------------------------------------------
      1          7           0       -0.732136   -1.176398    0.045355
      2          7           0       -0.082408    0.003743   -0.009926
      3          6           0       -0.894026    1.090801   -0.056454
      4          6           0       -2.119437    0.509724   -0.022488
      5          7           0       -1.974108   -0.857158    0.035428
      6          1           0       -0.534978    2.107473   -0.101263
      7          1           0       -3.090898    0.974947   -0.039728
      8          1           0        1.833591   -1.440233   -0.165624
      9          6           0        1.286987    0.108839    0.017482
     10          8           0        1.731641    1.196089    0.070691
     11          8           0        2.227322   -0.907300   -0.048269
 ---------------------------------------------------------------------
 Rotational constants (GHZ):           5.5674273           1.7632381           1.3409162
 Standard basis: 6-31+G(d,p) (6D, 7F)
 There are   167 symmetry adapted cartesian basis functions of A   symmetry.
 There are   167 symmetry adapted basis functions of A   symmetry.
   167 basis functions,   277 primitive gaussians,   167 cartesian basis functions
    29 alpha electrons       29 beta electrons
       nuclear repulsion energy       365.6612392151 Hartrees.
 NAtoms=   11 NActive=   11 NUniq=   11 SFac= 1.00D+00 NAtFMM=   60 NAOKFM=F Big=F
 Integral buffers will be    131072 words long.
 Raffenetti 2 integral format.
 Two-electron integral symmetry is turned on.
 One-electron integrals computed using PRISM.
 NBasis=   167 RedAO= T EigKep=  2.45D-05  NBF=   167
 NBsUse=   167 1.00D-06 EigRej= -1.00D+00 NBFU=   167
 Initial guess from the checkpoint file:  "/scratch/gongke2021/PC/Gau-27982.chk"
 B after Tr=     0.000000    0.000000    0.000000
         Rot=    0.999553   -0.001629    0.003115   -0.029689 Ang=  -3.43 deg.
 ExpMin= 4.38D-02 ExpMax= 5.48D+03 ExpMxC= 8.25D+02 IAcc=2 IRadAn=         4 AccDes= 0.00D+00
 Harris functional with IExCor= 1009 and IRadAn=       4 diagonalized for initial guess.
 HarFok:  IExCor= 1009 AccDes= 0.00D+00 IRadAn=         4 IDoV= 1 UseB2=F ITyADJ=14
 ICtDFT=  3500011 ScaDFX=  1.000000  1.000000  1.000000  1.000000
 FoFCou: FMM=F IPFlag=           0 FMFlag=      100000 FMFlg1=           0
         NFxFlg=           0 DoJE=T BraDBF=F KetDBF=T FulRan=T
         wScrn=  0.000000 ICntrl=       500 IOpCl=  0 I1Cent=   200000004 NGrid=           0
         NMat0=    1 NMatS0=      1 NMatT0=    0 NMatD0=    1 NMtDS0=    0 NMtDT0=    0
 Petite list used in FoFCou.
 Keep R1 ints in memory in canonical form, NReq=118249495.
 Requested convergence on RMS density matrix=1.00D-08 within 128 cycles.
 Requested convergence on MAX density matrix=1.00D-06.
 Requested convergence on             energy=1.00D-06.
 No special actions if energy rises.
 SCF Done:  E(RM062X) =  -430.441292692     A.U. after   15 cycles
            NFock= 15  Conv=0.98D-08     -V/T= 2.0049
 Calling FoFJK, ICntrl=      2127 FMM=F ISym2X=0 I1Cent= 0 IOpClX= 0 NMat=1 NMatS=1 NMatT=0.
 ***** Axes restored to original set *****
 -------------------------------------------------------------------
 Center     Atomic                   Forces (Hartrees/Bohr)
 Number     Number              X              Y              Z
 -------------------------------------------------------------------
      1        7           0.010525921    0.019757578    0.001765489
      2        7          -0.012187761   -0.031143759    0.001166003
      3        6           0.008621739   -0.003320410   -0.001141843
      4        6           0.010212220   -0.004093117    0.000369822
      5        7           0.014318533   -0.008409862   -0.001033280
      6        1          -0.001369924   -0.003454288   -0.000346315
      7        1           0.001577396   -0.001512505   -0.000056728
      8        1           0.582196972   -0.726537260    0.143469420
      9        6          -0.075921280    0.000083626    0.001657081
     10        8          -0.020924227    0.053861198   -0.003794735
     11        8          -0.517049588    0.704768800   -0.142054913
 -------------------------------------------------------------------
 Cartesian Forces:  Max     0.726537260 RMS     0.225822378

 GradGradGradGradGradGradGradGradGradGradGradGradGradGradGradGradGradGrad
 Berny optimization.
 Using GEDIIS/GDIIS optimizer.
 FormGI is forming the generalized inverse of G from B-inverse, IUseBI=4.
 Internal  Forces:  Max     0.941153927 RMS     0.141748691
 Search for a local minimum.
 Step number   4 out of a maximum of   55
 All quantities printed in internal units (Hartrees-Bohrs-Radians)
 Mixed Optimization -- RFO/linear search
 Update second derivatives using D2CorX and points    1    2    4    3
 DE=  1.97D-01 DEPred=-3.61D-02 R=-5.46D+00
 Trust test=-5.46D+00 RLast= 1.06D+00 DXMaxT set to 3.61D-01
 ITU= -1  1  1  0
 Use linear search instead of GDIIS.
     Eigenvalues ---    0.00251   0.01335   0.01588   0.02220   0.02335
     Eigenvalues ---    0.02369   0.02490   0.03825   0.15485   0.16000
     Eigenvalues ---    0.16016   0.22380   0.23262   0.24729   0.24982
     Eigenvalues ---    0.31363   0.36186   0.36207   0.44046   0.49599
     Eigenvalues ---    0.55192   0.59805   0.64604   0.67314   0.84770
     Eigenvalues ---    1.12185   1.38599
 RFO step:  Lambda=-7.49049961D-02 EMin= 2.51313148D-03
 Quartic linear search produced a step of -0.72133.
 Maximum step size (   0.361) exceeded in Quadratic search.
    -- Step size scaled by   0.720
 Iteration  1 RMS(Cart)=  0.09988472 RMS(Int)=  0.05989661
 Iteration  2 RMS(Cart)=  0.02685568 RMS(Int)=  0.02986589
 Iteration  3 RMS(Cart)=  0.02618149 RMS(Int)=  0.00049377
 Iteration  4 RMS(Cart)=  0.00013578 RMS(Int)=  0.00048487
 Iteration  5 RMS(Cart)=  0.00000005 RMS(Int)=  0.00048487
 Variable       Old X    -DE/DX   Delta X   Delta X   Delta X     New X
                                 (Linear)    (Quad)   (Total)
    R1        2.54793   0.00486  -0.02312   0.01779  -0.00543   2.54251
    R2        2.42335   0.00362   0.01300  -0.00527   0.00753   2.43088
    R3        2.56515   0.00665  -0.01931   0.01696  -0.00223   2.56292
    R4        2.59591   0.03149   0.25179  -0.22953   0.02226   2.61817
    R5        2.56365   0.01689   0.03468  -0.01915   0.01571   2.57936
    R6        2.03928  -0.00260  -0.00090  -0.00083  -0.00174   2.03754
    R7        2.59990  -0.00481  -0.02557   0.01621  -0.00938   2.59051
    R8        2.03571   0.00060   0.00149  -0.00047   0.00102   2.03673
    R9        1.27162   0.94115   0.54598   0.05817   0.60415   1.87577
   R10        2.22206   0.05756   0.01516   0.00512   0.02028   2.24235
   R11        2.61923  -0.02283  -0.14741   0.06783  -0.07959   2.53964
    A1        1.82191   0.02476   0.06966  -0.05310   0.01620   1.83812
    A2        1.99789  -0.02384  -0.05714   0.04235  -0.01471   1.98318
    A3        2.14900   0.00105  -0.12320   0.09669  -0.02648   2.12253
    A4        2.13584   0.02280   0.18058  -0.13944   0.04110   2.17694
    A5        1.76829   0.01033   0.03326  -0.02420   0.00940   1.77768
    A6        2.16151  -0.00789  -0.01564   0.00893  -0.00687   2.15464
    A7        2.35337  -0.00244  -0.01761   0.01523  -0.00255   2.35082
    A8        1.90836   0.00070  -0.00431   0.00014  -0.00398   1.90438
    A9        2.25131   0.00179   0.00611  -0.00377   0.00226   2.25357
   A10        2.12350  -0.00249  -0.00180   0.00357   0.00168   2.12518
   A11        1.92832  -0.01196  -0.04147   0.03474  -0.00697   1.92135
   A12        2.03601   0.03095   0.00259   0.05372   0.05637   2.09238
   A13        2.23862  -0.07493  -0.23833   0.09104  -0.14727   2.09135
   A14        2.00807   0.04401   0.23610  -0.14582   0.09026   2.09833
   A15        1.76393   0.05119   0.03208   0.00303   0.03511   1.79903
    D1       -0.00049   0.00002   0.00194  -0.00335  -0.00159  -0.00208
    D2        3.10947   0.00076   0.01466  -0.01987  -0.00358   3.10589
    D3       -0.00227   0.00019   0.00204  -0.00479  -0.00249  -0.00476
    D4        0.00295  -0.00023  -0.00492   0.00974   0.00481   0.00775
    D5        3.13915  -0.00002  -0.00143   0.00372   0.00196   3.14111
    D6       -3.10728  -0.00053  -0.01403   0.02137   0.00828  -3.09900
    D7        0.02892  -0.00031  -0.01053   0.01535   0.00544   0.03436
    D8       -3.03893   0.00053  -0.02942   0.05029   0.02155  -3.01738
    D9        0.13827  -0.00191  -0.05448   0.09209   0.03694   0.17522
   D10        0.06858   0.00046  -0.01868   0.03615   0.01815   0.08673
   D11       -3.03740  -0.00198  -0.04373   0.07796   0.03355  -3.00386
   D12       -0.00414   0.00029   0.00602  -0.01195  -0.00608  -0.01023
   D13       -3.14070   0.00008   0.00010   0.00008  -0.00012  -3.14082
   D14       -3.13942   0.00006   0.00192  -0.00484  -0.00273   3.14103
   D15        0.00721  -0.00015  -0.00400   0.00719   0.00323   0.01044
   D16        0.00430  -0.00038  -0.00528   0.01137   0.00563   0.00993
   D17        3.14129  -0.00018   0.00010   0.00036   0.00020   3.14149
   D18        0.10649  -0.00032  -0.07180   0.09794   0.02478   0.13127
   D19       -2.99998  -0.00255  -0.09636   0.13584   0.04083  -2.95915
         Item               Value     Threshold  Converged?
 Maximum Force            0.941154     0.000450     NO 
 RMS     Force            0.141749     0.000300     NO 
 Maximum Displacement     0.676013     0.001800     NO 
 RMS     Displacement     0.141886     0.001200     NO 
 Predicted change in Energy=-1.534789D-01
 GradGradGradGradGradGradGradGradGradGradGradGradGradGradGradGradGradGrad

                          Input orientation:                          
 ---------------------------------------------------------------------
 Center     Atomic      Atomic             Coordinates (Angstroms)
 Number     Number       Type             X           Y           Z
 ---------------------------------------------------------------------
      1          7           0        0.827679   -1.128858   -0.132753
      2          7           0        0.133822    0.019985   -0.038296
      3          6           0        0.918049    1.123162    0.047563
      4          6           0        2.169962    0.582405   -0.010378
      5          7           0        2.065863   -0.780727   -0.111557
      6          1           0        0.527766    2.124982    0.128781
      7          1           0        3.126758    1.077444    0.022939
      8          1           0       -1.228333   -1.785790    0.197634
      9          6           0       -1.251137    0.036785   -0.072114
     10          8           0       -1.829002    1.072328   -0.113870
     11          8           0       -1.935602   -1.117402    0.001894
 ---------------------------------------------------------------------
                    Distance matrix (angstroms):
                    1          2          3          4          5
     1  N    0.000000
     2  N    1.345436   0.000000
     3  C    2.261033   1.356238   0.000000
     4  C    2.178329   2.112572   1.364941   0.000000
     5  N    1.286369   2.092674   2.228808   1.370839   0.000000
     6  H    3.278081   2.148050   1.078221   2.257369   3.296459
     7  H    3.190262   3.174844   2.209320   1.077791   2.143918
     8  H    2.183552   2.274193   3.618214   4.147291   3.457958
     9  C    2.384088   1.385474   2.428972   3.464886   3.416485
    10  O    3.450149   2.228411   2.752259   4.030192   4.313211
    11  O    2.766583   2.361732   3.628434   4.443551   4.017205
                    6          7          8          9         10
     6  H    0.000000
     7  H    2.804157   0.000000
     8  H    4.287512   5.214925   0.000000
     9  C    2.750531   4.500886   1.842570   0.000000
    10  O    2.592550   4.957651   2.937121   1.186600   0.000000
    11  O    4.073982   5.517724   0.992616   1.343918   2.195377
                   11
    11  O    0.000000
 Stoichiometry    C3H3N3O2
 Framework group  C1[X(C3H3N3O2)]
 Deg. of freedom    27
 Full point group                 C1      NOp   1
 Largest Abelian subgroup         C1      NOp   1
 Largest concise Abelian subgroup C1      NOp   1
                         Standard orientation:                         
 ---------------------------------------------------------------------
 Center     Atomic      Atomic             Coordinates (Angstroms)
 Number     Number       Type             X           Y           Z
 ---------------------------------------------------------------------
      1          7           0       -0.701360   -1.131913    0.067969
      2          7           0       -0.057952    0.047255   -0.008092
      3          6           0       -0.889259    1.116633   -0.076964
      4          6           0       -2.116554    0.521299   -0.028115
      5          7           0       -1.953469   -0.837464    0.051670
      6          1           0       -0.542767    2.135575   -0.142240
      7          1           0       -3.093908    0.974882   -0.054092
      8          1           0        1.381113   -1.693874   -0.271745
      9          6           0        1.324986    0.123511    0.026632
     10          8           0        1.857449    1.182333    0.084932
     11          8           0        2.058800   -0.998630   -0.065192
 ---------------------------------------------------------------------
 Rotational constants (GHZ):           5.4234593           1.8037175           1.3569805
 Standard basis: 6-31+G(d,p) (6D, 7F)
 There are   167 symmetry adapted cartesian basis functions of A   symmetry.
 There are   167 symmetry adapted basis functions of A   symmetry.
   167 basis functions,   277 primitive gaussians,   167 cartesian basis functions
    29 alpha electrons       29 beta electrons
       nuclear repulsion energy       364.2922044315 Hartrees.
 NAtoms=   11 NActive=   11 NUniq=   11 SFac= 1.00D+00 NAtFMM=   60 NAOKFM=F Big=F
 Integral buffers will be    131072 words long.
 Raffenetti 2 integral format.
 Two-electron integral symmetry is turned on.
 One-electron integrals computed using PRISM.
 NBasis=   167 RedAO= T EigKep=  2.54D-05  NBF=   167
 NBsUse=   167 1.00D-06 EigRej= -1.00D+00 NBFU=   167
 Lowest energy guess from the checkpoint file:  "/scratch/gongke2021/PC/Gau-27982.chk"
 B after Tr=     0.000000    0.000000    0.000000
         Rot=    0.999877   -0.000652    0.002467   -0.015479 Ang=  -1.80 deg.
 B after Tr=     0.000000   -0.000000   -0.000000
         Rot=    0.999890    0.001903   -0.001863    0.014562 Ang=   1.70 deg.
 Keep R1 ints in memory in canonical form, NReq=118249495.
 Requested convergence on RMS density matrix=1.00D-08 within 128 cycles.
 Requested convergence on MAX density matrix=1.00D-06.
 Requested convergence on             energy=1.00D-06.
 No special actions if energy rises.
 SCF Done:  E(RM062X) =  -430.643698895     A.U. after   14 cycles
            NFock= 14  Conv=0.83D-08     -V/T= 2.0078
 Calling FoFJK, ICntrl=      2127 FMM=F ISym2X=0 I1Cent= 0 IOpClX= 0 NMat=1 NMatS=1 NMatT=0.
 ***** Axes restored to original set *****
 -------------------------------------------------------------------
 Center     Atomic                   Forces (Hartrees/Bohr)
 Number     Number              X              Y              Z
 -------------------------------------------------------------------
      1        7           0.011677090    0.015490540    0.002346023
      2        7          -0.005326284   -0.008610184    0.000137113
      3        6           0.008261634   -0.006136907   -0.002684902
      4        6           0.003946278   -0.001368311    0.001317100
      5        7           0.008367540   -0.008348845   -0.000975801
      6        1          -0.001875356   -0.001792061   -0.000423513
      7        1           0.000990790   -0.001517231   -0.000031832
      8        1          -0.019541741   -0.002042557   -0.006239370
      9        6          -0.048527382   -0.001883798    0.005916603
     10        8          -0.008409079    0.027453082   -0.004728277
     11        8           0.050436511   -0.011243730    0.005366858
 -------------------------------------------------------------------
 Cartesian Forces:  Max     0.050436511 RMS     0.014700812

 GradGradGradGradGradGradGradGradGradGradGradGradGradGradGradGradGradGrad
 Berny optimization.
 Using GEDIIS/GDIIS optimizer.
 FormGI is forming the generalized inverse of G from B-inverse, IUseBI=4.
 Internal  Forces:  Max     0.033486019 RMS     0.011060058
 Search for a local minimum.
 Step number   5 out of a maximum of   55
 All quantities printed in internal units (Hartrees-Bohrs-Radians)
 Mixed Optimization -- RFO/linear search
 Update second derivatives using D2CorX and points    3    5
 DE= -5.06D-03 DEPred=-1.53D-01 R= 3.30D-02
 Trust test= 3.30D-02 RLast= 6.30D-01 DXMaxT set to 1.81D-01
 ITU= -1 -1  1  1  0
 Use linear search instead of GDIIS.
 Linear search step of   0.195 exceeds DXMaxT=   0.181 but not scaled.
 Quartic linear search produced a step of -0.34342.
 Iteration  1 RMS(Cart)=  0.06681056 RMS(Int)=  0.00258892
 Iteration  2 RMS(Cart)=  0.00350480 RMS(Int)=  0.00020657
 Iteration  3 RMS(Cart)=  0.00000727 RMS(Int)=  0.00020650
 Iteration  4 RMS(Cart)=  0.00000000 RMS(Int)=  0.00020650
 Variable       Old X    -DE/DX   Delta X   Delta X   Delta X     New X
                                 (Linear)    (Quad)   (Total)
    R1        2.54251   0.00372  -0.00914   0.00000  -0.00917   2.53334
    R2        2.43088   0.00018   0.00360   0.00000   0.00356   2.43444
    R3        2.56292   0.00268  -0.00843   0.00000  -0.00840   2.55452
    R4        2.61817   0.02617   0.11223   0.00000   0.11223   2.73040
    R5        2.57936   0.00927   0.01112   0.00000   0.01116   2.59052
    R6        2.03754  -0.00102   0.00017   0.00000   0.00017   2.03771
    R7        2.59051  -0.00295  -0.00895   0.00000  -0.00896   2.58156
    R8        2.03673   0.00018   0.00036   0.00000   0.00036   2.03709
    R9        1.87577  -0.01378   0.05246   0.00000   0.05246   1.92823
   R10        2.24235   0.02822   0.00025   0.00000   0.00025   2.24260
   R11        2.53964  -0.00437  -0.04285   0.00000  -0.04285   2.49679
    A1        1.83812   0.01834   0.02760   0.00000   0.02752   1.86564
    A2        1.98318  -0.01762  -0.02216   0.00000  -0.02213   1.96105
    A3        2.12253   0.00287  -0.04956   0.00000  -0.04955   2.07298
    A4        2.17694   0.01477   0.07186   0.00000   0.07185   2.24880
    A5        1.77768   0.00786   0.01261   0.00000   0.01269   1.79037
    A6        2.15464  -0.00638  -0.00509   0.00000  -0.00512   2.14952
    A7        2.35082  -0.00147  -0.00751   0.00000  -0.00755   2.34327
    A8        1.90438   0.00090  -0.00069   0.00000  -0.00063   1.90375
    A9        2.25357   0.00138   0.00214   0.00000   0.00212   2.25569
   A10        2.12518  -0.00228  -0.00143   0.00000  -0.00145   2.12373
   A11        1.92135  -0.00947  -0.01735   0.00000  -0.01740   1.90395
   A12        2.09238   0.00992  -0.01813   0.00000  -0.01804   2.07434
   A13        2.09135  -0.03349  -0.06289   0.00000  -0.06282   2.02853
   A14        2.09833   0.02372   0.08141   0.00000   0.08146   2.17979
   A15        1.79903   0.02789   0.00322   0.00000   0.00322   1.80225
    D1       -0.00208   0.00030   0.00147   0.00000   0.00140  -0.00068
    D2        3.10589   0.00099   0.00821   0.00000   0.00874   3.11463
    D3       -0.00476   0.00015   0.00182   0.00000   0.00192  -0.00283
    D4        0.00775  -0.00060  -0.00399   0.00000  -0.00399   0.00376
    D5        3.14111  -0.00015  -0.00135   0.00000  -0.00146   3.13965
    D6       -3.09900  -0.00102  -0.00952   0.00000  -0.00924  -3.10824
    D7        0.03436  -0.00057  -0.00688   0.00000  -0.00672   0.02764
    D8       -3.01738   0.00044  -0.02141   0.00000  -0.02104  -3.03842
    D9        0.17522  -0.00373  -0.03862   0.00000  -0.03897   0.13625
   D10        0.08673   0.00054  -0.01513   0.00000  -0.01478   0.07196
   D11       -3.00386  -0.00364  -0.03234   0.00000  -0.03271  -3.03657
   D12       -0.01023   0.00056   0.00495   0.00000   0.00488  -0.00535
   D13       -3.14082   0.00022   0.00009   0.00000  -0.00002  -3.14083
   D14        3.14103   0.00006   0.00185   0.00000   0.00189  -3.14026
   D15        0.01044  -0.00028  -0.00301   0.00000  -0.00301   0.00743
   D16        0.00993  -0.00056  -0.00445   0.00000  -0.00460   0.00533
   D17        3.14149  -0.00023  -0.00002   0.00000  -0.00012   3.14137
   D18        0.13127  -0.00155  -0.04269   0.00000  -0.04336   0.08791
   D19       -2.95915  -0.00532  -0.05990   0.00000  -0.05923  -3.01837
         Item               Value     Threshold  Converged?
 Maximum Force            0.033486     0.000450     NO 
 RMS     Force            0.011060     0.000300     NO 
 Maximum Displacement     0.239836     0.001800     NO 
 RMS     Displacement     0.067352     0.001200     NO 
 Predicted change in Energy=-6.255975D-03
 GradGradGradGradGradGradGradGradGradGradGradGradGradGradGradGradGradGrad

                          Input orientation:                          
 ---------------------------------------------------------------------
 Center     Atomic      Atomic             Coordinates (Angstroms)
 Number     Number       Type             X           Y           Z
 ---------------------------------------------------------------------
      1          7           0        0.781159   -1.090315   -0.103477
      2          7           0        0.111514    0.068526   -0.027157
      3          6           0        0.937640    1.136488    0.038551
      4          6           0        2.179097    0.556939   -0.007573
      5          7           0        2.036002   -0.799162   -0.089702
      6          1           0        0.583555    2.152963    0.102987
      7          1           0        3.150695    1.023187    0.017965
      8          1           0       -1.101417   -1.779314    0.142697
      9          6           0       -1.332755    0.040495   -0.057678
     10          8           0       -1.924737    1.068270   -0.097344
     11          8           0       -1.894926   -1.153764    0.000574
 ---------------------------------------------------------------------
                    Distance matrix (angstroms):
                    1          2          3          4          5
     1  N    0.000000
     2  N    1.340583   0.000000
     3  C    2.236808   1.351793   0.000000
     4  C    2.162608   2.124578   1.370846   0.000000
     5  N    1.288251   2.111978   2.229257   1.366100   0.000000
     6  H    3.255845   2.141176   1.078309   2.259484   3.295720
     7  H    3.177474   3.185912   2.216049   1.077980   2.138945
[...]
    R9        1.84331   0.00005   0.00000   0.00006   0.00006   1.84337
   R10        2.25592  -0.00003   0.00000  -0.00007  -0.00007   2.25585
   R11        2.49772   0.00013   0.00000   0.00026   0.00026   2.49798
    A1        1.88214  -0.00001   0.00000  -0.00006  -0.00006   1.88208
    A2        1.93617  -0.00005   0.00000  -0.00015  -0.00015   1.93602
    A3        2.10608   0.00000   0.00000  -0.00002  -0.00002   2.10606
    A4        2.24094   0.00004   0.00000   0.00017   0.00017   2.24111
    A5        1.80586   0.00007   0.00000   0.00023   0.00023   1.80609
    A6        2.12710  -0.00003   0.00000  -0.00009  -0.00009   2.12702
    A7        2.35022  -0.00003   0.00000  -0.00014  -0.00014   2.35007
    A8        1.89917  -0.00009   0.00000  -0.00027  -0.00027   1.89890
    A9        2.26611   0.00004   0.00000   0.00010   0.00010   2.26621
   A10        2.11791   0.00005   0.00000   0.00017   0.00017   2.11808
   A11        1.90144   0.00008   0.00000   0.00025   0.00025   1.90169
   A12        2.11233   0.00005   0.00000   0.00029   0.00029   2.11262
   A13        1.96983  -0.00001   0.00000  -0.00008  -0.00008   1.96975
   A14        2.20103  -0.00004   0.00000  -0.00022  -0.00022   2.20082
   A15        1.92791   0.00011   0.00000   0.00049   0.00049   1.92840
    D1        0.00026  -0.00002   0.00000  -0.00026  -0.00026  -0.00000
    D2       -3.14050  -0.00002   0.00000  -0.00109  -0.00109   3.14159
    D3       -0.00042   0.00003   0.00000   0.00042   0.00042   0.00000
    D4        0.00001   0.00000   0.00000  -0.00001  -0.00001   0.00000
    D5       -3.14158   0.00001   0.00000  -0.00001  -0.00001  -3.14159
    D6        3.14069   0.00000   0.00000   0.00090   0.00090  -3.14159
    D7       -0.00090   0.00001   0.00000   0.00090   0.00090   0.00000
    D8        3.14137   0.00001   0.00000   0.00022   0.00022   3.14159
    D9        0.00012  -0.00002   0.00000  -0.00012  -0.00012  -0.00000
   D10        0.00076   0.00001   0.00000  -0.00077  -0.00077  -0.00000
   D11       -3.14048  -0.00002   0.00000  -0.00111  -0.00111   3.14159
   D12       -0.00026   0.00001   0.00000   0.00026   0.00026  -0.00000
   D13        3.14135   0.00000   0.00000   0.00025   0.00025  -3.14159
   D14        3.14132   0.00001   0.00000   0.00027   0.00027   3.14159
   D15       -0.00025   0.00000   0.00000   0.00025   0.00025  -0.00000
   D16        0.00044  -0.00003   0.00000  -0.00044  -0.00044  -0.00000
   D17       -3.14117  -0.00002   0.00000  -0.00043  -0.00043   3.14159
   D18        0.00016   0.00001   0.00000  -0.00016  -0.00016   0.00000
   D19       -3.14107  -0.00002   0.00000  -0.00053  -0.00053  -3.14159
         Item               Value     Threshold  Converged?
 Maximum Force            0.000133     0.000450     YES
 RMS     Force            0.000042     0.000300     YES
 Maximum Displacement     0.001384     0.001800     YES
 RMS     Displacement     0.000419     0.001200     YES
 Predicted change in Energy=-1.654004D-07
 Optimization completed.
    -- Stationary point found.
                           ----------------------------
                           !   Optimized Parameters   !
                           ! (Angstroms and Degrees)  !
 --------------------------                            --------------------------
 ! Name  Definition              Value          Derivative Info.                !
 --------------------------------------------------------------------------------
 ! R1    R(1,2)                  1.3484         -DE/DX =    0.0                 !
 ! R2    R(1,5)                  1.2832         -DE/DX =    0.0                 !
 ! R3    R(2,3)                  1.3579         -DE/DX =    0.0                 !
 ! R4    R(2,9)                  1.4323         -DE/DX =    0.0                 !
 ! R5    R(3,4)                  1.369          -DE/DX =    0.0                 !
 ! R6    R(3,6)                  1.0781         -DE/DX =    0.0                 !
 ! R7    R(4,5)                  1.3698         -DE/DX =    0.0                 !
 ! R8    R(4,7)                  1.0779         -DE/DX =    0.0                 !
 ! R9    R(8,11)                 0.9754         -DE/DX =    0.0001              !
 ! R10   R(9,10)                 1.1938         -DE/DX =    0.0                 !
 ! R11   R(9,11)                 1.3217         -DE/DX =    0.0001              !
 ! A1    A(2,1,5)              107.8386         -DE/DX =    0.0                 !
 ! A2    A(1,2,3)              110.9343         -DE/DX =    0.0                 !
 ! A3    A(1,2,9)              120.6693         -DE/DX =    0.0                 !
 ! A4    A(3,2,9)              128.3964         -DE/DX =    0.0                 !
 ! A5    A(2,3,4)              103.4683         -DE/DX =    0.0001              !
 ! A6    A(2,3,6)              121.8741         -DE/DX =    0.0                 !
 ! A7    A(4,3,6)              134.6576         -DE/DX =    0.0                 !
 ! A8    A(3,4,5)              108.8145         -DE/DX =   -0.0001              !
 ! A9    A(3,4,7)              129.8383         -DE/DX =    0.0                 !
 ! A10   A(5,4,7)              121.3472         -DE/DX =    0.0                 !
 ! A11   A(1,5,4)              108.9443         -DE/DX =    0.0001              !
 ! A12   A(2,9,10)             121.0274         -DE/DX =    0.0001              !
 ! A13   A(2,9,11)             112.8627         -DE/DX =    0.0                 !
 ! A14   A(10,9,11)            126.1099         -DE/DX =    0.0                 !
 ! A15   A(8,11,9)             110.4609         -DE/DX =    0.0001              !
 ! D1    D(5,1,2,3)              0.0151         -DE/DX =    0.0                 !
 ! D2    D(5,1,2,9)            180.0626         -DE/DX =    0.0                 !
 ! D3    D(2,1,5,4)             -0.0243         -DE/DX =    0.0                 !
 ! D4    D(1,2,3,4)              0.0006         -DE/DX =    0.0                 !
 ! D5    D(1,2,3,6)           -179.9992         -DE/DX =    0.0                 !
 ! D6    D(9,2,3,4)           -180.0516         -DE/DX =    0.0                 !
 ! D7    D(9,2,3,6)             -0.0514         -DE/DX =    0.0                 !
 ! D8    D(1,2,9,10)           179.9871         -DE/DX =    0.0                 !
 ! D9    D(1,2,9,11)             0.0068         -DE/DX =    0.0                 !
 ! D10   D(3,2,9,10)             0.0438         -DE/DX =    0.0                 !
 ! D11   D(3,2,9,11)           180.0635         -DE/DX =    0.0                 !
 ! D12   D(2,3,4,5)             -0.0151         -DE/DX =    0.0                 !
 ! D13   D(2,3,4,7)           -180.0141         -DE/DX =    0.0                 !
 ! D14   D(6,3,4,5)            179.9847         -DE/DX =    0.0                 !
 ! D15   D(6,3,4,7)             -0.0143         -DE/DX =    0.0                 !
 ! D16   D(3,4,5,1)              0.0253         -DE/DX =    0.0                 !
 ! D17   D(7,4,5,1)            180.0244         -DE/DX =    0.0                 !
 ! D18   D(2,9,11,8)             0.0093         -DE/DX =    0.0                 !
 ! D19   D(10,9,11,8)         -179.9698         -DE/DX =    0.0                 !
 --------------------------------------------------------------------------------
 GradGradGradGradGradGradGradGradGradGradGradGradGradGradGradGradGradGrad


 ----------------------------------------------------------------------

 Electric dipole moment (input orientation):
 (Debye = 10**-18 statcoulomb cm , SI units = C m)
                  (au)            (Debye)         (10**-30 SI)
   Tot        0.810385D+00      0.205979D+01      0.687073D+01
   x          0.675062D+00      0.171584D+01      0.572342D+01
   y          0.448344D+00      0.113958D+01      0.380122D+01
   z          0.164115D-02      0.417138D-02      0.139142D-01

 Dipole polarizability, Alpha (input orientation).
 (esu units = cm**3 , SI units = C**2 m**2 J**-1)
 Alpha(0;0):
               (au)            (10**-24 esu)      (10**-40 SI)
   iso        0.581219D+02      0.861278D+01      0.958301D+01
   aniso      0.372234D+02      0.551593D+01      0.613730D+01
   xx         0.756543D+02      0.112108D+02      0.124737D+02
   yx        -0.202275D+01     -0.299741D+00     -0.333507D+00
   yy         0.644281D+02      0.954727D+01      0.106228D+02
   zx        -0.957126D-01     -0.141831D-01     -0.157809D-01
   zy         0.207872D+00      0.308035D-01      0.342735D-01
   zz         0.342833D+02      0.508026D+01      0.565256D+01

 ----------------------------------------------------------------------

 Dipole orientation:
     7          1.43232046         -2.09813101          0.10293354
     7          0.00999585          0.01238917          0.22881530
     6         -0.43633574          0.67306377          2.66780166
     6          0.79506897         -1.15509937          4.02230135
     7          1.90946322         -2.80878299          2.37176345
     1         -1.54230908          2.31386276          3.15277956
     1          0.95845189         -1.39819863          6.03810803
     1          0.94928679         -1.38574571         -3.68763029
     6         -0.82579929          1.25069819         -2.02825517
     8         -2.08572857          3.11945978         -1.93089494
     8         -0.05357915          0.10271996         -4.10778238

 Electric dipole moment (dipole orientation):
 (Debye = 10**-18 statcoulomb cm , SI units = C m)
                  (au)            (Debye)         (10**-30 SI)
   Tot        0.810385D+00      0.205979D+01      0.687073D+01
   x          0.000000D+00      0.000000D+00      0.000000D+00
   y          0.000000D+00      0.000000D+00      0.000000D+00
   z          0.810385D+00      0.205979D+01      0.687073D+01

 Dipole polarizability, Alpha (dipole orientation).
 (esu units = cm**3 , SI units = C**2 m**2 J**-1)
 Alpha(0;0):
               (au)            (10**-24 esu)      (10**-40 SI)
   iso        0.581219D+02      0.861278D+01      0.958301D+01
   aniso      0.372234D+02      0.551593D+01      0.613730D+01
   xx         0.453522D+02      0.672050D+01      0.747756D+01
   yx        -0.164279D+02     -0.243437D+01     -0.270860D+01
   yy         0.586599D+02      0.869250D+01      0.967171D+01
   zx         0.332759D+01      0.493098D+00      0.548646D+00
   zy        -0.494201D+01     -0.732330D+00     -0.814827D+00
   zz         0.703537D+02      0.104253D+02      0.115998D+02

 ----------------------------------------------------------------------
 1\1\GINC-NODE2\Freq\RM062X\6-31+G(d,p)\C3H3N3O2\GONGKE2021\02-Jun-2023
 \0\\#N Geom=AllCheck Guess=TCheck SCRF=Check GenChk RM062X/6-31+G(d,p)
  Freq\\test\\0,1\N,0.7890918059,-1.0896011047,-0.017011499\N,0.0994756
 749,0.0691099999,-0.0077882135\C,0.941185794,1.1346129993,-0.001849438
 5\C,2.1835843098,0.5595502418,-0.0079911322\N,2.0398208447,-0.80268103
 23,-0.0168553242\H,0.5756625893,2.1488224395,0.0058258157\H,3.15792808
 06,1.0205988572,-0.0066807302\H,-1.1338162155,-1.819962901,-0.01670912
 98\C,-1.3328525531,0.0668544023,-0.0043137565\O,-1.9497763039,1.088836
 6377,0.0040719445\O,-1.8444785366,-1.1518273297,-0.0108567663\\Version
 =ES64L-G16RevA.03\State=1-A\HF=-430.6532888\RMSD=2.200e-09\RMSF=5.598e
 -05\ZeroPoint=0.0752061\Thermal=0.0812302\Dipole=0.6750623,0.4483443,0
 .0016411\DipoleDeriv=0.264425,-0.4682446,-0.003801,-0.4963746,-0.26501
 15,-0.0000524,-0.0039209,-0.00037,-0.1179041,-1.5806571,0.1462749,0.00
 41963,0.1528359,-0.1186155,-0.0010729,0.0042256,-0.0010363,0.0116252,0
 .4158606,-0.1416944,-0.0017239,0.2520475,-0.0335938,-0.0004898,0.00110
 25,0.0002654,-0.0333201,0.032399,0.1815025,0.0010497,0.2254832,-0.1344
 324,-0.0008328,0.0012155,-0.0007561,-0.0799011,-0.5515447,0.2772876,0.
 0026779,-0.182486,0.1366371,0.0027126,-0.0005365,0.0020303,-0.2114412,
 0.1281558,0.0168869,0.0002321,-0.0063538,0.1391855,-0.0003791,0.000049
 8,-0.000405,0.195635,0.0592891,-0.0390647,-0.0000694,-0.0196214,0.0877
 972,-0.0005674,0.0000749,-0.0004931,0.176186,0.4523973,0.056487,0.0001
 459,0.054764,0.4307858,0.000423,0.000036,0.0004822,0.3466006,2.5094679
 ,-0.0370259,-0.0048623,-0.1512253,1.9446012,0.0099066,-0.0059121,0.009
 6422,0.4686297,-1.0156078,0.2996404,0.0033277,0.443315,-0.9749638,-0.0
 048278,0.0045638,-0.004701,-0.3797271,-0.714185,-0.2920497,-0.0011731,
 -0.2723846,-1.2123898,-0.00482,-0.0008987,-0.0046584,-0.3763828\Polar=
 75.6542947,-2.0227528,64.4281497,-0.0957126,0.207872,34.2833243\Quadru
 pole=-4.0482705,2.6852729,1.3629976,6.7809422,0.0583001,-0.0062914\PG=
 C01 [X(C3H3N3O2)]\NImag=0\\0.62391368,0.11877490,0.52634625,-0.0000171
 9,0.00261287,0.11784538,-0.08724245,-0.00646342,-0.00000106,0.81667440
 ,0.06258299,-0.24785351,-0.00129685,0.06993440,0.67745105,0.00048759,-
 0.00120080,-0.07129271,-0.00096288,0.00376074,0.10942844,-0.02876139,-
 0.02883693,-0.00013340,-0.18261155,-0.09484756,-0.00041999,0.67502644,
 0.01788420,-0.10066758,-0.00083920,-0.10266602,-0.25578545,-0.00117326
 ,-0.14323984,0.88732707,0.00019546,-0.00076861,0.01738403,-0.00049184,
 -0.00120207,-0.06084632,-0.00197228,0.00549489,0.12893020,-0.04332950,
 -0.03122564,-0.00009525,-0.09719290,-0.06766240,-0.00028167,-0.3607603
 8,0.12481124,0.00137869,0.92705400,-0.11514676,-0.05915260,-0.00037347
 ,0.03907643,0.02531300,0.00005859,0.08342525,-0.16519597,-0.00082598,0
 .09870849,0.59210768,-0.00069150,-0.00051997,0.02338505,0.00044022,0.0
 0023069,0.00874778,0.00109547,-0.00088253,-0.06878723,-0.00073985,0.00
 290638,0.13550422,-0.40804312,-0.05473452,0.00010154,-0.16356121,0.064
 89883,0.00075203,0.02785481,0.00688088,0.00003434,-0.11718368,0.005412
 02,0.00012588,0.64729585,-0.11062287,-0.12729856,-0.00006687,0.0016446
 2,-0.02878954,-0.00039932,0.09712786,-0.05201655,-0.00063134,-0.003659
 29,-0.27867608,-0.00136729,-0.00079875,0.50092919,-0.00028720,-0.00014
 741,-0.09272248,0.00033041,-0.00050562,0.02823447,0.00065401,-0.000495
 36,0.01795504,0.00004726,-0.00138906,-0.07184059,-0.00083913,0.0026284
 3,0.11389616,-0.00547534,-0.00517661,-0.00001499,0.01288969,-0.0244822
 2,-0.00019645,-0.09515778,0.11185104,0.00089007,0.00664406,0.01905024,
 0.00012069,-0.00430509,0.00533071,0.00005517,0.08450313,-0.00185181,-0
 .00029044,-0.00004214,0.00941393,-0.01700387,-0.00011659,0.09983544,-0
 .33823009,-0.00230609,-0.00114054,0.00276715,0.00001424,-0.00161477,0.
 00070558,-0.00003868,-0.10644797,0.35267448,0.00001046,-0.00003482,0.0
 0630904,0.00003601,-0.00006289,-0.00249071,0.00081570,-0.00232687,-0.0
 3069341,-0.00002317,-0.00001483,0.00098335,0.00000470,-0.00005295,0.00
 656592,-0.00084472,0.00247070,0.02316445,0.00261000,0.00194962,0.00002
 410,-0.00321502,0.00189627,0.00003312,-0.00870822,-0.01261901,-0.00007
 221,-0.32067910,-0.12040268,-0.00028604,0.00407921,0.00025971,-0.00001
 793,-0.00020108,0.00029073,-0.00000190,0.32619088,-0.00299767,-0.00726
 227,-0.00009561,0.00557388,-0.00283035,-0.00007474,0.01302127,0.012281
 32,0.00006167,-0.11481815,-0.10952831,-0.00031012,-0.02960431,-0.00734
 975,0.00004204,-0.00059222,-0.00026916,0.00001456,0.12941444,0.1135481
 1,-0.00001047,-0.00010753,0.00780115,0.00005341,-0.00006674,0.00676288
 ,0.00010350,0.00010812,-0.00009599,-0.00024567,-0.00029777,-0.03168576
 ,-0.00021891,-0.00001104,-0.00643834,-0.00000767,0.00001352,-0.0022822
 4,0.00032432,0.00036088,0.02471913,0.00156001,-0.01022253,-0.00007532,
 -0.00834845,-0.00669270,-0.00002344,0.00344651,0.00439424,0.00002513,-
 0.00097179,0.00411487,0.00003554,-0.00410428,0.00177798,0.00000848,0.0
 0040158,0.00009413,-0.00000023,-0.00014670,0.00049993,0.00000425,0.272
 32161,-0.00185267,0.00051704,0.00001908,0.00104833,-0.00181713,-0.0000
 1491,-0.00054300,-0.00253892,-0.00001662,0.00148236,-0.00041425,-0.000
 01081,0.00169060,0.00098815,0.00001491,-0.00000814,-0.00007724,-0.0000
 0099,0.00011634,-0.00002913,-0.00000174,-0.21879573,0.28537557,-0.0000
 1775,0.00004214,-0.00113084,0.00002972,-0.00000056,0.00041369,-0.00001
 272,-0.00002371,-0.00042040,0.00001159,-0.00001924,0.00094214,0.000015
 46,0.00001153,-0.00208134,-0.00000103,-0.00000141,0.00007828,0.0000015
 4,-0.00000370,0.00028105,-0.00197694,0.00221891,0.01316672,-0.05043224
 ,0.03514515,0.00031048,-0.18462882,-0.01689163,0.00019346,-0.03546037,
 -0.02058258,-0.00008876,0.01203824,-0.01812315,-0.00013530,0.03206880,
 0.01176126,0.00004477,0.00208324,0.00087226,-0.00000157,0.00061000,-0.
 00080544,-0.00000175,0.02820986,0.02887068,0.00009615,0.66275761,0.017
 24418,0.01656065,0.00017513,-0.02437302,-0.12278926,-0.00042607,-0.027
 14285,0.01159816,0.00019672,-0.00708116,-0.01074469,-0.00008820,0.0126
 6593,-0.01125473,-0.00014182,-0.00235542,-0.00196192,-0.00000127,-0.00
 080521,0.00072360,-0.00000899,-0.00153248,-0.04042602,-0.00021671,-0.2
 2531403,1.09678163,0.00019832,0.00013025,-0.01435778,0.00019031,-0.000
 44946,-0.05183990,-0.00013680,0.00018679,-0.00800878,-0.00007178,-0.00
 006096,0.00284153,0.00001755,-0.00014466,0.00773800,-0.00002163,-0.000
 00845,-0.00097128,-0.00000421,-0.00000565,0.00199327,-0.00008732,-0.00
 028994,-0.00569430,-0.00263932,0.00642082,0.20960893,0.00160467,-0.015
 63325,-0.00009637,-0.06045059,0.06113812,0.00060858,0.00645446,0.00516
 472,0.00002458,-0.00099818,0.00490409,0.00003773,-0.01146635,0.0016531
 2,0.00002291,-0.00116955,0.00065277,0.00000506,-0.00015250,0.00002952,
 0.00000030,-0.00217625,-0.00423207,-0.00000451,-0.30105272,0.32517821,
 0.00272273,0.33814789,0.00049785,0.00778089,0.00001479,0.04338757,-0.0
 0950037,-0.00030373,-0.00514595,-0.00539361,-0.00002758,0.00365038,-0.
 00233824,-0.00002301,0.00450430,0.00352688,0.00003075,0.00165949,0.001
 20590,0.00000844,0.00014637,0.00006533,0.00000123,-0.01142672,-0.00190
 465,-0.00003131,0.31769421,-0.62392174,-0.00441018,-0.38052221,0.72938
 458,0.00000983,0.00005859,0.00510194,0.00048207,-0.00034448,0.01871421
 ,-0.00004972,-0.00005172,0.00035876,0.00002919,-0.00003133,0.00047676,
 0.00005801,0.00003457,-0.00230156,0.00001267,0.00001100,-0.00058905,0.
 00000113,0.00000143,-0.00016815,-0.00005477,-0.00004400,0.00662920,0.0
 0267226,-0.00443515,-0.08287558,-0.00329699,0.00556058,0.03747827,-0.0
 0640433,-0.00357675,-0.00000255,-0.04231309,-0.04987410,-0.00019033,-0
 .00132254,0.00812113,0.00007682,-0.00462076,-0.00101881,-0.00000283,-0
 .00263495,-0.00447437,-0.00001875,-0.00021287,-0.00010418,-0.00000034,
 -0.00038747,0.00027874,-0.00000131,-0.29019209,0.19222330,0.00185850,-
 0.16619360,-0.06648415,-0.00016785,0.03125911,0.02555471,0.00013632,0.
 48302258,0.01548766,-0.00867986,-0.00010773,-0.03657668,-0.01639457,-0
 .00010991,0.00634631,0.00862162,0.00002500,-0.00306530,0.00586230,0.00
 005061,-0.00930021,-0.00076459,0.00000183,0.00117110,0.00047962,0.0000
 0091,-0.00024658,0.00065060,0.00001004,0.23778900,-0.23967342,-0.00197
 594,-0.11262674,-0.31456568,-0.00136856,0.00166697,-0.09890497,-0.0007
 5949,-0.10064552,0.66336894,0.00012245,-0.00006471,0.00167722,-0.00010
 636,-0.00006276,0.01416816,0.00005621,0.00000285,0.00422410,-0.0000093
 1,0.00004766,-0.00056726,-0.00005147,-0.00000107,0.00099472,0.00000791
 ,0.00000390,-0.00007434,-0.00000194,0.00000924,-0.00088702,0.00214463,
 -0.00187390,-0.01218420,-0.00045042,-0.00147445,-0.05843410,-0.0000240
 2,-0.00081999,0.01717519,-0.00168768,0.00423323,0.03390752\\0.00001468
 ,0.00003003,-0.00007342,0.00004967,0.00001486,0.00001478,-0.00000255,0
 .00005223,0.00001250,-0.00014245,-0.00000656,-0.00002563,0.00005715,-0
 .00009173,0.00007840,-0.00000533,0.00001538,0.00000234,-0.00001239,-0.
 00001191,-0.00001233,-0.00000023,0.00007908,0.00000775,-0.00000313,-0.
 00019045,-0.00003795,0.00002110,0.00005243,0.00002020,0.00002348,0.000
 05665,0.00001338\\\@


 LIVE PURE, SPEAK TRUE, RIGHT WRONG, FOLLOW THE KING...
 ELSE, WHEREFORE BORN......
           IDYLLS OF THE KING, TENNYSON
 Job cpu time:       0 days  0 hours 24 minutes 24.2 seconds.
 Elapsed time:       0 days  0 hours  1 minutes 13.9 seconds.
 File lengths (MBytes):  RWF=     39 Int=      0 D2E=      0 Chk=      3 Scr=      1
 Normal termination of Gaussian 16 at Fri Jun  2 04:09:56 2023.
