 Entering Gaussian System, Link 0=/opt/soft/g16/g16
 Initial command:
 /opt/soft/g16/l1.exe "/scratch/gongke2021/RC/Gau-10054.inp" -scrdir="/scratch/gongke2021/RC/"
 Entering Link 1 = /opt/soft/g16/l1.exe PID=     10055.
  
 Copyright (c) 1988,1990,1992,1993,1995,1998,2003,2009,2016,
            Gaussian, Inc.  All Rights Reserved.
  
 This is part of the Gaussian(R) 16 program.  It is based on
 the Gaussian(R) 09 system (copyright 2009, Gaussian, Inc.),
 the Gaussian(R) 03 system (copyright 2003, Gaussian, Inc.),
 the Gaussian(R) 98 system (copyright 1998, Gaussian, Inc.),
 the Gaussian(R) 94 system (copyright 1995, Gaussian, Inc.),
 the Gaussian 92(TM) system (copyright 1992, Gaussian, Inc.),
 the Gaussian 90(TM) system (copyright 1990, Gaussian, Inc.),
 the Gaussian 88(TM) system (copyright 1988, Gaussian, Inc.),
 the Gaussian 86(TM) system (copyright 1986, Carnegie Mellon
 University), and the Gaussian 82(TM) system (copyright 1983,
 Carnegie Mellon University). Gaussian is a federally registered
 trademark of Gaussian, Inc.
  
 This software contains proprietary and confidential information,
 including trade secrets, belonging to Gaussian, Inc.
  
 This software is provided under written license and may be
 used, copied, transmitted, or stored only in accord with that
 written license.
  
 The following legend is applicable only to US Government
 contracts under FAR:
  
                    RESTRICTED RIGHTS LEGEND
  
 Use, reproduction and disclosure by the US Government is
 subject to restrictions as set forth in subparagraphs (a)
 and (c) of the Commercial Computer Software - Restricted
 Rights clause in FAR 52.227-19.
  
 Gaussian, Inc.
 340 Quinnipiac St., Bldg. 40, Wallingford CT 06492
  
  
 ---------------------------------------------------------------
 Warning -- This program may not be used in any manner that
 competes with the business of Gaussian, Inc. or will provide
 assistance to any competitor of Gaussian, Inc.  The licensee
 of this program is prohibited from giving any competitor of
 Gaussian, Inc. access to this program.  By using this program,
 the user acknowledges that Gaussian, Inc. is engaged in the
 business of creating and licensing software in the field of
 computational chemistry and represents and warrants to the
 licensee that it is not a competitor of Gaussian, Inc. and that
 it will not use this program in any manner prohibited above.
 ---------------------------------------------------------------
  

 Cite this work as:
 Gaussian 16, Revision A.03,
 M. J. Frisch, G. W. Trucks, H. B. Schlegel, G. E. Scuseria, 
 M. A. Robb, J. R. Cheeseman, G. Scalmani, V. Barone, 
 G. A. Petersson, H. Nakatsuji, X. Li, M. Caricato, A. V. Marenich, 
 J. Bloino, B. G. Janesko, R. Gomperts, B. Mennucci, H. P. Hratchian, 
 J. V. Ortiz, A. F. Izmaylov, J. L. Sonnenberg, D. Williams-Young, 
 F. Ding, F. Lipparini, F. Egidi, J. Goings, B. Peng, A. Petrone, 
 T. Henderson, D. Ranasinghe, V. G. Zakrzewski, J. Gao, N. Rega, 
 G. Zheng, W. Liang, M. Hada, M. Ehara, K. Toyota, R. Fukuda, 
 J. Hasegawa, M. Ishida, T. Nakajima, Y. Honda, O. Kitao, H. Nakai, 
 T. Vreven, K. Throssell, J. A. Montgomery, Jr., J. E. Peralta, 
 F. Ogliaro, M. J. Bearpark, J. J. Heyd, E. N. Brothers, K. N. Kudin, 
 V. N. Staroverov, T. A. Keith, R. Kobayashi, J. Normand, 
 K. Raghavachari, A. P. Rendell, J. C. Burant, S. S. Iyengar, 
 J. Tomasi, M. Cossi, J. M. Millam, M. Klene, C. Adamo, R. Cammi, 
 J. W. Ochterski, R. L. Martin, K. Morokuma, O. Farkas, 
 J. B. Foresman, and D. J. Fox, Gaussian, Inc., Wallingford CT, 2016.
 
 ******************************************
 Gaussian 16:  ES64L-G16RevA.03 25-Dec-2016
                 4-Jun-2023 
 ******************************************
 %mem=10GB
 %nprocshared=24
 Will use up to   24 processors via shared memory.
 ----------------------------
 # opt freq 6-31+g(d,p) m062x
 ----------------------------
 1/18=20,19=15,26=3,38=1/1,3;
 2/9=110,12=2,17=6,18=5,40=1/2;
 3/5=1,6=6,7=111,11=2,25=1,30=1,71=1,74=-55/1,2,3;
 4//1;
 5/5=2,38=5/2;
 6/7=2,8=2,9=2,10=2,28=1/1;
 7//1,2,3,16;
 1/18=20,19=15,26=3/3(2);
 2/9=110/2;
 99//99;
 2/9=110/2;
 3/5=1,6=6,7=111,11=2,25=1,30=1,71=1,74=-55/1,2,3;
 4/5=5,16=3,69=1/1;
 5/5=2,38=5/2;
 7//1,2,3,16;
 1/18=20,19=15,26=3/3(-5);
 2/9=110/2;
 6/7=2,8=2,9=2,10=2,19=2,28=1/1;
 99/9=1/99;
 ----
 test
 ----
 Symbolic Z-matrix:
 Charge = -1 Multiplicity = 2
 N                    -0.7585   -1.04543   0.29844 
 N                     0.03582   0.10544   0.34414 
 C                    -0.81032   1.16094   0.08555 
 C                    -2.04206   0.61337  -0.19919 
 N                    -2.02951  -0.73554  -0.15354 
 H                    -0.43513   2.17026   0.08257 
 H                    -2.95249   1.13659  -0.46027 
 H                    -0.26221  -1.79193  -0.18915 
 C                     1.47858   0.00853  -0.01646 
 O                     2.04805   1.10501  -0.06258 
 O                     1.8467   -1.16542  -0.19689 
 H                     0.94223  -3.4456   -0.84797 
 O                     0.73912  -2.7597   -0.19441 
 H                     1.56144  -2.45969   0.20596 
 
 Add virtual bond connecting atoms O13        and H8         Dist= 2.63D+00.
 Add virtual bond connecting atoms H14        and O11        Dist= 2.62D+00.

 GradGradGradGradGradGradGradGradGradGradGradGradGradGradGradGradGradGrad
 Berny optimization.
 Initialization pass.
                           ----------------------------
                           !    Initial Parameters    !
                           ! (Angstroms and Degrees)  !
 --------------------------                            --------------------------
 ! Name  Definition              Value          Derivative Info.                !
 --------------------------------------------------------------------------------
 ! R1    R(1,2)                  1.3991         estimate D2E/DX2                !
 ! R2    R(1,5)                  1.3841         estimate D2E/DX2                !
 ! R3    R(1,8)                  1.0204         estimate D2E/DX2                !
 ! R4    R(2,3)                  1.3773         estimate D2E/DX2                !
 ! R5    R(2,9)                  1.4903         estimate D2E/DX2                !
 ! R6    R(3,4)                  1.3777         estimate D2E/DX2                !
 ! R7    R(3,6)                  1.0768         estimate D2E/DX2                !
 ! R8    R(4,5)                  1.3497         estimate D2E/DX2                !
 ! R9    R(4,7)                  1.082          estimate D2E/DX2                !
 ! R10   R(8,13)                 1.3926         estimate D2E/DX2                !
 ! R11   R(9,10)                 1.2364         estimate D2E/DX2                !
 ! R12   R(9,11)                 1.2435         estimate D2E/DX2                !
 ! R13   R(11,14)                1.3852         estimate D2E/DX2                !
 ! R14   R(12,13)                0.9689         estimate D2E/DX2                !
 ! R15   R(13,14)                0.9626         estimate D2E/DX2                !
 ! A1    A(2,1,5)              110.3547         estimate D2E/DX2                !
 ! A2    A(2,1,8)              109.952          estimate D2E/DX2                !
 ! A3    A(5,1,8)              117.024          estimate D2E/DX2                !
 ! A4    A(1,2,3)              105.9898         estimate D2E/DX2                !
 ! A5    A(1,2,9)              119.2244         estimate D2E/DX2                !
 ! A6    A(3,2,9)              126.81           estimate D2E/DX2                !
 ! A7    A(2,3,4)              106.4675         estimate D2E/DX2                !
 ! A8    A(2,3,6)              120.318          estimate D2E/DX2                !
 ! A9    A(4,3,6)              133.1164         estimate D2E/DX2                !
 ! A10   A(3,4,5)              112.4515         estimate D2E/DX2                !
 ! A11   A(3,4,7)              127.5845         estimate D2E/DX2                !
 ! A12   A(5,4,7)              119.9499         estimate D2E/DX2                !
 ! A13   A(1,5,4)              104.084          estimate D2E/DX2                !
 ! A14   A(1,8,13)             149.305          estimate D2E/DX2                !
 ! A15   A(2,9,10)             113.4067         estimate D2E/DX2                !
 ! A16   A(2,9,11)             112.5257         estimate D2E/DX2                !
 ! A17   A(10,9,11)            134.0657         estimate D2E/DX2                !
 ! A18   A(9,11,14)            141.1644         estimate D2E/DX2                !
 ! A19   A(8,13,12)            130.1825         estimate D2E/DX2                !
 ! A20   A(8,13,14)            113.3357         estimate D2E/DX2                !
 ! A21   A(12,13,14)           108.7901         estimate D2E/DX2                !
 ! A22   A(11,14,13)           110.2536         estimate D2E/DX2                !
 ! D1    D(5,1,2,3)              7.8384         estimate D2E/DX2                !
 ! D2    D(5,1,2,9)           -143.1465         estimate D2E/DX2                !
 ! D3    D(8,1,2,3)            138.399          estimate D2E/DX2                !
 ! D4    D(8,1,2,9)            -12.5859         estimate D2E/DX2                !
 ! D5    D(2,1,5,4)             -8.0928         estimate D2E/DX2                !
 ! D6    D(8,1,5,4)           -134.8051         estimate D2E/DX2                !
 ! D7    D(2,1,8,13)            74.2948         estimate D2E/DX2                !
 ! D8    D(5,1,8,13)          -158.7954         estimate D2E/DX2                !
 ! D9    D(1,2,3,4)             -4.2488         estimate D2E/DX2                !
 ! D10   D(1,2,3,6)            178.8969         estimate D2E/DX2                !
 ! D11   D(9,2,3,4)            143.8328         estimate D2E/DX2                !
 ! D12   D(9,2,3,6)            -33.0216         estimate D2E/DX2                !
 ! D13   D(1,2,9,10)           173.5297         estimate D2E/DX2                !
 ! D14   D(1,2,9,11)            -6.9059         estimate D2E/DX2                !
 ! D15   D(3,2,9,10)            29.1482         estimate D2E/DX2                !
 ! D16   D(3,2,9,11)          -151.2874         estimate D2E/DX2                !
 ! D17   D(2,3,4,5)             -0.7497         estimate D2E/DX2                !
 ! D18   D(2,3,4,7)           -179.3659         estimate D2E/DX2                !
 ! D19   D(6,3,4,5)            175.5296         estimate D2E/DX2                !
 ! D20   D(6,3,4,7)             -3.0866         estimate D2E/DX2                !
 ! D21   D(3,4,5,1)              5.4167         estimate D2E/DX2                !
 ! D22   D(7,4,5,1)           -175.8489         estimate D2E/DX2                !
 ! D23   D(1,8,13,12)          173.2178         estimate D2E/DX2                !
 ! D24   D(1,8,13,14)          -41.3451         estimate D2E/DX2                !
 ! D25   D(2,9,11,14)          -28.8427         estimate D2E/DX2                !
 ! D26   D(10,9,11,14)         150.601          estimate D2E/DX2                !
 ! D27   D(9,11,14,13)          73.4118         estimate D2E/DX2                !
 ! D28   D(8,13,14,11)         -42.2857         estimate D2E/DX2                !
 ! D29   D(12,13,14,11)        110.4677         estimate D2E/DX2                !
 --------------------------------------------------------------------------------
 Trust Radius=3.00D-01 FncErr=1.00D-07 GrdErr=1.00D-06 EigMax=2.50D+02 EigMin=1.00D-04
 Number of steps in this run=     76 maximum allowed number of steps=    100.
 GradGradGradGradGradGradGradGradGradGradGradGradGradGradGradGradGradGrad

                          Input orientation:                          
 ---------------------------------------------------------------------
 Center     Atomic      Atomic             Coordinates (Angstroms)
 Number     Number       Type             X           Y           Z
 ---------------------------------------------------------------------
      1          7           0       -0.758500   -1.045433    0.298439
      2          7           0        0.035823    0.105438    0.344135
      3          6           0       -0.810319    1.160941    0.085546
      4          6           0       -2.042061    0.613365   -0.199190
      5          7           0       -2.029507   -0.735535   -0.153535
      6          1           0       -0.435132    2.170262    0.082572
      7          1           0       -2.952494    1.136589   -0.460271
      8          1           0       -0.262206   -1.791934   -0.189153
      9          6           0        1.478576    0.008533   -0.016462
     10          8           0        2.048046    1.105012   -0.062580
     11          8           0        1.846696   -1.165417   -0.196892
     12          1           0        0.942234   -3.445596   -0.847969
     13          8           0        0.739116   -2.759699   -0.194412
     14          1           0        1.561438   -2.459692    0.205962
 ---------------------------------------------------------------------
                    Distance matrix (angstroms):
                    1          2          3          4          5
     1  N    0.000000
     2  N    1.399122   0.000000
     3  C    2.217227   1.377284   0.000000
     4  C    2.155638   2.206987   1.377716   0.000000
     5  N    1.384116   2.284841   2.267201   1.349731   0.000000
     6  H    3.239114   2.133943   1.076802   2.255114   3.322865
     7  H    3.185980   3.261960   2.210752   1.082042   2.109701
     8  H    1.020450   1.993298   3.015851   2.992231   2.059272
     9  C    2.492893   1.490288   2.564662   3.576884   3.588742
    10  O    3.554075   2.283332   2.862747   4.121814   4.474631
    11  O    2.654580   2.277508   3.542801   4.276272   3.900209
    12  H    3.157140   3.853899   5.016281   5.079576   4.081411
    13  O    2.329048   2.998944   4.224990   4.371788   3.429895
    14  H    2.718601   2.987722   4.329978   4.753213   3.999605
                    6          7          8          9         10
     6  H    0.000000
     7  H    2.774936   0.000000
     8  H    3.975265   3.985900   0.000000
     9  C    2.888799   4.593894   2.510344   0.000000
    10  O    2.705919   5.016429   3.707503   1.236402   0.000000
    11  O    4.051123   5.329242   2.200012   1.243473   2.283294
    12  H    5.856697   6.026246   2.149259   3.593059   4.748440
    13  O    5.075440   5.373986   1.392567   2.870815   4.082483
    14  H    5.043609   5.809706   1.981841   2.479612   3.607772
                   11         12         13         14
    11  O    0.000000
    12  H    2.537945   0.000000
    13  O    1.941256   0.968942   0.000000
    14  H    1.385212   1.570411   0.962558   0.000000
 Stoichiometry    C3H5N3O3(1-,2)
 Framework group  C1[X(C3H5N3O3)]
 Deg. of freedom    36
 Full point group                 C1      NOp   1
 Largest Abelian subgroup         C1      NOp   1
 Largest concise Abelian subgroup C1      NOp   1
                         Standard orientation:                         
 ---------------------------------------------------------------------
 Center     Atomic      Atomic             Coordinates (Angstroms)
 Number     Number       Type             X           Y           Z
 ---------------------------------------------------------------------
      1          7           0       -0.529603   -0.938002    0.359626
      2          7           0       -0.311433    0.443972    0.350122
      3          6           0       -1.524016    1.017353    0.037411
      4          6           0       -2.391437   -0.020893   -0.222834
      5          7           0       -1.798733   -1.228291   -0.110286
      6          1           0       -1.621488    2.088467   -0.014711
      7          1           0       -3.432087    0.045206   -0.511785
      8          1           0        0.251767   -1.416973   -0.089112
      9          6           0        1.039811    0.964868   -0.001680
     10          8           0        1.080901    2.196610   -0.100738
     11          8           0        1.882919    0.058921   -0.122743
     12          1           0        2.067412   -2.414175   -0.662119
     13          8           0        1.572627   -1.855753   -0.043895
     14          1           0        2.175057   -1.212470    0.343122
 ---------------------------------------------------------------------
 Rotational constants (GHZ):           2.4064357           1.6535666           1.0016964
 Standard basis: 6-31+G(d,p) (6D, 7F)
 There are   196 symmetry adapted cartesian basis functions of A   symmetry.
 There are   196 symmetry adapted basis functions of A   symmetry.
   196 basis functions,   323 primitive gaussians,   196 cartesian basis functions
    35 alpha electrons       34 beta electrons
       nuclear repulsion energy       469.1859637444 Hartrees.
 NAtoms=   14 NActive=   14 NUniq=   14 SFac= 1.00D+00 NAtFMM=   60 NAOKFM=F Big=F
 Integral buffers will be    131072 words long.
 Raffenetti 2 integral format.
 Two-electron integral symmetry is turned on.
 One-electron integrals computed using PRISM.
 NBasis=   196 RedAO= T EigKep=  4.31D-05  NBF=   196
 NBsUse=   196 1.00D-06 EigRej= -1.00D+00 NBFU=   196
 ExpMin= 4.38D-02 ExpMax= 5.48D+03 ExpMxC= 8.25D+02 IAcc=3 IRadAn=         5 AccDes= 0.00D+00
 Harris functional with IExCor= 1009 and IRadAn=       5 diagonalized for initial guess.
 HarFok:  IExCor= 1009 AccDes= 0.00D+00 IRadAn=         5 IDoV= 1 UseB2=F ITyADJ=14
 ICtDFT=  3500011 ScaDFX=  1.000000  1.000000  1.000000  1.000000
 FoFCou: FMM=F IPFlag=           0 FMFlag=      100000 FMFlg1=           0
         NFxFlg=           0 DoJE=T BraDBF=F KetDBF=T FulRan=T
         wScrn=  0.000000 ICntrl=       500 IOpCl=  0 I1Cent=   200000004 NGrid=           0
         NMat0=    1 NMatS0=      1 NMatT0=    0 NMatD0=    1 NMtDS0=    0 NMtDT0=    0
 Petite list used in FoFCou.
 Initial guess <Sx>= 0.0000 <Sy>= 0.0000 <Sz>= 0.5000 <S**2>= 0.7500 S= 0.5000
 Requested convergence on RMS density matrix=1.00D-08 within 128 cycles.
 Requested convergence on MAX density matrix=1.00D-06.
 Requested convergence on             energy=1.00D-06.
 No special actions if energy rises.
 SCF Done:  E(UM062X) =  -506.992037750     A.U. after   19 cycles
            NFock= 19  Conv=0.75D-08     -V/T= 2.0066
 <Sx>= 0.0000 <Sy>= 0.0000 <Sz>= 0.5000 <S**2>= 0.7651 S= 0.5075
 <L.S>=  0.00000000000    
 Annihilation of the first spin contaminant:
 S**2 before annihilation     0.7651,   after     0.7501

 **********************************************************************

            Population analysis using the SCF density.

 **********************************************************************

 Orbital symmetries:
 Alpha Orbitals:
       Occupied  (A) (A) (A) (A) (A) (A) (A) (A) (A) (A) (A) (A)
                 (A) (A) (A) (A) (A) (A) (A) (A) (A) (A) (A) (A)
                 (A) (A) (A) (A) (A) (A) (A) (A) (A) (A) (A)
       Virtual   (A) (A) (A) (A) (A) (A) (A) (A) (A) (A) (A) (A)
                 (A) (A) (A) (A) (A) (A) (A) (A) (A) (A) (A) (A)
                 (A) (A) (A) (A) (A) (A) (A) (A) (A) (A) (A) (A)
                 (A) (A) (A) (A) (A) (A) (A) (A) (A) (A) (A) (A)
                 (A) (A) (A) (A) (A) (A) (A) (A) (A) (A) (A) (A)
                 (A) (A) (A) (A) (A) (A) (A) (A) (A) (A) (A) (A)
                 (A) (A) (A) (A) (A) (A) (A) (A) (A) (A) (A) (A)
                 (A) (A) (A) (A) (A) (A) (A) (A) (A) (A) (A) (A)
                 (A) (A) (A) (A) (A) (A) (A) (A) (A) (A) (A) (A)
                 (A) (A) (A) (A) (A) (A) (A) (A) (A) (A) (A) (A)
                 (A) (A) (A) (A) (A) (A) (A) (A) (A) (A) (A) (A)
                 (A) (A) (A) (A) (A) (A) (A) (A) (A) (A) (A) (A)
                 (A) (A) (A) (A) (A) (A) (A) (A) (A) (A) (A) (A)
                 (A) (A) (A) (A) (A)
 Beta  Orbitals:
       Occupied  (A) (A) (A) (A) (A) (A) (A) (A) (A) (A) (A) (A)
                 (A) (A) (A) (A) (A) (A) (A) (A) (A) (A) (A) (A)
                 (A) (A) (A) (A) (A) (A) (A) (A) (A) (A)
       Virtual   (A) (A) (A) (A) (A) (A) (A) (A) (A) (A) (A) (A)
                 (A) (A) (A) (A) (A) (A) (A) (A) (A) (A) (A) (A)
                 (A) (A) (A) (A) (A) (A) (A) (A) (A) (A) (A) (A)
                 (A) (A) (A) (A) (A) (A) (A) (A) (A) (A) (A) (A)
                 (A) (A) (A) (A) (A) (A) (A) (A) (A) (A) (A) (A)
                 (A) (A) (A) (A) (A) (A) (A) (A) (A) (A) (A) (A)
                 (A) (A) (A) (A) (A) (A) (A) (A) (A) (A) (A) (A)
                 (A) (A) (A) (A) (A) (A) (A) (A) (A) (A) (A) (A)
                 (A) (A) (A) (A) (A) (A) (A) (A) (A) (A) (A) (A)
                 (A) (A) (A) (A) (A) (A) (A) (A) (A) (A) (A) (A)
                 (A) (A) (A) (A) (A) (A) (A) (A) (A) (A) (A) (A)
                 (A) (A) (A) (A) (A) (A) (A) (A) (A) (A) (A) (A)
                 (A) (A) (A) (A) (A) (A) (A) (A) (A) (A) (A) (A)
                 (A) (A) (A) (A) (A) (A)
 The electronic state is 2-A.
 Alpha  occ. eigenvalues --  -19.48026 -19.43679 -19.43557 -14.65741 -14.64603
 Alpha  occ. eigenvalues --  -14.61471 -10.52082 -10.42205 -10.42044  -1.05164
 Alpha  occ. eigenvalues --   -1.00539  -0.99025  -0.92320  -0.82734  -0.75287
 Alpha  occ. eigenvalues --   -0.59102  -0.54598  -0.52162  -0.51133  -0.41914
 Alpha  occ. eigenvalues --   -0.40008  -0.38744  -0.36301  -0.34864  -0.33471
 Alpha  occ. eigenvalues --   -0.32593  -0.26443  -0.25791  -0.22730  -0.20581
 Alpha  occ. eigenvalues --   -0.19244  -0.18208  -0.17683  -0.14773  -0.01575
 Alpha virt. eigenvalues --    0.13899   0.16087   0.16659   0.17927   0.18506
 Alpha virt. eigenvalues --    0.19072   0.19483   0.21500   0.22527   0.23530
 Alpha virt. eigenvalues --    0.25018   0.26203   0.27004   0.27893   0.28182
 Alpha virt. eigenvalues --    0.29543   0.30890   0.32591   0.34117   0.35926
 Alpha virt. eigenvalues --    0.36297   0.36893   0.37981   0.39051   0.39327
 Alpha virt. eigenvalues --    0.39838   0.40562   0.41274   0.41541   0.42226
 Alpha virt. eigenvalues --    0.43895   0.44348   0.45268   0.45793   0.46318
 Alpha virt. eigenvalues --    0.47648   0.48197   0.49376   0.50150   0.50726
 Alpha virt. eigenvalues --    0.52489   0.53601   0.55628   0.56756   0.57215
 Alpha virt. eigenvalues --    0.61734   0.62302   0.63980   0.67045   0.69339
 Alpha virt. eigenvalues --    0.81436   0.87797   0.90776   0.94554   0.96717
 Alpha virt. eigenvalues --    0.98413   1.03880   1.04467   1.05460   1.08164
 Alpha virt. eigenvalues --    1.09229   1.10782   1.12480   1.14128   1.17701
 Alpha virt. eigenvalues --    1.18007   1.19873   1.22658   1.22851   1.25383
 Alpha virt. eigenvalues --    1.29167   1.31746   1.32372   1.34233   1.34914
 Alpha virt. eigenvalues --    1.38489   1.40195   1.43093   1.44514   1.47178
 Alpha virt. eigenvalues --    1.50505   1.51857   1.53686   1.56347   1.58048
 Alpha virt. eigenvalues --    1.58828   1.60195   1.61194   1.63906   1.65569
 Alpha virt. eigenvalues --    1.67677   1.70638   1.73202   1.77012   1.78067
 Alpha virt. eigenvalues --    1.83958   1.84480   1.92831   1.94972   1.97540
 Alpha virt. eigenvalues --    2.00084   2.00605   2.03473   2.06499   2.10240
 Alpha virt. eigenvalues --    2.12574   2.15995   2.19407   2.22104   2.23893
 Alpha virt. eigenvalues --    2.25580   2.26561   2.31080   2.34764   2.40129
 Alpha virt. eigenvalues --    2.41236   2.43331   2.44370   2.46970   2.50739
 Alpha virt. eigenvalues --    2.53865   2.58707   2.60742   2.67079   2.67858
 Alpha virt. eigenvalues --    2.70405   2.71000   2.75190   2.79747   2.81119
 Alpha virt. eigenvalues --    2.83899   2.85608   2.88353   2.92469   2.96677
 Alpha virt. eigenvalues --    2.99990   3.02295   3.06679   3.07900   3.19519
 Alpha virt. eigenvalues --    3.22260   3.24646   3.30524   3.32983   3.38757
 Alpha virt. eigenvalues --    3.44890   3.47657   3.56727   3.67271   3.86936
 Alpha virt. eigenvalues --    3.92366   3.98540   4.24004   4.37892   4.48783
 Alpha virt. eigenvalues --    4.56589   4.62668   4.63577   4.74671   4.83775
 Alpha virt. eigenvalues --    4.93018
  Beta  occ. eigenvalues --  -19.48003 -19.43632 -19.43517 -14.65331 -14.64119
  Beta  occ. eigenvalues --  -14.60947 -10.52056 -10.42303 -10.41875  -1.04668
  Beta  occ. eigenvalues --   -0.99817  -0.98672  -0.92181  -0.81220  -0.74314
  Beta  occ. eigenvalues --   -0.57756  -0.54166  -0.51947  -0.50432  -0.40930
  Beta  occ. eigenvalues --   -0.39380  -0.37666  -0.35983  -0.34387  -0.33074
  Beta  occ. eigenvalues --   -0.31219  -0.25824  -0.25415  -0.21267  -0.18234
  Beta  occ. eigenvalues --   -0.17466  -0.16427  -0.15250  -0.14450
  Beta virt. eigenvalues --    0.13558   0.14890   0.15754   0.16074   0.17693
  Beta virt. eigenvalues --    0.18264   0.18862   0.19547   0.20785   0.21615
  Beta virt. eigenvalues --    0.23089   0.24472   0.25561   0.26908   0.27530
  Beta virt. eigenvalues --    0.28137   0.29312   0.30824   0.32468   0.34206
  Beta virt. eigenvalues --    0.35849   0.36306   0.36745   0.38056   0.39005
  Beta virt. eigenvalues --    0.39131   0.39845   0.40342   0.41175   0.41299
  Beta virt. eigenvalues --    0.42289   0.43855   0.44410   0.45147   0.45751
  Beta virt. eigenvalues --    0.46520   0.47256   0.48023   0.49175   0.49777
  Beta virt. eigenvalues --    0.50612   0.52361   0.53419   0.55872   0.56748
  Beta virt. eigenvalues --    0.57164   0.61656   0.62779   0.64501   0.67141
  Beta virt. eigenvalues --    0.69613   0.81701   0.88027   0.89935   0.95692
  Beta virt. eigenvalues --    0.96947   0.98532   1.04049   1.04830   1.05802
  Beta virt. eigenvalues --    1.08301   1.09464   1.11101   1.12529   1.16005
  Beta virt. eigenvalues --    1.17996   1.19666   1.20218   1.23247   1.23700
  Beta virt. eigenvalues --    1.25751   1.29524   1.31977   1.32380   1.34393
  Beta virt. eigenvalues --    1.35089   1.38724   1.40576   1.43363   1.44742
  Beta virt. eigenvalues --    1.47567   1.50790   1.51941   1.53954   1.56447
  Beta virt. eigenvalues --    1.58198   1.58942   1.60559   1.61703   1.64437
  Beta virt. eigenvalues --    1.66053   1.68150   1.70812   1.73844   1.77651
  Beta virt. eigenvalues --    1.78340   1.84073   1.84745   1.92981   1.95066
  Beta virt. eigenvalues --    1.97819   2.00261   2.00897   2.03813   2.06872
  Beta virt. eigenvalues --    2.10502   2.12809   2.16295   2.19659   2.22352
  Beta virt. eigenvalues --    2.24026   2.25966   2.27110   2.31662   2.35106
  Beta virt. eigenvalues --    2.40777   2.42023   2.43551   2.44971   2.47313
  Beta virt. eigenvalues --    2.50893   2.54257   2.59037   2.60956   2.67409
  Beta virt. eigenvalues --    2.68266   2.70892   2.71366   2.75458   2.80029
  Beta virt. eigenvalues --    2.81517   2.84182   2.85937   2.88843   2.92868
  Beta virt. eigenvalues --    2.96951   3.00539   3.02613   3.07250   3.08272
  Beta virt. eigenvalues --    3.19855   3.22649   3.24756   3.30822   3.33115
  Beta virt. eigenvalues --    3.39006   3.45184   3.47836   3.56785   3.67310
  Beta virt. eigenvalues --    3.87313   3.92500   3.98853   4.24482   4.38046
  Beta virt. eigenvalues --    4.48806   4.56827   4.62616   4.63580   4.75093
  Beta virt. eigenvalues --    4.84479   4.93053
          Condensed to atoms (all electrons):
               1          2          3          4          5          6
     1  N    8.905400  -1.114162  -0.497288   0.515593  -0.827245   0.015643
     2  N   -1.114162   8.429461  -0.066251  -0.051022   0.284385  -0.043460
     3  C   -0.497288  -0.066251   7.018101  -0.783695   0.370046   0.412899
     4  C    0.515593  -0.051022  -0.783695   6.285193  -0.161363  -0.038038
     5  N   -0.827245   0.284385   0.370046  -0.161363   7.680891  -0.005387
     6  H    0.015643  -0.043460   0.412899  -0.038038  -0.005387   0.497574
     7  H    0.029393  -0.018170  -0.020598   0.384162  -0.065201   0.000529
     8  H    0.390722  -0.071678   0.007529   0.007691  -0.052596  -0.000159
     9  C   -0.143004   0.357040  -0.291629   0.030467   0.009297  -0.003258
    10  O    0.016055  -0.182794  -0.007327   0.015593   0.004421  -0.003201
    11  O    0.221612  -0.471414   0.096871  -0.014386   0.019382  -0.000618
    12  H    0.012350  -0.003942   0.001564  -0.001609   0.005793  -0.000000
    13  O   -0.253995   0.140038  -0.020700   0.000863  -0.006129   0.000162
    14  H   -0.002031   0.014124   0.001558  -0.001256   0.002560  -0.000001
               7          8          9         10         11         12
     1  N    0.029393   0.390722  -0.143004   0.016055   0.221612   0.012350
     2  N   -0.018170  -0.071678   0.357040  -0.182794  -0.471414  -0.003942
     3  C   -0.020598   0.007529  -0.291629  -0.007327   0.096871   0.001564
     4  C    0.384162   0.007691   0.030467   0.015593  -0.014386  -0.001609
     5  N   -0.065201  -0.052596   0.009297   0.004421   0.019382   0.005793
     6  H    0.000529  -0.000159  -0.003258  -0.003201  -0.000618  -0.000000
     7  H    0.572273  -0.000202  -0.000630  -0.000173   0.000070  -0.000000
     8  H   -0.000202   0.335181  -0.000012   0.001722   0.013132   0.002800
     9  C   -0.000630  -0.000012   4.561457   0.461088   0.236502  -0.000115
    10  O   -0.000173   0.001722   0.461088   8.430578  -0.105434   0.000283
    11  O    0.000070   0.013132   0.236502  -0.105434   9.250592   0.027964
    12  H   -0.000000   0.002800  -0.000115   0.000283   0.027964   0.383348
    13  O    0.000097  -0.100736   0.063483  -0.006213  -0.597365   0.232940
    14  H   -0.000000   0.003861  -0.003668   0.000392   0.032687  -0.014341
              13         14
     1  N   -0.253995  -0.002031
     2  N    0.140038   0.014124
     3  C   -0.020700   0.001558
     4  C    0.000863  -0.001256
     5  N   -0.006129   0.002560
     6  H    0.000162  -0.000001
     7  H    0.000097  -0.000000
     8  H   -0.100736   0.003861
     9  C    0.063483  -0.003668
    10  O   -0.006213   0.000392
    11  O   -0.597365   0.032687
    12  H    0.232940  -0.014341
    13  O    9.047522   0.269167
    14  H    0.269167   0.278372
          Atomic-Atomic Spin Densities.
               1          2          3          4          5          6
     1  N    0.501069  -0.317423   0.379969  -0.080883  -0.210783  -0.003846
     2  N   -0.317423   0.688438  -0.452356   0.047033   0.121174   0.004072
     3  C    0.379969  -0.452356   0.528820   0.083924  -0.180336  -0.005938
     4  C   -0.080883   0.047033   0.083924  -0.203278  -0.002777   0.003250
     5  N   -0.210783   0.121174  -0.180336  -0.002777   0.656470   0.001281
     6  H   -0.003846   0.004072  -0.005938   0.003250   0.001281  -0.013205
     7  H    0.000102   0.001333   0.000354   0.001825  -0.002597   0.000012
     8  H    0.073592  -0.062676   0.019915  -0.005896  -0.020185   0.000002
     9  C   -0.179822   0.214461  -0.114545   0.006678   0.031613   0.001764
    10  O    0.019706  -0.033837   0.029847  -0.000408  -0.003298   0.000198
    11  O    0.066054  -0.073426   0.041254  -0.006654  -0.013885   0.000051
    12  H    0.001430  -0.000917   0.000304  -0.000140  -0.000369  -0.000000
    13  O   -0.041704   0.043996  -0.032325   0.009353   0.016184   0.000004
    14  H   -0.001908   0.001003   0.000527  -0.000121   0.000038   0.000000
               7          8          9         10         11         12
     1  N    0.000102   0.073592  -0.179822   0.019706   0.066054   0.001430
     2  N    0.001333  -0.062676   0.214461  -0.033837  -0.073426  -0.000917
     3  C    0.000354   0.019915  -0.114545   0.029847   0.041254   0.000304
     4  C    0.001825  -0.005896   0.006678  -0.000408  -0.006654  -0.000140
     5  N   -0.002597  -0.020185   0.031613  -0.003298  -0.013885  -0.000369
     6  H    0.000012   0.000002   0.001764   0.000198   0.000051  -0.000000
     7  H    0.003454   0.000000   0.000072   0.000003  -0.000003   0.000000
     8  H    0.000000   0.032200  -0.014102   0.000591   0.011317  -0.000088
     9  C    0.000072  -0.014102   0.123962  -0.034532  -0.046021  -0.000292
    10  O    0.000003   0.000591  -0.034532   0.039406   0.009681   0.000002
    11  O   -0.000003   0.011317  -0.046021   0.009681   0.045459  -0.000047
    12  H    0.000000  -0.000088  -0.000292   0.000002  -0.000047  -0.001101
    13  O    0.000006  -0.025045   0.026484  -0.001700  -0.016313   0.000594
    14  H   -0.000000   0.000380  -0.000617   0.000035  -0.000055  -0.000049
              13         14
     1  N   -0.041704  -0.001908
     2  N    0.043996   0.001003
     3  C   -0.032325   0.000527
     4  C    0.009353  -0.000121
     5  N    0.016184   0.000038
     6  H    0.000004   0.000000
     7  H    0.000006  -0.000000
     8  H   -0.025045   0.000380
     9  C    0.026484  -0.000617
    10  O   -0.001700   0.000035
    11  O   -0.016313  -0.000055
    12  H    0.000594  -0.000049
    13  O    0.030275   0.000897
    14  H    0.000897  -0.000853
 Mulliken charges and spin densities:
               1          2
     1  N   -0.269043   0.205554
     2  N   -0.202154   0.180875
     3  C   -0.221079   0.299415
     4  C   -0.188192  -0.148096
     5  N   -0.258853   0.392528
     6  H    0.167316  -0.012356
     7  H    0.118451   0.004561
     8  H    0.462747   0.010005
     9  C    0.722983   0.015102
    10  O   -0.624988   0.025693
    11  O   -0.709593   0.017411
    12  H    0.352966  -0.000673
    13  O   -0.769134   0.010706
    14  H    0.418576  -0.000724
 Sum of Mulliken charges =  -1.00000   1.00000
 Mulliken charges and spin densities with hydrogens summed into heavy atoms:
               1          2
     1  N    0.193703   0.215559
     2  N   -0.202154   0.180875
     3  C   -0.053764   0.287059
     4  C   -0.069742  -0.143535
     5  N   -0.258853   0.392528
     9  C    0.722983   0.015102
    10  O   -0.624988   0.025693
    11  O   -0.709593   0.017411
    13  O    0.002408   0.009308
 Electronic spatial extent (au):  <R**2>=           1122.7697
 Charge=             -1.0000 electrons
 Dipole moment (field-independent basis, Debye):
    X=             -0.5270    Y=             -1.9162    Z=             -0.8097  Tot=              2.1459
 Quadrupole moment (field-independent basis, Debye-Ang):
   XX=            -65.5587   YY=            -71.8429   ZZ=            -56.9510
   XY=            -14.1347   XZ=              0.9848   YZ=              3.3935
 Traceless Quadrupole moment (field-independent basis, Debye-Ang):
   XX=             -0.7745   YY=             -7.0587   ZZ=              7.8332
   XY=            -14.1347   XZ=              0.9848   YZ=              3.3935
 Octapole moment (field-independent basis, Debye-Ang**2):
  XXX=             17.9683  YYY=            -23.5535  ZZZ=             -1.6629  XYY=              5.7427
  XXY=             -7.7306  XXZ=             -2.8307  XZZ=             12.6604  YZZ=             -3.3934
  YYZ=             -6.6607  XYZ=              7.1155
 Hexadecapole moment (field-independent basis, Debye-Ang**3):
 XXXX=           -845.0434 YYYY=           -652.6075 ZZZZ=            -81.0355 XXXY=            -70.5352
 XXXZ=             13.9733 YYYX=            -81.4156 YYYZ=             25.1835 ZZZX=             -3.0666
 ZZZY=              3.9557 XXYY=           -258.8114 XXZZ=           -159.4009 YYZZ=           -110.7572
 XXYZ=              8.4794 YYXZ=            -13.9875 ZZXY=             -5.8515
 N-N= 4.691859637444D+02 E-N=-2.139191531919D+03  KE= 5.036544108022D+02
                          Isotropic Fermi Contact Couplings
        Atom                 a.u.       MegaHertz       Gauss      10(-4) cm-1
     1  N(14)              0.12835      41.47102      14.79789      13.83324
     2  N(14)              0.09416      30.42339      10.85582      10.14815
     3  C(13)              0.03574      40.17621      14.33587      13.40134
     4  C(13)             -0.03223     -36.23099     -12.92812     -12.08536
     5  N(14)              0.10011      32.34445      11.54130      10.78895
     6  H(1)              -0.00398     -17.80579      -6.35355      -5.93937
     7  H(1)               0.00095       4.26267       1.52103       1.42187
     8  H(1)               0.01087      48.59548      17.34008      16.20971
     9  C(13)              0.01557      17.50885       6.24759       5.84032
    10  O(17)              0.00478      -2.89960      -1.03465      -0.96720
    11  O(17)              0.00632      -3.83005      -1.36666      -1.27757
    12  H(1)              -0.00030      -1.35411      -0.48318      -0.45168
    13  O(17)              0.00434      -2.62806      -0.93776      -0.87663
    14  H(1)              -0.00019      -0.85085      -0.30361      -0.28381
 --------------------------------------------------------
       Center         ----  Spin Dipole Couplings  ----
                      3XX-RR        3YY-RR        3ZZ-RR
 --------------------------------------------------------
     1   Atom       -0.312784     -0.307534      0.620318
     2   Atom       -0.287513     -0.280066      0.567579
     3   Atom       -0.107206     -0.111833      0.219039
     4   Atom        0.036572      0.063540     -0.100112
     5   Atom       -0.355878     -0.400216      0.756094
     6   Atom       -0.018171      0.021610     -0.003439
     7   Atom        0.000917      0.005405     -0.006322
     8   Atom        0.022179     -0.002992     -0.019187
     9   Atom        0.033496     -0.013053     -0.020443
    10   Atom       -0.022448     -0.031408      0.053857
    11   Atom        0.018165     -0.033326      0.015160
    12   Atom        0.002054     -0.000253     -0.001801
    13   Atom        0.005130     -0.009340      0.004209
    14   Atom        0.005356     -0.000369     -0.004986
 --------------------------------------------------------
                        XY            XZ            YZ
 --------------------------------------------------------
     1   Atom        0.017918     -0.111603     -0.107356
     2   Atom        0.005757     -0.033998      0.025187
     3   Atom       -0.006022     -0.061088     -0.002803
     4   Atom       -0.004903      0.041054     -0.003734
     5   Atom        0.018454     -0.249832     -0.077040
     6   Atom       -0.004264     -0.003360     -0.004111
     7   Atom       -0.001603      0.002101     -0.000282
     8   Atom       -0.034803     -0.013366      0.008268
     9   Atom        0.026076      0.024862      0.011383
    10   Atom        0.021197      0.061473      0.044382
    11   Atom        0.019902      0.066226      0.024603
    12   Atom       -0.004223     -0.002120      0.001962
    13   Atom       -0.019678      0.021258     -0.015725
    14   Atom       -0.001798      0.000827      0.000061
 --------------------------------------------------------


 ---------------------------------------------------------------------------------
              Anisotropic Spin Dipole Couplings in Principal Axis System
 ---------------------------------------------------------------------------------

       Atom             a.u.   MegaHertz   Gauss  10(-4) cm-1        Axes

              Baa    -0.3289   -12.686    -4.527    -4.232  0.8671 -0.4960  0.0459
     1 N(14)  Bbb    -0.3169   -12.224    -4.362    -4.077  0.4842  0.8609  0.1563
              Bcc     0.6459    24.910     8.889     8.309 -0.1170 -0.1133  0.9867
 
              Baa    -0.2927   -11.288    -4.028    -3.765  0.8685 -0.4933  0.0488
     2 N(14)  Bbb    -0.2770   -10.682    -3.812    -3.563  0.4941  0.8694 -0.0060
              Bcc     0.5697    21.971     7.840     7.329 -0.0394  0.0293  0.9988
 
              Baa    -0.1222   -16.403    -5.853    -5.472  0.8366  0.5256  0.1541
     3 C(13)  Bbb    -0.1079   -14.475    -5.165    -4.828 -0.5180  0.8507 -0.0895
              Bcc     0.2301    30.879    11.018    10.300 -0.1781 -0.0049  0.9840
 
              Baa    -0.1115   -14.966    -5.340    -4.992 -0.2667  0.0131  0.9637
     4 C(13)  Bbb     0.0461     6.184     2.207     2.063  0.9171  0.3109  0.2496
              Bcc     0.0654     8.782     3.134     2.929 -0.2964  0.9503 -0.0949
 
              Baa    -0.4102   -15.820    -5.645    -5.277  0.9145 -0.3662  0.1717
     5 N(14)  Bbb    -0.4046   -15.606    -5.569    -5.206  0.3462  0.9282  0.1361
              Bcc     0.8148    31.425    11.213    10.482 -0.2092 -0.0650  0.9757
 
              Baa    -0.0195   -10.419    -3.718    -3.475  0.9646  0.1233  0.2330
     6 H(1)   Bbb    -0.0031    -1.642    -0.586    -0.548 -0.2473  0.1174  0.9618
              Bcc     0.0226    12.061     4.304     4.023 -0.0912  0.9854 -0.1438
 
              Baa    -0.0069    -3.676    -1.312    -1.226 -0.2622 -0.0120  0.9649
     7 H(1)   Bbb     0.0009     0.480     0.171     0.160  0.9070  0.3383  0.2507
              Bcc     0.0060     3.196     1.140     1.066 -0.3295  0.9410 -0.0778
 
              Baa    -0.0276   -14.715    -5.251    -4.908  0.5956  0.7837  0.1764
     8 H(1)   Bbb    -0.0226   -12.045    -4.298    -4.018  0.0745 -0.2726  0.9592
              Bcc     0.0502    26.760     9.548     8.926  0.7998 -0.5581 -0.2207
 
              Baa    -0.0304    -4.073    -1.453    -1.359 -0.2949 -0.1737  0.9396
     9 C(13)  Bbb    -0.0247    -3.318    -1.184    -1.107 -0.4211  0.9063  0.0353
              Bcc     0.0551     7.390     2.637     2.465  0.8577  0.3852  0.3404
 
              Baa    -0.0576     4.169     1.487     1.391  0.7799  0.2998 -0.5495
    10 O(17)  Bbb    -0.0480     3.476     1.240     1.159 -0.4329  0.8924 -0.1275
              Bcc     0.1056    -7.644    -2.728    -2.550  0.4521  0.3373  0.8257
 
              Baa    -0.0509     3.684     1.314     1.229 -0.5986 -0.3383  0.7261
    11 O(17)  Bbb    -0.0400     2.891     1.032     0.964 -0.4091  0.9084  0.0860
              Bcc     0.0909    -6.575    -2.346    -2.193  0.6887  0.2455  0.6822
 
              Baa    -0.0036    -1.903    -0.679    -0.635  0.4934  0.8126 -0.3104
    12 H(1)   Bbb    -0.0027    -1.458    -0.520    -0.486  0.4518  0.0655  0.8897
              Bcc     0.0063     3.362     1.199     1.121  0.7433 -0.5792 -0.3348
 
              Baa    -0.0231     1.673     0.597     0.558  0.5352  0.8420  0.0682
    13 O(17)  Bbb    -0.0158     1.147     0.409     0.382 -0.5412  0.2798  0.7930
              Bcc     0.0390    -2.820    -1.006    -0.941  0.6486 -0.4613  0.6054
 
              Baa    -0.0051    -2.701    -0.964    -0.901 -0.0870 -0.0463  0.9951
    14 H(1)   Bbb    -0.0009    -0.463    -0.165    -0.154  0.2686  0.9608  0.0682
              Bcc     0.0059     3.164     1.129     1.055  0.9593 -0.2732  0.0712
 

 ---------------------------------------------------------------------------------

 Calling FoFJK, ICntrl=      2127 FMM=F ISym2X=0 I1Cent= 0 IOpClX= 1 NMat=1 NMatS=1 NMatT=0.
 ***** Axes restored to original set *****
 -------------------------------------------------------------------
 Center     Atomic                   Forces (Hartrees/Bohr)
 Number     Number              X              Y              Z
 -------------------------------------------------------------------
      1        7          -0.029949748    0.030848812    0.005846337
      2        7           0.007044584   -0.001877329   -0.002064717
      3        6          -0.001024181    0.006980480   -0.000022361
      4        6          -0.000588854   -0.000251426   -0.000787879
      5        7           0.004279999    0.005239950    0.004053368
      6        1          -0.000599979    0.000547880    0.000079607
      7        1          -0.000111795    0.000911459   -0.000113379
      8        1          -0.002043336   -0.010778626    0.000068654
      9        6          -0.011966771    0.024116007    0.007723777
     10        8           0.001615337   -0.003742396   -0.002529809
     11        8           0.080228609    0.103611105    0.002636718
     12        1          -0.003626201    0.001135159    0.005419708
     13        8          -0.046710069   -0.163460864   -0.020375942
     14        1           0.003452406    0.006719788    0.000065917
 -------------------------------------------------------------------
 Cartesian Forces:  Max     0.163460864 RMS     0.034357635

 GradGradGradGradGradGradGradGradGradGradGradGradGradGradGradGradGradGrad
 Berny optimization.
 FormGI is forming the generalized inverse of G from B-inverse, IUseBI=4.
 Internal  Forces:  Max     0.107438037 RMS     0.025745180
 Search for a local minimum.
 Step number   1 out of a maximum of   76
 All quantities printed in internal units (Hartrees-Bohrs-Radians)
 Mixed Optimization -- RFO/linear search
 Second derivative matrix not updated -- first step.
 ITU=  0
     Eigenvalues ---    0.00677   0.01173   0.01613   0.01842   0.02131
     Eigenvalues ---    0.02203   0.02253   0.02377   0.02622   0.03460
     Eigenvalues ---    0.03782   0.12044   0.12822   0.14948   0.15357
     Eigenvalues ---    0.15954   0.15996   0.16925   0.19206   0.19989
     Eigenvalues ---    0.22152   0.22560   0.24999   0.32416   0.35749
     Eigenvalues ---    0.36383   0.37807   0.42694   0.43988   0.48034
     Eigenvalues ---    0.48911   0.53041   0.53347   0.53594   0.81360
     Eigenvalues ---    0.88470
 RFO step:  Lambda=-1.29730752D-01 EMin= 6.76699887D-03
 Linear search not attempted -- first point.
 Maximum step size (   0.300) exceeded in Quadratic search.
    -- Step size scaled by   0.504
 Iteration  1 RMS(Cart)=  0.06069800 RMS(Int)=  0.00231187
 Iteration  2 RMS(Cart)=  0.00189716 RMS(Int)=  0.00060222
 Iteration  3 RMS(Cart)=  0.00001022 RMS(Int)=  0.00060217
 Iteration  4 RMS(Cart)=  0.00000001 RMS(Int)=  0.00060217
 Variable       Old X    -DE/DX   Delta X   Delta X   Delta X     New X
                                 (Linear)    (Quad)   (Total)
    R1        2.64396   0.03188   0.00000   0.02620   0.02599   2.66994
    R2        2.61560  -0.00137   0.00000  -0.00060  -0.00052   2.61508
    R3        1.92837   0.05410   0.00000   0.04954   0.04984   1.97821
    R4        2.60269   0.00621   0.00000   0.00510   0.00496   2.60765
    R5        2.81624   0.00942   0.00000   0.00544   0.00500   2.82124
    R6        2.60351  -0.00184   0.00000  -0.00258  -0.00259   2.60091
    R7        2.03486   0.00031   0.00000   0.00031   0.00031   2.03517
    R8        2.55062  -0.00000   0.00000  -0.00073  -0.00061   2.55001
    R9        2.04476   0.00056   0.00000   0.00058   0.00058   2.04534
   R10        2.63157   0.04415   0.00000   0.08566   0.08601   2.71758
   R11        2.33646  -0.00248   0.00000  -0.00123  -0.00123   2.33523
   R12        2.34982   0.00752   0.00000   0.00335   0.00313   2.35295
   R13        2.61767   0.10744   0.00000   0.19706   0.19710   2.81477
   R14        1.83103  -0.00522   0.00000  -0.00395  -0.00395   1.82708
   R15        1.81897   0.09028   0.00000   0.06959   0.06989   1.88886
    A1        1.92605  -0.00912   0.00000  -0.01154  -0.01186   1.91419
    A2        1.91902   0.02577   0.00000   0.05217   0.05165   1.97067
    A3        2.04245  -0.00521   0.00000  -0.00681  -0.00638   2.03607
    A4        1.84987  -0.00336   0.00000  -0.00017   0.00025   1.85013
    A5        2.08086   0.02563   0.00000   0.03525   0.03463   2.11549
    A6        2.21325  -0.01933   0.00000  -0.02657  -0.02651   2.18674
    A7        1.85821   0.00224   0.00000   0.00160   0.00132   1.85953
    A8        2.09995  -0.00075   0.00000   0.00012   0.00027   2.10022
    A9        2.32332  -0.00144   0.00000  -0.00166  -0.00154   2.32178
   A10        1.96265   0.00246   0.00000   0.00053   0.00047   1.96312
   A11        2.22677  -0.00192   0.00000  -0.00143  -0.00144   2.22533
   A12        2.09352  -0.00041   0.00000   0.00118   0.00117   2.09469
   A13        1.81661   0.00839   0.00000   0.01083   0.01095   1.82756
   A14        2.60586   0.00333   0.00000   0.01387   0.01237   2.61823
   A15        1.97932   0.00447   0.00000   0.00668   0.00725   1.98657
   A16        1.96394  -0.00045   0.00000  -0.00195  -0.00313   1.96082
   A17        2.33989  -0.00401   0.00000  -0.00466  -0.00409   2.33580
   A18        2.46378  -0.02520   0.00000  -0.03625  -0.03635   2.42743
   A19        2.27211   0.02088   0.00000   0.02356   0.02286   2.29497
   A20        1.97808  -0.06952   0.00000  -0.09872  -0.09942   1.87867
   A21        1.89875   0.02982   0.00000   0.03626   0.03541   1.93416
   A22        1.92429   0.07613   0.00000   0.13186   0.13254   2.05683
    D1        0.13681  -0.00223   0.00000  -0.00365  -0.00351   0.13329
    D2       -2.49838   0.00043   0.00000  -0.00749  -0.00765  -2.50603
    D3        2.41552   0.00417   0.00000   0.01981   0.02065   2.43617
    D4       -0.21967   0.00684   0.00000   0.01597   0.01651  -0.20315
    D5       -0.14125   0.00526   0.00000   0.01071   0.01051  -0.13074
    D6       -2.35279  -0.01820   0.00000  -0.04627  -0.04601  -2.39880
    D7        1.29669  -0.01492   0.00000  -0.03317  -0.03283   1.26386
    D8       -2.77150  -0.00859   0.00000  -0.00752  -0.00678  -2.77828
    D9       -0.07416  -0.00237   0.00000  -0.00578  -0.00575  -0.07991
   D10        3.12234  -0.00316   0.00000  -0.00654  -0.00642   3.11592
   D11        2.51036   0.01257   0.00000   0.02320   0.02257   2.53293
   D12       -0.57634   0.01179   0.00000   0.02244   0.02191  -0.55443
   D13        3.02866   0.00992   0.00000   0.02452   0.02415   3.05281
   D14       -0.12053   0.01144   0.00000   0.03262   0.03304  -0.08749
   D15        0.50873   0.00369   0.00000   0.00535   0.00529   0.51402
   D16       -2.64046   0.00521   0.00000   0.01345   0.01418  -2.62628
   D17       -0.01308   0.00620   0.00000   0.01324   0.01306  -0.00003
   D18       -3.13053  -0.00041   0.00000  -0.00076  -0.00072  -3.13124
   D19        3.06357   0.00719   0.00000   0.01424   0.01395   3.07752
   D20       -0.05387   0.00057   0.00000   0.00024   0.00018  -0.05370
   D21        0.09454  -0.00590   0.00000  -0.01357  -0.01341   0.08113
   D22       -3.06914   0.00012   0.00000  -0.00081  -0.00083  -3.06997
   D23        3.02322   0.01136   0.00000   0.02828   0.02791   3.05114
   D24       -0.72161  -0.02325   0.00000  -0.04744  -0.04633  -0.76794
   D25       -0.50340   0.01164   0.00000   0.01739   0.01611  -0.48729
   D26        2.62848   0.01364   0.00000   0.02780   0.02745   2.65594
   D27        1.28128  -0.01010   0.00000  -0.04467  -0.04697   1.23430
   D28       -0.73803   0.02872   0.00000   0.07509   0.07319  -0.66483
   D29        1.92802   0.00671   0.00000   0.02238   0.02245   1.95047
         Item               Value     Threshold  Converged?
 Maximum Force            0.107438     0.000450     NO 
 RMS     Force            0.025745     0.000300     NO 
 Maximum Displacement     0.262111     0.001800     NO 
 RMS     Displacement     0.060598     0.001200     NO 
 Predicted change in Energy=-5.595581D-02
 GradGradGradGradGradGradGradGradGradGradGradGradGradGradGradGradGradGrad

                          Input orientation:                          
 ---------------------------------------------------------------------
 Center     Atomic      Atomic             Coordinates (Angstroms)
 Number     Number       Type             X           Y           Z
 ---------------------------------------------------------------------
      1          7           0       -0.756500   -1.045242    0.291530
      2          7           0        0.041334    0.119759    0.340976
      3          6           0       -0.810486    1.175291    0.087210
      4          6           0       -2.038322    0.626445   -0.205211
      5          7           0       -2.026027   -0.721949   -0.154341
      6          1           0       -0.440259    2.186603    0.093390
      7          1           0       -2.949358    1.150221   -0.464350
      8          1           0       -0.280252   -1.845330   -0.186892
      9          6           0        1.492256    0.079104   -0.008342
     10          8           0        2.035288    1.189125   -0.015149
     11          8           0        1.892955   -1.078264   -0.232580
     12          1           0        0.910966   -3.584299   -0.821098
     13          8           0        0.721725   -2.876890   -0.189780
     14          1           0        1.568389   -2.477742    0.160824
 ---------------------------------------------------------------------
                    Distance matrix (angstroms):
                    1          2          3          4          5
     1  N    0.000000
     2  N    1.412873   0.000000
     3  C    2.230567   1.379907   0.000000
     4  C    2.164337   2.209077   1.376344   0.000000
     5  N    1.383841   2.286436   2.266144   1.349410   0.000000
     6  H    3.253320   2.136604   1.076967   2.253233   3.322003
     7  H    3.193749   3.264145   2.208986   1.082349   2.110371
     8  H    1.046824   2.060008   3.079031   3.033284   2.076240
     9  C    2.531992   1.492933   2.552132   3.578173   3.611276
    10  O    3.588946   2.290463   2.847648   4.116677   4.490641
    11  O    2.700999   2.278755   3.534030   4.285057   3.935924
    12  H    3.234996   3.978281   5.142190   5.177642   4.154941
    13  O    2.402445   3.118419   4.341033   4.459983   3.492157
    14  H    2.733908   3.018503   4.359945   4.772664   4.012725
                    6          7          8          9         10
     6  H    0.000000
     7  H    2.771415   0.000000
     8  H    4.044829   4.021744   0.000000
     9  C    2.861209   4.591641   2.622425   0.000000
    10  O    2.671156   5.004996   3.820882   1.235750   0.000000
    11  O    4.026102   5.335527   2.305061   1.245127   2.282233
    12  H    5.997117   6.119236   2.201189   3.797234   4.969832
    13  O    5.202822   5.456176   1.438083   3.060153   4.276496
    14  H    5.078910   5.827777   1.984522   2.563567   3.700659
                   11         12         13         14
    11  O    0.000000
    12  H    2.755153   0.000000
    13  O    2.146781   0.966852   0.000000
    14  H    1.489513   1.618902   0.999541   0.000000
 Stoichiometry    C3H5N3O3(1-,2)
 Framework group  C1[X(C3H5N3O3)]
 Deg. of freedom    36
 Full point group                 C1      NOp   1
 Largest Abelian subgroup         C1      NOp   1
 Largest concise Abelian subgroup C1      NOp   1
                         Standard orientation:                         
 ---------------------------------------------------------------------
 Center     Atomic      Atomic             Coordinates (Angstroms)
 Number     Number       Type             X           Y           Z
 ---------------------------------------------------------------------
      1          7           0       -0.491258   -0.968420    0.357754
      2          7           0       -0.324605    0.434520    0.343731
      3          6           0       -1.561532    0.961499    0.033165
      4          6           0       -2.388270   -0.107236   -0.228813
      5          7           0       -1.754682   -1.292180   -0.104800
      6          1           0       -1.701596    2.028203   -0.015642
      7          1           0       -3.431466   -0.078471   -0.515858
      8          1           0        0.312970   -1.478712   -0.076596
      9          6           0        0.988662    1.054103   -0.003109
     10          8           0        0.956373    2.287603   -0.070273
     11          8           0        1.884914    0.204920   -0.164237
     12          1           0        2.189121   -2.495925   -0.615639
     13          8           0        1.678283   -1.927262   -0.023634
     14          1           0        2.235068   -1.164825    0.304636
 ---------------------------------------------------------------------
 Rotational constants (GHZ):           2.2439118           1.6522539           0.9716805
 Standard basis: 6-31+G(d,p) (6D, 7F)
 There are   196 symmetry adapted cartesian basis functions of A   symmetry.
 There are   196 symmetry adapted basis functions of A   symmetry.
   196 basis functions,   323 primitive gaussians,   196 cartesian basis functions
    35 alpha electrons       34 beta electrons
       nuclear repulsion energy       463.2691810370 Hartrees.
 NAtoms=   14 NActive=   14 NUniq=   14 SFac= 1.00D+00 NAtFMM=   60 NAOKFM=F Big=F
 Integral buffers will be    131072 words long.
 Raffenetti 2 integral format.
 Two-electron integral symmetry is turned on.
 One-electron integrals computed using PRISM.
 NBasis=   196 RedAO= T EigKep=  4.24D-05  NBF=   196
 NBsUse=   196 1.00D-06 EigRej= -1.00D+00 NBFU=   196
 Initial guess from the checkpoint file:  "/scratch/gongke2021/RC/Gau-10055.chk"
 B after Tr=     0.000000   -0.000000   -0.000000
         Rot=    0.999787   -0.000177   -0.000073   -0.020645 Ang=  -2.37 deg.
 Initial guess <Sx>= 0.0000 <Sy>= 0.0000 <Sz>= 0.5000 <S**2>= 0.7651 S= 0.5075
 ExpMin= 4.38D-02 ExpMax= 5.48D+03 ExpMxC= 8.25D+02 IAcc=2 IRadAn=         4 AccDes= 0.00D+00
 Harris functional with IExCor= 1009 and IRadAn=       4 diagonalized for initial guess.
 HarFok:  IExCor= 1009 AccDes= 0.00D+00 IRadAn=         4 IDoV= 1 UseB2=F ITyADJ=14
 ICtDFT=  3500011 ScaDFX=  1.000000  1.000000  1.000000  1.000000
 FoFCou: FMM=F IPFlag=           0 FMFlag=      100000 FMFlg1=           0
         NFxFlg=           0 DoJE=T BraDBF=F KetDBF=T FulRan=T
         wScrn=  0.000000 ICntrl=       500 IOpCl=  0 I1Cent=   200000004 NGrid=           0
         NMat0=    1 NMatS0=      1 NMatT0=    0 NMatD0=    1 NMtDS0=    0 NMtDT0=    0
 Petite list used in FoFCou.
 Requested convergence on RMS density matrix=1.00D-08 within 128 cycles.
 Requested convergence on MAX density matrix=1.00D-06.
 Requested convergence on             energy=1.00D-06.
 No special actions if energy rises.
 SCF Done:  E(UM062X) =  -507.038453713     A.U. after   15 cycles
            NFock= 15  Conv=0.97D-08     -V/T= 2.0076
 <Sx>= 0.0000 <Sy>= 0.0000 <Sz>= 0.5000 <S**2>= 0.7653 S= 0.5076
 <L.S>=  0.00000000000    
 Annihilation of the first spin contaminant:
 S**2 before annihilation     0.7653,   after     0.7501
 Calling FoFJK, ICntrl=      2127 FMM=F ISym2X=0 I1Cent= 0 IOpClX= 1 NMat=1 NMatS=1 NMatT=0.
 ***** Axes restored to original set *****
 -------------------------------------------------------------------
 Center     Atomic                   Forces (Hartrees/Bohr)
 Number     Number              X              Y              Z
 -------------------------------------------------------------------
      1        7          -0.014025193    0.021156033   -0.003958982
      2        7           0.005726498   -0.004060593   -0.002768460
      3        6          -0.000375394    0.003367080    0.000369683
      4        6          -0.000956251   -0.000735881    0.000900549
      5        7           0.004049955    0.002372007    0.002668458
      6        1          -0.000162773    0.000116052   -0.000130947
      7        1          -0.000013794    0.000373987   -0.000165136
      8        1          -0.004534549    0.006430647    0.007288367
      9        6          -0.018375972    0.015849261    0.006271468
     10        8           0.000825108   -0.005445962   -0.001630826
     11        8           0.044628381    0.040403038    0.003108551
     12        1           0.000663618    0.003751891    0.004965082
     13        8           0.001860295   -0.088223374   -0.000321208
     14        1          -0.019309930    0.004645812   -0.016596600
 -------------------------------------------------------------------
 Cartesian Forces:  Max     0.088223374 RMS     0.018038425

 GradGradGradGradGradGradGradGradGradGradGradGradGradGradGradGradGradGrad
 Berny optimization.
 Using GEDIIS/GDIIS optimizer.
 FormGI is forming the generalized inverse of G from B-inverse, IUseBI=4.
 Internal  Forces:  Max     0.045496389 RMS     0.011910325
 Search for a local minimum.
 Step number   2 out of a maximum of   76
 All quantities printed in internal units (Hartrees-Bohrs-Radians)
 Mixed Optimization -- RFO/linear search
 Update second derivatives using D2CorX and points    1    2
 DE= -4.64D-02 DEPred=-5.60D-02 R= 8.30D-01
 TightC=F SS=  1.41D+00  RLast= 3.31D-01 DXNew= 5.0454D-01 9.9352D-01
 Trust test= 8.30D-01 RLast= 3.31D-01 DXMaxT set to 5.05D-01
 ITU=  1  0
 Use linear search instead of GDIIS.
 Linear search step of   0.601 exceeds DXMaxT=   0.505 but not scaled.
 Quartic linear search produced a step of  2.00000.
 Iteration  1 RMS(Cart)=  0.09763467 RMS(Int)=  0.02487542
 Iteration  2 RMS(Cart)=  0.02708942 RMS(Int)=  0.00331140
 Iteration  3 RMS(Cart)=  0.00036570 RMS(Int)=  0.00329420
 Iteration  4 RMS(Cart)=  0.00000128 RMS(Int)=  0.00329420
 Iteration  5 RMS(Cart)=  0.00000000 RMS(Int)=  0.00329420
 Variable       Old X    -DE/DX   Delta X   Delta X   Delta X     New X
                                 (Linear)    (Quad)   (Total)
    R1        2.66994   0.00804   0.05197   0.00000   0.05087   2.72081
    R2        2.61508  -0.00239  -0.00104   0.00000  -0.00069   2.61439
    R3        1.97821   0.02538   0.09968   0.00000   0.10024   2.07845
    R4        2.60765   0.00243   0.00991   0.00000   0.00923   2.61687
    R5        2.82124  -0.00229   0.01000   0.00000   0.00865   2.82989
    R6        2.60091  -0.00109  -0.00519   0.00000  -0.00515   2.59576
    R7        2.03517   0.00005   0.00062   0.00000   0.00062   2.03580
    R8        2.55001  -0.00059  -0.00121   0.00000  -0.00055   2.54946
    R9        2.04534   0.00023   0.00116   0.00000   0.00116   2.04651
   R10        2.71758   0.03450   0.17203   0.00000   0.17289   2.89047
   R11        2.33523  -0.00452  -0.00246   0.00000  -0.00246   2.33276
   R12        2.35295   0.00862   0.00625   0.00000   0.00575   2.35870
   R13        2.81477   0.04550   0.39420   0.00000   0.39459   3.20936
   R14        1.82708  -0.00586  -0.00790   0.00000  -0.00790   1.81919
   R15        1.88886   0.02393   0.13978   0.00000   0.14085   2.02971
    A1        1.91419  -0.00363  -0.02373   0.00000  -0.02511   1.88908
    A2        1.97067   0.01039   0.10329   0.00000   0.09832   2.06899
    A3        2.03607   0.00008  -0.01277   0.00000  -0.01021   2.02586
    A4        1.85013  -0.00004   0.00051   0.00000   0.00245   1.85257
    A5        2.11549   0.00968   0.06926   0.00000   0.06553   2.18102
    A6        2.18674  -0.00814  -0.05301   0.00000  -0.05209   2.13465
    A7        1.85953  -0.00024   0.00263   0.00000   0.00118   1.86071
    A8        2.10022   0.00020   0.00054   0.00000   0.00136   2.10157
    A9        2.32178   0.00006  -0.00309   0.00000  -0.00248   2.31929
   A10        1.96312   0.00010   0.00094   0.00000   0.00063   1.96375
   A11        2.22533  -0.00036  -0.00287   0.00000  -0.00295   2.22238
   A12        2.09469   0.00027   0.00234   0.00000   0.00226   2.09695
   A13        1.82756   0.00400   0.02190   0.00000   0.02233   1.84989
   A14        2.61823   0.00477   0.02473   0.00000   0.01624   2.63447
   A15        1.98657   0.00257   0.01450   0.00000   0.01761   2.00418
   A16        1.96082   0.00293  -0.00625   0.00000  -0.01292   1.94790
   A17        2.33580  -0.00551  -0.00818   0.00000  -0.00500   2.33080
   A18        2.42743  -0.01304  -0.07270   0.00000  -0.07602   2.35142
   A19        2.29497   0.01255   0.04572   0.00000   0.04229   2.33726
   A20        1.87867  -0.03632  -0.19883   0.00000  -0.20331   1.67535
   A21        1.93416   0.01257   0.07083   0.00000   0.06780   2.00196
   A22        2.05683   0.04038   0.26508   0.00000   0.26687   2.32370
    D1        0.13329  -0.00078  -0.00703   0.00000  -0.00600   0.12729
    D2       -2.50603  -0.00037  -0.01530   0.00000  -0.01618  -2.52221
    D3        2.43617   0.00504   0.04130   0.00000   0.04578   2.48195
    D4       -0.20315   0.00545   0.03303   0.00000   0.03561  -0.16754
    D5       -0.13074   0.00197   0.02102   0.00000   0.01948  -0.11126
    D6       -2.39880  -0.00948  -0.09202   0.00000  -0.08898  -2.48778
    D7        1.26386  -0.00675  -0.06567   0.00000  -0.06321   1.20065
    D8       -2.77828  -0.00183  -0.01356   0.00000  -0.00895  -2.78723
    D9       -0.07991  -0.00097  -0.01151   0.00000  -0.01137  -0.09128
   D10        3.11592  -0.00130  -0.01284   0.00000  -0.01222   3.10370
   D11        2.53293   0.00538   0.04515   0.00000   0.04150   2.57443
   D12       -0.55443   0.00506   0.04382   0.00000   0.04065  -0.51377
   D13        3.05281   0.00598   0.04830   0.00000   0.04625   3.09907
   D14       -0.08749   0.00712   0.06608   0.00000   0.06800  -0.01949
   D15        0.51402   0.00254   0.01057   0.00000   0.01029   0.52431
   D16       -2.62628   0.00368   0.02836   0.00000   0.03204  -2.59425
   D17       -0.00003   0.00240   0.02611   0.00000   0.02483   0.02480
   D18       -3.13124  -0.00011  -0.00143   0.00000  -0.00116  -3.13240
   D19        3.07752   0.00279   0.02790   0.00000   0.02602   3.10354
   D20       -0.05370   0.00028   0.00035   0.00000   0.00004  -0.05366
   D21        0.08113  -0.00235  -0.02682   0.00000  -0.02557   0.05556
   D22       -3.06997  -0.00006  -0.00166   0.00000  -0.00171  -3.07169
   D23        3.05114   0.00737   0.05583   0.00000   0.05496   3.10610
   D24       -0.76794  -0.01181  -0.09266   0.00000  -0.08459  -0.85252
   D25       -0.48729   0.00662   0.03222   0.00000   0.02592  -0.46138
   D26        2.65594   0.00807   0.05491   0.00000   0.05312   2.70906
   D27        1.23430  -0.00676  -0.09394   0.00000  -0.10583   1.12848
   D28       -0.66483   0.01182   0.14638   0.00000   0.13690  -0.52793
   D29        1.95047   0.00164   0.04490   0.00000   0.04673   1.99721
         Item               Value     Threshold  Converged?
 Maximum Force            0.045496     0.000450     NO 
 RMS     Force            0.011910     0.000300     NO 
 Maximum Displacement     0.505154     0.001800     NO 
 RMS     Displacement     0.119072     0.001200     NO 
 Predicted change in Energy=-8.041954D-03
 GradGradGradGradGradGradGradGradGradGradGradGradGradGradGradGradGradGrad

                          Input orientation:                          
 ---------------------------------------------------------------------
 Center     Atomic      Atomic             Coordinates (Angstroms)
 Number     Number       Type             X           Y           Z
 ---------------------------------------------------------------------
      1          7           0       -0.745294   -1.047985    0.270939
      2          7           0        0.055899    0.146719    0.332390
      3          6           0       -0.807827    1.202316    0.092937
      4          6           0       -2.026800    0.649859   -0.216454
      5          7           0       -2.011905   -0.698069   -0.161801
      6          1           0       -0.448948    2.217695    0.120871
      7          1           0       -2.940128    1.173864   -0.469559
      8          1           0       -0.310515   -1.949481   -0.185116
      9          6           0        1.516240    0.218238    0.008614
     10          8           0        2.007992    1.348345    0.078567
     11          8           0        1.972800   -0.900302   -0.304996
     12          1           0        0.858383   -3.851615   -0.754747
     13          8           0        0.689712   -3.106576   -0.168911
     14          1           0        1.552099   -2.506174    0.053455
 ---------------------------------------------------------------------
                    Distance matrix (angstroms):
                    1          2          3          4          5
     1  N    0.000000
     2  N    1.439793   0.000000
     3  C    2.258196   1.384790   0.000000
     4  C    2.182312   2.211790   1.373618   0.000000
     5  N    1.383477   2.287729   2.264102   1.349118   0.000000
     6  H    3.282531   2.142091   1.077297   2.249781   3.320303
     7  H    3.209712   3.267159   2.205430   1.082964   2.111977
     8  H    1.099870   2.190006   3.202883   3.114994   2.112180
     9  C    2.605124   1.497513   2.525234   3.576323   3.649173
    10  O    3.655132   2.306296   2.819639   4.105419   4.517207
    11  O    2.782363   2.275308   3.508738   4.290412   3.992402
    12  H    3.388827   4.220488   5.388603   5.373761   4.305228
    13  O    2.547647   3.352156   4.569216   4.636001   3.619350
    14  H    2.729767   3.058473   4.395874   4.779321   4.002212
                    6          7          8          9         10
     6  H    0.000000
     7  H    2.764809   0.000000
     8  H    4.180688   4.092806   0.000000
     9  C    2.805779   4.582695   2.841404   0.000000
    10  O    2.606552   4.981444   4.039884   1.234445   0.000000
    11  O    3.970911   5.335364   2.515686   1.248171   2.281397
    12  H    6.269955   6.305986   2.304108   4.192755   5.390324
    13  O    5.452374   5.620347   1.529570   3.430605   4.652465
    14  H    5.130660   5.830637   1.958610   2.725017   3.881467
                   11         12         13         14
    11  O    0.000000
    12  H    3.186604   0.000000
    13  O    2.555872   0.962671   0.000000
    14  H    1.698323   1.715997   1.074077   0.000000
 Stoichiometry    C3H5N3O3(1-,2)
 Framework group  C1[X(C3H5N3O3)]
 Deg. of freedom    36
 Full point group                 C1      NOp   1
 Largest Abelian subgroup         C1      NOp   1
 Largest concise Abelian subgroup C1      NOp   1
                         Standard orientation:                         
 ---------------------------------------------------------------------
 Center     Atomic      Atomic             Coordinates (Angstroms)
 Number     Number       Type             X           Y           Z
 ---------------------------------------------------------------------
      1          7           0       -0.326248   -1.051461    0.344630
      2          7           0       -0.376584    0.387384    0.330660
      3          6           0       -1.686291    0.723979    0.032304
      4          6           0       -2.342242   -0.452283   -0.237812
      5          7           0       -1.544243   -1.531638   -0.102501
      6          1           0       -1.989466    1.757155   -0.002343
      7          1           0       -3.381119   -0.575630   -0.517692
      8          1           0        0.567399   -1.550024   -0.058537
      9          6           0        0.775989    1.283179   -0.003514
     10          8           0        0.512204    2.489111   -0.003706
     11          8           0        1.809654    0.629016   -0.251580
     12          1           0        2.644617   -2.434653   -0.518441
     13          8           0        2.054110   -1.900339    0.022435
     14          1           0        2.395617   -0.898397    0.204443
 ---------------------------------------------------------------------
 Rotational constants (GHZ):           1.9616697           1.6564817           0.9164171
 Standard basis: 6-31+G(d,p) (6D, 7F)
 There are   196 symmetry adapted cartesian basis functions of A   symmetry.
 There are   196 symmetry adapted basis functions of A   symmetry.
   196 basis functions,   323 primitive gaussians,   196 cartesian basis functions
    35 alpha electrons       34 beta electrons
       nuclear repulsion energy       453.4176147714 Hartrees.
 NAtoms=   14 NActive=   14 NUniq=   14 SFac= 1.00D+00 NAtFMM=   60 NAOKFM=F Big=F
 Integral buffers will be    131072 words long.
 Raffenetti 2 integral format.
 Two-electron integral symmetry is turned on.
 One-electron integrals computed using PRISM.
 NBasis=   196 RedAO= T EigKep=  4.05D-05  NBF=   196
 NBsUse=   196 1.00D-06 EigRej= -1.00D+00 NBFU=   196
 Initial guess from the checkpoint file:  "/scratch/gongke2021/RC/Gau-10055.chk"
 B after Tr=     0.000000   -0.000000    0.000000
         Rot=    0.996954   -0.001389   -0.000304   -0.077975 Ang=  -8.95 deg.
 Initial guess <Sx>= 0.0000 <Sy>= 0.0000 <Sz>= 0.5000 <S**2>= 0.7654 S= 0.5077
 ExpMin= 4.38D-02 ExpMax= 5.48D+03 ExpMxC= 8.25D+02 IAcc=2 IRadAn=         4 AccDes= 0.00D+00
 Harris functional with IExCor= 1009 and IRadAn=       4 diagonalized for initial guess.
 HarFok:  IExCor= 1009 AccDes= 0.00D+00 IRadAn=         4 IDoV= 1 UseB2=F ITyADJ=14
 ICtDFT=  3500011 ScaDFX=  1.000000  1.000000  1.000000  1.000000
 FoFCou: FMM=F IPFlag=           0 FMFlag=      100000 FMFlg1=           0
         NFxFlg=           0 DoJE=T BraDBF=F KetDBF=T FulRan=T
         wScrn=  0.000000 ICntrl=       500 IOpCl=  0 I1Cent=   200000004 NGrid=           0
         NMat0=    1 NMatS0=      1 NMatT0=    0 NMatD0=    1 NMtDS0=    0 NMtDT0=    0
 Petite list used in FoFCou.
 Requested convergence on RMS density matrix=1.00D-08 within 128 cycles.
 Requested convergence on MAX density matrix=1.00D-06.
 Requested convergence on             energy=1.00D-06.
 No special actions if energy rises.
 SCF Done:  E(UM062X) =  -507.061116152     A.U. after   16 cycles
            NFock= 16  Conv=0.99D-08     -V/T= 2.0087
 <Sx>= 0.0000 <Sy>= 0.0000 <Sz>= 0.5000 <S**2>= 0.7657 S= 0.5078
 <L.S>=  0.00000000000    
 Annihilation of the first spin contaminant:
 S**2 before annihilation     0.7657,   after     0.7501
 Calling FoFJK, ICntrl=      2127 FMM=F ISym2X=0 I1Cent= 0 IOpClX= 1 NMat=1 NMatS=1 NMatT=0.
 ***** Axes restored to original set *****
 -------------------------------------------------------------------
 Center     Atomic                   Forces (Hartrees/Bohr)
 Number     Number              X              Y              Z
 -------------------------------------------------------------------
      1        7           0.005442244    0.006173057   -0.016350069
      2        7           0.004177853   -0.004080124   -0.001956193
      3        6           0.000382412   -0.003791526    0.000853876
      4        6          -0.001633914   -0.001940247    0.004006350
      5        7           0.002805926   -0.003443329   -0.000230883
      6        1           0.000716157   -0.000763253   -0.000546230
      7        1           0.000152886   -0.000718082   -0.000262278
      8        1          -0.009264968    0.035969878    0.016306535
      9        6          -0.023984030    0.000158728    0.001938281
     10        8          -0.001367274   -0.006903405   -0.000375187
     11        8           0.020204334   -0.007780551    0.004054427
     12        1           0.007525978    0.005784050    0.001022175
     13        8           0.042822232    0.002618412    0.017449971
     14        1          -0.047979835   -0.021283609   -0.025910774
 -------------------------------------------------------------------
 Cartesian Forces:  Max     0.047979835 RMS     0.014519784

 GradGradGradGradGradGradGradGradGradGradGradGradGradGradGradGradGradGrad
 Berny optimization.
 Using GEDIIS/GDIIS optimizer.
 FormGI is forming the generalized inverse of G from B-inverse, IUseBI=4.
 Internal  Forces:  Max     0.053277381 RMS     0.008739133
 Search for a local minimum.
 Step number   3 out of a maximum of   76
 All quantities printed in internal units (Hartrees-Bohrs-Radians)
 Mixed Optimization -- RFO/linear search
 Update second derivatives using D2CorX and points    2    3
 ITU=  0  1  0
 Use linear search instead of GDIIS.
     Eigenvalues ---    0.00723   0.01190   0.01567   0.01881   0.01963
     Eigenvalues ---    0.02164   0.02206   0.02339   0.02376   0.03209
     Eigenvalues ---    0.03950   0.11682   0.12062   0.13641   0.14836
     Eigenvalues ---    0.15961   0.16001   0.16990   0.19649   0.21364
     Eigenvalues ---    0.22296   0.22547   0.24987   0.32711   0.35749
     Eigenvalues ---    0.36384   0.38565   0.43336   0.44064   0.48059
     Eigenvalues ---    0.48929   0.53334   0.53566   0.55804   0.82168
     Eigenvalues ---    0.88487
 RFO step:  Lambda=-1.28980484D-02 EMin= 7.22855509D-03
 Quartic linear search produced a step of -0.12850.
 Iteration  1 RMS(Cart)=  0.03469717 RMS(Int)=  0.00165846
 Iteration  2 RMS(Cart)=  0.00126851 RMS(Int)=  0.00084472
 Iteration  3 RMS(Cart)=  0.00000225 RMS(Int)=  0.00084472
 Iteration  4 RMS(Cart)=  0.00000000 RMS(Int)=  0.00084472
 Variable       Old X    -DE/DX   Delta X   Delta X   Delta X     New X
                                 (Linear)    (Quad)   (Total)
    R1        2.72081  -0.01761  -0.00654  -0.03381  -0.04017   2.68064
    R2        2.61439  -0.00480   0.00009  -0.01108  -0.01092   2.60347
    R3        2.07845  -0.01972  -0.01288  -0.02983  -0.04272   2.03573
    R4        2.61687  -0.00345  -0.00119  -0.00382  -0.00503   2.61184
    R5        2.82989  -0.01150  -0.00111  -0.02831  -0.02937   2.80052
    R6        2.59576   0.00084   0.00066   0.00347   0.00403   2.59980
    R7        2.03580  -0.00049  -0.00008  -0.00108  -0.00116   2.03463
    R8        2.54946  -0.00296   0.00007  -0.00393  -0.00390   2.54556
    R9        2.04651  -0.00042  -0.00015  -0.00083  -0.00098   2.04552
   R10        2.89047   0.02051  -0.02222   0.12757   0.10549   2.99596
   R11        2.33276  -0.00689   0.00032  -0.00741  -0.00709   2.32567
   R12        2.35870   0.00646  -0.00074   0.01069   0.00990   2.36860
   R13        3.20936  -0.00604  -0.05071   0.02432  -0.02657   3.18279
   R14        1.81919  -0.00378   0.00102  -0.00775  -0.00673   1.81245
   R15        2.02971  -0.05328  -0.01810  -0.06800  -0.08609   1.94362
    A1        1.88908   0.00669   0.00323   0.02341   0.02663   1.91571
    A2        2.06899  -0.00449  -0.01263  -0.01436  -0.02706   2.04194
    A3        2.02586   0.00098   0.00131   0.01767   0.01904   2.04490
    A4        1.85257  -0.00044  -0.00031  -0.00956  -0.01002   1.84255
    A5        2.18102  -0.00412  -0.00842  -0.00554  -0.01372   2.16730
    A6        2.13465   0.00487   0.00669   0.02005   0.02672   2.16137
    A7        1.86071  -0.00082  -0.00015   0.00222   0.00192   1.86262
    A8        2.10157  -0.00034  -0.00017  -0.00460  -0.00473   2.09685
    A9        2.31929   0.00116   0.00032   0.00292   0.00330   2.32260
   A10        1.96375  -0.00186  -0.00008  -0.00221  -0.00261   1.96114
   A11        2.22238   0.00154   0.00038   0.00400   0.00428   2.22666
   A12        2.09695   0.00035  -0.00029  -0.00135  -0.00175   2.09520
   A13        1.84989  -0.00367  -0.00287  -0.01477  -0.01767   1.83222
   A14        2.63447   0.00624  -0.00209   0.03978   0.03941   2.67388
   A15        2.00418  -0.00244  -0.00226  -0.01489  -0.01780   1.98637
   A16        1.94790   0.00842   0.00166   0.04699   0.04835   1.99625
   A17        2.33080  -0.00597   0.00064  -0.03077  -0.03074   2.30006
   A18        2.35142  -0.00806   0.00977  -0.02455  -0.01531   2.33610
   A19        2.33726   0.00537  -0.00543   0.01021   0.00074   2.33800
   A20        1.67535  -0.00140   0.02613  -0.05388  -0.02870   1.64665
   A21        2.00196  -0.00762  -0.00871  -0.06262  -0.07274   1.92923
   A22        2.32370   0.00922  -0.03429   0.08778   0.05400   2.37770
    D1        0.12729   0.00080   0.00077   0.00333   0.00415   0.13143
    D2       -2.52221  -0.00148   0.00208  -0.01231  -0.00996  -2.53216
    D3        2.48195   0.00509  -0.00588   0.04138   0.03486   2.51681
    D4       -0.16754   0.00281  -0.00458   0.02575   0.02075  -0.14679
    D5       -0.11126  -0.00141  -0.00250  -0.02177  -0.02426  -0.13552
    D6       -2.48778  -0.00271   0.01143  -0.04239  -0.03168  -2.51947
    D7        1.20065  -0.00158   0.00812   0.01181   0.02058   1.22123
    D8       -2.78723   0.00521   0.00115   0.05362   0.05465  -2.73258
    D9       -0.09128   0.00044   0.00146   0.01714   0.01858  -0.07270
   D10        3.10370   0.00041   0.00157   0.00805   0.00957   3.11327
   D11        2.57443  -0.00044  -0.00533   0.02364   0.01854   2.59297
   D12       -0.51377  -0.00047  -0.00522   0.01455   0.00952  -0.50425
   D13        3.09907   0.00340  -0.00594   0.04227   0.03681   3.13587
   D14       -0.01949   0.00312  -0.00874  -0.00701  -0.01631  -0.03580
   D15        0.52431   0.00274  -0.00132   0.03354   0.03268   0.55699
   D16       -2.59425   0.00245  -0.00412  -0.01575  -0.02044  -2.61469
   D17        0.02480  -0.00127  -0.00319  -0.03174  -0.03489  -0.01009
   D18       -3.13240   0.00018   0.00015   0.00170   0.00173  -3.13067
   D19        3.10354  -0.00132  -0.00334  -0.02137  -0.02457   3.07897
   D20       -0.05366   0.00013  -0.00000   0.01207   0.01204  -0.04162
[...]
 ! D1    D(5,1,2,3)             12.3878         -DE/DX =    0.0                 !
 ! D2    D(5,1,2,9)            170.5133         -DE/DX =    0.0                 !
 ! D3    D(8,1,2,3)            142.2067         -DE/DX =    0.0                 !
 ! D4    D(8,1,2,9)            -59.6678         -DE/DX =    0.0                 !
 ! D5    D(2,1,5,4)            -11.2018         -DE/DX =    0.0                 !
 ! D6    D(8,1,5,4)           -139.997          -DE/DX =    0.0                 !
 ! D7    D(2,1,8,13)            40.1922         -DE/DX =    0.0                 !
 ! D8    D(5,1,8,13)           167.0187         -DE/DX =    0.0                 !
 ! D9    D(1,2,3,4)             -8.3396         -DE/DX =    0.0                 !
 ! D10   D(1,2,3,6)            172.0895         -DE/DX =    0.0                 !
 ! D11   D(9,2,3,4)           -165.4601         -DE/DX =    0.0                 !
 ! D12   D(9,2,3,6)             14.969          -DE/DX =    0.0                 !
 ! D13   D(1,2,9,10)          -163.4568         -DE/DX =    0.0                 !
 ! D14   D(1,2,9,11)            18.4339         -DE/DX =    0.0                 !
 ! D15   D(3,2,9,10)            -9.9238         -DE/DX =    0.0                 !
 ! D16   D(3,2,9,11)           171.9668         -DE/DX =    0.0                 !
 ! D17   D(2,3,4,5)              1.5795         -DE/DX =    0.0                 !
 ! D18   D(2,3,4,7)           -177.4699         -DE/DX =    0.0                 !
 ! D19   D(6,3,4,5)           -178.9347         -DE/DX =    0.0                 !
 ! D20   D(6,3,4,7)              2.0158         -DE/DX =    0.0                 !
 ! D21   D(3,4,5,1)              5.9672         -DE/DX =    0.0                 !
 ! D22   D(7,4,5,1)           -174.9018         -DE/DX =    0.0                 !
 ! D23   D(1,8,13,12)          -93.3322         -DE/DX =    0.0                 !
 ! D24   D(1,8,13,14)            5.6262         -DE/DX =    0.0                 !
 ! D25   D(2,9,11,14)           31.3894         -DE/DX =    0.0                 !
 ! D26   D(10,9,11,14)        -146.3162         -DE/DX =    0.0                 !
 ! D27   D(9,11,14,13)           4.3411         -DE/DX =    0.0                 !
 ! D28   D(8,13,14,11)         -42.6778         -DE/DX =    0.0                 !
 ! D29   D(12,13,14,11)         70.7441         -DE/DX =    0.0                 !
 --------------------------------------------------------------------------------
 GradGradGradGradGradGradGradGradGradGradGradGradGradGradGradGradGradGrad


 ----------------------------------------------------------------------

 Electric dipole moment (input orientation):
 (Debye = 10**-18 statcoulomb cm , SI units = C m)
                  (au)            (Debye)         (10**-30 SI)
   Tot        0.162090D+01      0.411991D+01      0.137425D+02
   x         -0.120036D+01     -0.305101D+01     -0.101771D+02
   y          0.375337D+00      0.954011D+00      0.318224D+01
   z         -0.102253D+01     -0.259900D+01     -0.866934D+01

 Dipole polarizability, Alpha (input orientation).
 (esu units = cm**3 , SI units = C**2 m**2 J**-1)
 Alpha(0;0):
               (au)            (10**-24 esu)      (10**-40 SI)
   iso        0.812593D+02      0.120414D+02      0.133979D+02
   aniso      0.412309D+02      0.610979D+01      0.679806D+01
   xx         0.985659D+02      0.146060D+02      0.162513D+02
   yx        -0.985248D+00     -0.145999D+00     -0.162445D+00
   yy         0.901827D+02      0.133637D+02      0.148691D+02
   zx         0.973221D+00      0.144216D+00      0.160462D+00
   zy        -0.558311D+01     -0.827331D+00     -0.920530D+00
   zz         0.550295D+02      0.815452D+01      0.907313D+01

 ----------------------------------------------------------------------

 Dipole orientation:
     7         -1.81229340          1.75536597          0.19117203
     7          0.11204633         -0.06531412          0.00271339
     6         -0.35148129         -1.80481294          1.88509867
     6         -2.26599258         -0.80838380          3.33292886
     7         -3.08779784          1.43283451          2.44100858
     1          0.73474485         -3.52204485          1.97662119
     1         -3.09332905         -1.60026960          5.02596742
     1         -1.19604901          3.55464690         -0.15134497
     6          1.56259913         -0.48758512         -2.30221561
     8          2.72690330         -2.50979984         -2.34522696
     8          1.46559407          1.29981512         -3.86547976
     1          2.65576316          6.27399081         -1.56613501
     8          1.00107262          5.92919619         -2.23085685
     1          1.16081536          4.23142382         -3.05496410

 Electric dipole moment (dipole orientation):
 (Debye = 10**-18 statcoulomb cm , SI units = C m)
                  (au)            (Debye)         (10**-30 SI)
   Tot        0.162090D+01      0.411991D+01      0.137425D+02
   x          0.000000D+00      0.000000D+00      0.000000D+00
   y          0.000000D+00      0.000000D+00      0.000000D+00
   z          0.162090D+01      0.411991D+01      0.137425D+02

 Dipole polarizability, Alpha (dipole orientation).
 (esu units = cm**3 , SI units = C**2 m**2 J**-1)
 Alpha(0;0):
               (au)            (10**-24 esu)      (10**-40 SI)
   iso        0.812593D+02      0.120414D+02      0.133979D+02
   aniso      0.412309D+02      0.610979D+01      0.679806D+01
   xx         0.743722D+02      0.110208D+02      0.122623D+02
   yx        -0.990644D+01     -0.146798D+01     -0.163335D+01
   yy         0.857368D+02      0.127049D+02      0.141361D+02
   zx        -0.191638D+02     -0.283978D+01     -0.315968D+01
   zy        -0.803941D+01     -0.119132D+01     -0.132552D+01
   zz         0.836690D+02      0.123985D+02      0.137952D+02

 ----------------------------------------------------------------------
 1\1\GINC-NODE4\Freq\UM062X\6-31+G(d,p)\C3H5N3O3(1-,2)\GONGKE2021\04-Ju
 n-2023\0\\#N Geom=AllCheck Guess=TCheck SCRF=Check GenChk UM062X/6-31+
 G(d,p) Freq\\test\\-1,2\N,-0.8091147705,-0.9757744218,0.4312934311\N,0
 .041924459,0.03999346,-0.0368115792\C,-0.7617637081,1.1351008851,-0.27
 0399405\C,-2.0570146504,0.6960332481,-0.1255562261\N,-2.1208326711,-0.
 6059947896,0.2196105643\H,-0.3205675226,2.0855989439,-0.5162023562\H,-
 2.9670079632,1.2627274153,-0.2694818655\H,-0.5585649755,-1.9042885545,
 0.0836597932\C,1.4781568324,0.0543769602,0.2159297872\O,2.016467908,1.
 1488177404,0.0218119305\O,1.957247861,-1.0573310757,0.5567807058\H,1.1
 974095466,-3.2550266737,-1.2867301232\O,0.8959197813,-3.2520935901,-0.
 3741314243\H,1.369449523,-2.4753055377,0.0464166075\\Version=ES64L-G16
 RevA.03\State=2-A\HF=-507.0910851\S2=0.765247\S2-1=0.\S2A=0.750076\RMS
 D=4.816e-09\RMSF=1.759e-05\ZeroPoint=0.0971245\Thermal=0.1063086\Dipol
 e=-1.2003603,0.3753368,-1.0225267\DipoleDeriv=0.076213,0.3919275,-0.17
 7343,0.2013426,-0.453933,0.1027998,-0.0581748,0.3458243,-0.2893648,-1.
 6987923,0.0924975,-0.047087,0.3046896,-0.0805391,-0.0995985,-0.1631001
 ,-0.057027,-0.0341861,0.047536,-0.1540475,-0.0633911,-0.4119325,-0.183
 9823,0.0531657,0.0681701,-0.0261277,-0.2562376,0.3743311,0.0587397,0.0
 168795,0.4212401,0.4136985,-0.0989799,-0.1059973,-0.1508297,-0.1044813
 ,-0.5653483,-0.3317682,0.1515938,-0.5057511,-0.4895139,-0.0247423,0.06
 57502,-0.0568786,-0.2259104,0.1102675,-0.0273377,0.0126402,0.0092039,0
 .0547178,0.0419731,0.0065718,0.0390255,0.2033419,-0.0589724,0.1054091,
 -0.0268088,0.1002155,0.0316554,0.0301042,-0.0191225,0.0370406,0.144027
 ,0.2806238,-0.1870708,-0.023576,-0.1354652,0.4981027,0.0173017,0.00579
 32,-0.0699711,0.268604,2.8331669,-0.1197757,0.2023525,0.076601,2.23594
 95,-0.3173605,0.3076107,-0.4853301,0.4306392,-1.2097795,-0.3700995,0.0
 293979,-0.6383311,-1.3940143,0.0934901,0.0876794,0.1882712,-0.5094446,
 -1.0773201,0.3247926,-0.1361328,0.5163352,-1.802303,0.08626,-0.2225312
 ,0.1426119,-0.5859829,0.2763177,-0.0353928,0.0826767,-0.0630026,0.3311
 617,0.0660309,0.0505928,0.0343842,0.1561041,-0.6918604,0.028785,-0.141
 8216,0.1353665,-1.2626621,-0.1861923,-0.0802061,-0.2966299,-0.5514436,
 0.303617,0.2233409,0.1206197,-0.0105118,1.101662,0.235748,0.0569638,0.
 3556363,0.3543352\Polar=98.5658535,-0.9852479,90.1826819,0.973221,-5.5
 831062,55.0294506\Quadrupole=-7.9092207,-1.2783307,9.1875515,-5.433142
 9,-1.4398221,2.5614112\PG=C01 [X(C3H5N3O3)]\NImag=0\\0.50332534,-0.112
 37379,0.77950281,-0.03977120,0.03893983,0.15481714,-0.12462746,-0.0283
 9966,0.03117248,0.70006201,-0.05799671,-0.18275881,0.03757283,-0.06179
 755,0.58280312,0.04194553,0.06457130,-0.05079541,0.02547829,-0.1494240
 6,0.10963315,-0.00317486,0.01026993,-0.01751304,-0.18832896,0.10006677
 ,-0.02225547,0.69657464,-0.00096122,-0.07084041,0.02496746,0.08783123,
 -0.23174521,0.04489960,0.13146105,0.74947510,0.00398529,0.02219547,-0.
 00949367,-0.01425085,0.03915302,-0.04229430,-0.04524017,-0.17304945,0.
 13187697,-0.03561106,0.03987463,-0.00022547,-0.06660930,0.04596994,-0.
 01239233,-0.36161961,-0.07563886,0.02614291,0.84353514,0.04384686,-0.0
 5644391,0.01994922,0.02255933,-0.00496935,0.00361666,-0.05260341,-0.09
 054308,0.01233940,-0.12820904,0.57072345,-0.01284529,0.02252730,-0.001
 12659,-0.00043749,0.00114090,0.01390399,0.02312867,0.01393579,-0.06062
 182,0.02301032,-0.12770867,0.15475071,-0.23521054,0.01616862,-0.005005
 40,-0.09375870,-0.01449393,0.00277896,-0.00253601,-0.04474855,0.006706
 82,-0.10008155,0.01059153,-0.00657235,0.42521980,0.07707378,-0.1146453
 2,0.00169693,-0.00939009,0.00307400,-0.00341173,-0.09222824,-0.0778297
 0,0.02748261,-0.01172473,-0.28178846,0.06408771,0.00146461,0.48208726,
 -0.05739594,0.01186152,-0.04079293,0.00916631,0.00547432,-0.00491781,0
 .02667369,0.02216658,0.02042066,0.00077453,0.06396228,-0.06956419,0.01
 187320,-0.10977933,0.09928937,-0.00446408,0.00475037,-0.00068384,0.012
 36157,0.01813385,-0.00557263,-0.10872779,-0.12275970,0.03392481,0.0029
 4617,-0.02150563,0.00524943,-0.00400156,-0.00116315,0.00099781,0.10138
 058,0.00116483,-0.00218611,-0.00079667,-0.01159368,-0.01652116,0.00495
 727,-0.11187112,-0.30234671,0.07283263,0.00111941,0.00199539,-0.000815
 56,0.00285283,0.00193058,0.00134078,0.12229210,0.31839015,-0.00218163,
 0.00208023,0.00236729,0.00169759,0.00327074,-0.00344154,0.02987308,0.0
 7249010,-0.03715639,0.00018882,0.00090662,-0.00164015,0.00156532,0.000
 31000,0.00674303,-0.03334809,-0.07751563,0.03600832,0.00151667,-0.0021
 0090,0.00102901,-0.00438161,-0.00280736,0.00002345,-0.00941075,0.01801
 185,-0.00431823,-0.27624314,0.12817329,-0.03233672,0.00614933,0.000874
 57,-0.00017143,-0.00019664,-0.00052347,0.00013285,0.28199809,0.0005672
 8,-0.00669941,0.00166277,-0.00415848,-0.00215803,0.00235661,-0.0084378
 4,0.01170836,-0.00261049,0.12470959,-0.13194598,0.02592342,0.02806791,
 -0.01061956,0.00227988,0.00061904,-0.00055834,-0.00054626,-0.14265973,
 0.13923129,0.00079695,0.00453164,0.00688258,0.00034738,0.00205518,0.00
 626007,0.00255295,-0.00298512,0.00089594,-0.03195439,0.02532966,-0.037
 69671,-0.00640257,0.00239013,-0.00687165,-0.00019589,-0.00046352,-0.00
 226676,0.03569265,-0.03014599,0.03190129,-0.07492364,0.06972349,0.0361
 2860,0.00560008,-0.02555141,-0.00920017,-0.00288566,-0.00373740,0.0009
 2590,-0.00873634,0.00026417,0.00167680,-0.00806758,0.03425435,0.007751
 23,0.00084391,-0.00062588,0.00039219,0.00029745,0.00104826,-0.00111621
 ,0.09096964,0.06963403,-0.34959848,-0.11118424,0.00569211,-0.02048625,
 -0.00212519,-0.00534353,0.00176439,-0.00172438,0.00088098,0.00226677,-
 0.00201248,0.00570467,0.00060333,0.00228063,0.00018926,-0.00045370,-0.
 00039851,-0.00009815,0.00035790,-0.00027764,-0.07393783,0.36735802,0.0
 5060855,-0.16019406,-0.06420294,-0.00924253,0.02442115,-0.00005920,0.0
 0693273,0.00102503,-0.00116240,-0.00558078,0.00039125,0.00124063,-0.00
 679521,0.01641286,-0.00352214,-0.00064806,0.00115240,0.00026249,-0.000
 10224,0.00117079,0.00016551,-0.03690011,0.11437769,0.06999369,-0.02390
 372,-0.00959861,-0.00304564,-0.12560084,-0.00207224,0.00220140,-0.0184
 0188,0.02160570,-0.00970164,0.00571875,-0.00467588,-0.00042052,0.02203
 061,0.00324309,0.00036396,0.00215932,-0.00241276,0.00149568,0.00183397
 ,0.00003855,0.00006758,0.00675040,-0.00655067,0.00133042,0.48450860,-0
 .01848486,-0.00070145,-0.00463131,0.00790508,-0.09428593,0.01505789,0.
 02264955,0.00828613,0.00068566,0.00676856,-0.00562807,0.00164831,-0.00
 911666,-0.00766919,0.00257863,0.00244514,-0.00268398,0.00096206,0.0011
 9847,0.00054056,-0.00019808,-0.00835891,0.00090450,-0.00183765,0.05084
 016,1.02828250,0.01100821,-0.00667194,-0.00204267,-0.02169288,0.020168
 48,-0.05438422,-0.00122307,-0.00157633,-0.00631057,-0.00056702,0.00038
 508,0.00073779,0.00590693,0.00327412,-0.00217902,-0.00044689,0.0003256
 8,-0.00004222,0.00039363,0.00035868,0.00134868,0.00274280,-0.00198929,
 0.00201063,0.01942827,-0.18967539,0.26982548,-0.00373143,0.00465259,-0
 .00435744,-0.06164548,-0.05553612,0.00255649,0.00222078,-0.00264385,0.
 00149333,-0.00019941,-0.00259161,0.00044653,-0.00750012,-0.00204408,0.
 00054882,-0.00217337,-0.00093416,0.00029713,-0.00050963,0.00016739,-0.
 00010542,-0.00197314,0.00110864,0.00027727,-0.19493104,-0.19690586,0.0
 3152076,0.23556011,-0.00180704,0.00492892,-0.00007262,-0.04895694,-0.0
 1794008,-0.00255830,0.00343621,-0.00300837,0.00268840,-0.00263112,0.00
 094748,0.00026997,-0.00327041,0.00141960,-0.00083766,-0.00192036,0.001
 95519,-0.00118769,-0.00044031,0.00018455,-0.00015728,0.00181940,0.0000
 4013,0.00036297,-0.18813081,-0.49032528,0.07398959,0.25092097,0.598636
 94,-0.00146962,0.00230038,0.00211335,0.00012227,-0.00298261,0.01954112
 ,-0.00128193,0.00124419,-0.00079132,0.00047662,-0.00077602,0.00034004,
 -0.00042635,-0.00053626,0.00065366,0.00044170,-0.00089012,-0.00073086,
 -0.00001082,-0.00005317,-0.00007997,-0.00034858,0.00049515,-0.00028421
 ,0.03172894,0.07207549,-0.09709078,-0.03274613,-0.10178058,0.05517926,
 0.00421544,0.00310637,0.00010344,-0.05227536,0.05531675,-0.02453604,-0
 .00352162,-0.00907546,0.00044049,-0.00305570,0.00412301,-0.00079576,-0
 .00262512,-0.00082351,-0.00114440,-0.00014020,0.00049777,-0.00012859,-
 0.00101009,-0.00003715,0.00038474,-0.00031291,0.00216648,0.00083896,-0
 .16112694,0.13987122,-0.04851168,0.03439370,-0.01014445,0.00381249,0.1
 9645740,-0.00846148,0.00283573,-0.00624951,0.04466489,-0.01834349,0.02
 322883,0.00249226,0.00739935,-0.00075266,-0.00156129,-0.00523721,0.001
 08776,0.00952751,0.00570348,-0.00014774,-0.00127502,0.00057865,-0.0004
 3072,0.00047523,0.00014873,-0.00023664,0.00712471,-0.00536989,0.001390
 61,0.12662305,-0.42033733,0.09635035,0.00472273,-0.10207718,0.03290409
 ,-0.17147577,0.54386300,0.00285790,-0.00085025,0.00128112,-0.02115657,
 0.01882143,0.00698242,-0.00144969,-0.00235067,0.00450475,-0.00013615,0
 .00148286,-0.00027414,-0.00303551,-0.00074545,0.00105758,0.00020440,-0
 .00006570,-0.00011563,-0.00029391,-0.00030944,-0.00060593,-0.00025952,
 -0.00002367,-0.00241496,-0.04796905,0.10544770,-0.11278995,0.00079528,
 0.02708439,0.02119992,0.07724759,-0.13939336,0.08893083,-0.00052889,0.
 00047070,-0.00036572,-0.00054267,0.00022068,-0.00042688,-0.00011185,0.
 00003999,-0.00005690,-0.00003739,0.00024444,-0.00005217,-0.00014058,0.
 00001569,-0.00017629,0.00001005,0.00001588,0.00003389,0.00000385,0.000
 02764,0.00001631,0.00054496,-0.00110680,0.00236282,0.00115889,-0.00069
 327,0.00067165,-0.00030138,-0.00001609,-0.00000469,-0.00131037,-0.0003
 9719,0.00026960,0.06487968,0.00098279,-0.00025273,-0.00017728,-0.00036
 533,0.00035812,0.00053949,0.00024281,-0.00040485,0.00010151,0.00003679
 ,0.00005993,-0.00000801,-0.00019838,-0.00025530,0.00004092,0.00000530,
 -0.00001131,-0.00002577,-0.00003672,0.00000341,-0.00001281,-0.00017896
 ,0.00044886,-0.00139327,-0.00051732,-0.00163649,-0.00044598,0.00029491
 ,0.00029045,0.00007056,-0.00118242,-0.00138095,0.00164296,0.01165107,0
 .02440129,-0.00028887,0.00079616,0.00020831,-0.00035859,-0.00004404,-0
 .00013071,0.00002048,-0.00006454,0.00000971,-0.00004783,0.00009244,-0.
 00003987,-0.00005595,-0.00002844,-0.00000665,0.00000354,0.00000883,0.0
 0001437,-0.00002537,0.00002252,-0.00000433,0.00072629,-0.00081145,-0.0
 0053804,0.00038323,-0.00174120,0.00052960,0.00015983,0.00056774,-0.000
 25377,-0.00058335,0.00103994,0.00101416,-0.15552048,0.01966578,0.51222
 985,-0.00515471,0.00335381,0.00131074,0.00445781,-0.00261568,0.0021623
 4,0.00013272,0.00234022,-0.00044484,-0.00042994,-0.00080744,0.00008240
 ,0.00289592,0.00209616,0.00104947,-0.00024538,0.00013662,-0.00009312,0
 .00000736,0.00020937,-0.00017518,0.00085655,-0.00274468,-0.00271869,-0
 .01495761,0.01019375,-0.00795168,0.00208385,-0.00421242,0.00220249,0.0
 0676815,-0.02720745,-0.00436754,-0.07109132,-0.02307048,0.14343937,0.1
 8460217,0.00318773,-0.00233512,-0.00113830,0.00444302,-0.00033728,0.00
 010584,0.00000374,0.00102087,-0.00017621,0.00063539,-0.00100121,0.0002
 7776,0.00049825,-0.00023844,-0.00062932,-0.00009601,-0.00000293,-0.000
 05717,0.00021224,-0.00022972,0.00014158,-0.00177638,-0.00353618,0.0013
 9168,-0.01254864,0.01703846,-0.00848291,-0.00041171,-0.00856251,0.0035
 4552,-0.00687689,-0.04161540,-0.01277091,-0.00984713,-0.02541864,-0.02
 592537,0.16518457,0.28876781,0.00198272,-0.00172470,0.00112384,0.00254
 991,-0.00099304,0.00100975,0.00035314,-0.00000294,0.00008136,0.0002462
 8,-0.00064574,0.00014541,0.00029880,-0.00025307,0.00036005,-0.00005342
 ,-0.00003995,-0.00011344,0.00008330,-0.00013263,-0.00002230,-0.0013164
 1,0.00131416,-0.00523096,-0.00909235,0.00685413,-0.00488781,0.00061325
 ,-0.00445857,0.00172909,-0.00194308,-0.02307740,0.00227789,0.17283133,
 0.01258811,-0.49312200,-0.09665571,0.12730537,0.59846414,0.00227294,0.
 00010245,0.00122347,-0.00471110,0.00316301,-0.00276294,-0.00020915,-0.
 00172500,0.00039306,0.00042337,0.00059036,-0.00013385,-0.00237388,-0.0
 0164846,-0.00031097,0.00024744,-0.00011837,0.00007489,-0.00005489,-0.0
 0016184,0.00009108,-0.00896375,0.00440551,-0.00036313,0.01476148,-0.00
 831236,0.00872097,-0.00129343,0.00535339,-0.00249640,-0.01645638,0.014
 74782,-0.00270684,0.00746703,0.01233596,0.01214770,-0.10992557,-0.1426
 0819,-0.06989776,0.11881590,0.00362780,-0.00080569,-0.00053911,-0.0084
 3392,0.00331035,-0.00181420,-0.00013819,-0.00293587,0.00083449,-0.0002
 3025,0.00156426,-0.00035420,-0.00304799,-0.00177229,-0.00059148,0.0002
 8482,-0.00008574,0.00014199,-0.00027901,0.00003623,0.00002888,-0.00006
 760,0.00570058,0.00132855,0.02415637,-0.03178443,0.01398986,-0.0007998
 4,0.01351016,-0.00561663,-0.00546594,0.03383251,0.00203010,-0.00062562
 ,0.00379821,0.00642164,-0.12285634,-0.22354972,-0.11673376,0.11387573,
 0.19918144,0.00076738,-0.00036288,-0.00033943,-0.00339533,0.00136571,-
 0.00130731,-0.00057138,-0.00069969,0.00004109,0.00006448,0.00067497,-0
 .00015508,-0.00083670,-0.00090009,-0.00066995,0.00012714,-0.00003045,0
 .00011148,-0.00009617,0.00002329,0.00009360,-0.00120282,0.00207921,0.0
 0374189,0.01322973,-0.00722624,0.00527506,-0.00149970,0.00608964,-0.00
 152551,-0.00518482,0.01428645,-0.01104806,-0.01958248,-0.03258623,-0.0
 1991062,-0.03784005,-0.08358756,-0.10181502,0.05602071,0.10087388,0.12
 750786\\-0.00000950,0.00000726,0.00000077,-0.00001382,-0.00001043,0.00
 002406,-0.00001532,0.00000417,-0.00000527,0.00000893,0.00002108,-0.000
 01039,0.00000831,-0.00001700,0.00000808,0.00000937,-0.00000226,0.00000
 266,-0.00000128,-0.00000267,0.00000375,0.00000563,-0.00000240,-0.00000
 831,0.00003567,0.00000610,-0.00000942,-0.00001337,-0.00001667,-0.00000
 361,0.00000897,-0.00000838,-0.00001750,0.00000104,-0.00000347,-0.00000
 116,0.00003658,0.00002515,-0.00002518,-0.00006120,-0.00000050,0.000041
 52\\\@


 ALL MEN WHO EXPLORE
 DEPLORE
 THAT FRUSTRATING HURDLE
 THE GIRDLE.

         -- COLIN FLETCHER
 Job cpu time:       0 days  0 hours 33 minutes  7.7 seconds.
 Elapsed time:       0 days  0 hours  1 minutes 23.4 seconds.
 File lengths (MBytes):  RWF=    127 Int=      0 D2E=      0 Chk=      6 Scr=      1
 Normal termination of Gaussian 16 at Sun Jun  4 07:15:09 2023.
