 Entering Gaussian System, Link 0=/opt/soft/g16/g16
 Initial command:
 /opt/soft/g16/l1.exe "/scratch/gongke2021/RC/Gau-7299.inp" -scrdir="/scratch/gongke2021/RC/"
 Entering Link 1 = /opt/soft/g16/l1.exe PID=      7300.
  
 Copyright (c) 1988,1990,1992,1993,1995,1998,2003,2009,2016,
            Gaussian, Inc.  All Rights Reserved.
  
 This is part of the Gaussian(R) 16 program.  It is based on
 the Gaussian(R) 09 system (copyright 2009, Gaussian, Inc.),
 the Gaussian(R) 03 system (copyright 2003, Gaussian, Inc.),
 the Gaussian(R) 98 system (copyright 1998, Gaussian, Inc.),
 the Gaussian(R) 94 system (copyright 1995, Gaussian, Inc.),
 the Gaussian 92(TM) system (copyright 1992, Gaussian, Inc.),
 the Gaussian 90(TM) system (copyright 1990, Gaussian, Inc.),
 the Gaussian 88(TM) system (copyright 1988, Gaussian, Inc.),
 the Gaussian 86(TM) system (copyright 1986, Carnegie Mellon
 University), and the Gaussian 82(TM) system (copyright 1983,
 Carnegie Mellon University). Gaussian is a federally registered
 trademark of Gaussian, Inc.
  
 This software contains proprietary and confidential information,
 including trade secrets, belonging to Gaussian, Inc.
  
 This software is provided under written license and may be
 used, copied, transmitted, or stored only in accord with that
 written license.
  
 The following legend is applicable only to US Government
 contracts under FAR:
  
                    RESTRICTED RIGHTS LEGEND
  
 Use, reproduction and disclosure by the US Government is
 subject to restrictions as set forth in subparagraphs (a)
 and (c) of the Commercial Computer Software - Restricted
 Rights clause in FAR 52.227-19.
  
 Gaussian, Inc.
 340 Quinnipiac St., Bldg. 40, Wallingford CT 06492
  
  
 ---------------------------------------------------------------
 Warning -- This program may not be used in any manner that
 competes with the business of Gaussian, Inc. or will provide
 assistance to any competitor of Gaussian, Inc.  The licensee
 of this program is prohibited from giving any competitor of
 Gaussian, Inc. access to this program.  By using this program,
 the user acknowledges that Gaussian, Inc. is engaged in the
 business of creating and licensing software in the field of
 computational chemistry and represents and warrants to the
 licensee that it is not a competitor of Gaussian, Inc. and that
 it will not use this program in any manner prohibited above.
 ---------------------------------------------------------------
  

 Cite this work as:
 Gaussian 16, Revision A.03,
 M. J. Frisch, G. W. Trucks, H. B. Schlegel, G. E. Scuseria, 
 M. A. Robb, J. R. Cheeseman, G. Scalmani, V. Barone, 
 G. A. Petersson, H. Nakatsuji, X. Li, M. Caricato, A. V. Marenich, 
 J. Bloino, B. G. Janesko, R. Gomperts, B. Mennucci, H. P. Hratchian, 
 J. V. Ortiz, A. F. Izmaylov, J. L. Sonnenberg, D. Williams-Young, 
 F. Ding, F. Lipparini, F. Egidi, J. Goings, B. Peng, A. Petrone, 
 T. Henderson, D. Ranasinghe, V. G. Zakrzewski, J. Gao, N. Rega, 
 G. Zheng, W. Liang, M. Hada, M. Ehara, K. Toyota, R. Fukuda, 
 J. Hasegawa, M. Ishida, T. Nakajima, Y. Honda, O. Kitao, H. Nakai, 
 T. Vreven, K. Throssell, J. A. Montgomery, Jr., J. E. Peralta, 
 F. Ogliaro, M. J. Bearpark, J. J. Heyd, E. N. Brothers, K. N. Kudin, 
 V. N. Staroverov, T. A. Keith, R. Kobayashi, J. Normand, 
 K. Raghavachari, A. P. Rendell, J. C. Burant, S. S. Iyengar, 
 J. Tomasi, M. Cossi, J. M. Millam, M. Klene, C. Adamo, R. Cammi, 
 J. W. Ochterski, R. L. Martin, K. Morokuma, O. Farkas, 
 J. B. Foresman, and D. J. Fox, Gaussian, Inc., Wallingford CT, 2016.
 
 ******************************************
 Gaussian 16:  ES64L-G16RevA.03 25-Dec-2016
                 4-Jun-2023 
 ******************************************
 %mem=10GB
 %nprocshared=24
 Will use up to   24 processors via shared memory.
 ----------------------------
 # opt freq 6-31+g(d,p) m062x
 ----------------------------
 1/18=20,19=15,26=3,38=1/1,3;
 2/9=110,12=2,17=6,18=5,40=1/2;
 3/5=1,6=6,7=111,11=2,25=1,30=1,71=1,74=-55/1,2,3;
 4//1;
 5/5=2,38=5/2;
 6/7=2,8=2,9=2,10=2,28=1/1;
 7//1,2,3,16;
 1/18=20,19=15,26=3/3(2);
 2/9=110/2;
 99//99;
 2/9=110/2;
 3/5=1,6=6,7=111,11=2,25=1,30=1,71=1,74=-55/1,2,3;
 4/5=5,16=3,69=1/1;
 5/5=2,38=5/2;
 7//1,2,3,16;
 1/18=20,19=15,26=3/3(-5);
 2/9=110/2;
 6/7=2,8=2,9=2,10=2,19=2,28=1/1;
 99/9=1/99;
 ----
 test
 ----
 Symbolic Z-matrix:
 Charge = -1 Multiplicity = 2
 N                    -0.83858  -0.8028   -0.00107 
 N                    -0.35628   0.42484   0.00037 
 C                    -1.44718   1.18732   0.00116 
 C                    -2.57144   0.34435   0.00026 
 N                    -2.14939  -0.91853  -0.00108 
 H                    -1.37506   2.26355   0.00217 
 H                    -3.62392   0.58021   0.00057 
 H                    -0.2211   -1.60397  -0.00155 
 C                     0.94487   0.36895  -0.05915 
 O                     1.82323   1.32672  -0.09475 
 O                     1.1173   -0.8896   -0.09132 
 

 GradGradGradGradGradGradGradGradGradGradGradGradGradGradGradGradGradGrad
 Berny optimization.
 Initialization pass.
                           ----------------------------
                           !    Initial Parameters    !
                           ! (Angstroms and Degrees)  !
 --------------------------                            --------------------------
 ! Name  Definition              Value          Derivative Info.                !
 --------------------------------------------------------------------------------
 ! R1    R(1,2)                  1.319          estimate D2E/DX2                !
 ! R2    R(1,5)                  1.3159         estimate D2E/DX2                !
 ! R3    R(1,8)                  1.0115         estimate D2E/DX2                !
 ! R4    R(2,3)                  1.331          estimate D2E/DX2                !
 ! R5    R(2,9)                  1.3037         estimate D2E/DX2                !
 ! R6    R(3,4)                  1.4052         estimate D2E/DX2                !
 ! R7    R(3,6)                  1.0786         estimate D2E/DX2                !
 ! R8    R(4,5)                  1.3315         estimate D2E/DX2                !
 ! R9    R(4,7)                  1.0786         estimate D2E/DX2                !
 ! R10   R(9,10)                 1.3            estimate D2E/DX2                !
 ! R11   R(9,11)                 1.2707         estimate D2E/DX2                !
 ! A1    A(2,1,5)              116.4943         estimate D2E/DX2                !
 ! A2    A(2,1,8)              120.9293         estimate D2E/DX2                !
 ! A3    A(5,1,8)              122.5764         estimate D2E/DX2                !
 ! A4    A(1,2,3)              103.5026         estimate D2E/DX2                !
 ! A5    A(1,2,9)              108.9651         estimate D2E/DX2                !
 ! A6    A(3,2,9)              147.418          estimate D2E/DX2                !
 ! A7    A(2,3,4)              108.1865         estimate D2E/DX2                !
 ! A8    A(2,3,6)              121.1174         estimate D2E/DX2                !
 ! A9    A(4,3,6)              130.6961         estimate D2E/DX2                !
 ! A10   A(3,4,5)              108.3832         estimate D2E/DX2                !
 ! A11   A(3,4,7)              130.5065         estimate D2E/DX2                !
 ! A12   A(5,4,7)              121.1104         estimate D2E/DX2                !
 ! A13   A(1,5,4)              103.4334         estimate D2E/DX2                !
 ! A14   A(2,9,10)             130.0886         estimate D2E/DX2                !
 ! A15   A(2,9,11)             100.3142         estimate D2E/DX2                !
 ! A16   A(10,9,11)            129.591          estimate D2E/DX2                !
 ! D1    D(5,1,2,3)             -0.0105         estimate D2E/DX2                !
 ! D2    D(5,1,2,9)           -177.2424         estimate D2E/DX2                !
 ! D3    D(8,1,2,3)           -179.9744         estimate D2E/DX2                !
 ! D4    D(8,1,2,9)              2.7937         estimate D2E/DX2                !
 ! D5    D(2,1,5,4)              0.0102         estimate D2E/DX2                !
 ! D6    D(8,1,5,4)            179.9735         estimate D2E/DX2                !
 ! D7    D(1,2,3,4)              0.0061         estimate D2E/DX2                !
 ! D8    D(1,2,3,6)           -179.9866         estimate D2E/DX2                !
 ! D9    D(9,2,3,4)            175.1408         estimate D2E/DX2                !
 ! D10   D(9,2,3,6)             -4.8519         estimate D2E/DX2                !
 ! D11   D(1,2,9,10)           179.1853         estimate D2E/DX2                !
 ! D12   D(1,2,9,11)             0.034          estimate D2E/DX2                !
 ! D13   D(3,2,9,10)             4.188          estimate D2E/DX2                !
 ! D14   D(3,2,9,11)          -174.9633         estimate D2E/DX2                !
 ! D15   D(2,3,4,5)             -0.0004         estimate D2E/DX2                !
 ! D16   D(2,3,4,7)            179.9945         estimate D2E/DX2                !
 ! D17   D(6,3,4,5)            179.9913         estimate D2E/DX2                !
 ! D18   D(6,3,4,7)             -0.0138         estimate D2E/DX2                !
 ! D19   D(3,4,5,1)             -0.0054         estimate D2E/DX2                !
 ! D20   D(7,4,5,1)            179.9991         estimate D2E/DX2                !
 --------------------------------------------------------------------------------
 Trust Radius=3.00D-01 FncErr=1.00D-07 GrdErr=1.00D-06 EigMax=2.50D+02 EigMin=1.00D-04
 Number of steps in this run=     57 maximum allowed number of steps=    100.
 GradGradGradGradGradGradGradGradGradGradGradGradGradGradGradGradGradGrad

                          Input orientation:                          
 ---------------------------------------------------------------------
 Center     Atomic      Atomic             Coordinates (Angstroms)
 Number     Number       Type             X           Y           Z
 ---------------------------------------------------------------------
      1          7           0       -0.838582   -0.802797   -0.001069
      2          7           0       -0.356276    0.424842    0.000365
      3          6           0       -1.447183    1.187316    0.001156
      4          6           0       -2.571441    0.344353    0.000256
      5          7           0       -2.149394   -0.918534   -0.001079
      6          1           0       -1.375064    2.263546    0.002172
      7          1           0       -3.623922    0.580211    0.000572
      8          1           0       -0.221104   -1.603967   -0.001551
      9          6           0        0.944875    0.368946   -0.059149
     10          8           0        1.823226    1.326721   -0.094748
     11          8           0        1.117301   -0.889597   -0.091325
 ---------------------------------------------------------------------
                    Distance matrix (angstroms):
                    1          2          3          4          5
     1  N    0.000000
     2  N    1.318984   0.000000
     3  C    2.081093   1.330957   0.000000
     4  C    2.078161   2.216627   1.405185   0.000000
     5  N    1.315912   2.240521   2.219844   1.331544   0.000000
     6  H    3.112922   2.102086   1.078644   2.261553   3.274940
     7  H    3.109796   3.271338   2.259816   1.078585   2.102492
     8  H    1.011510   2.033308   3.048694   3.052874   2.046490
     9  C    2.134730   1.303710   2.528894   3.516903   3.351936
    10  O    3.410109   2.360648   3.274783   4.504128   4.564170
    11  O    1.959887   1.976761   3.301317   3.890737   3.268069
                    6          7          8          9         10
     6  H    0.000000
     7  H    2.809089   0.000000
     8  H    4.036000   4.043490   0.000000
     9  C    2.995895   4.574068   2.292424   0.000000
    10  O    3.334080   5.498889   3.574479   1.300039   0.000000
    11  O    4.020315   4.964672   1.519773   1.270707   2.326028
                   11
    11  O    0.000000
 Stoichiometry    C3H3N3O2(1-,2)
 Framework group  C1[X(C3H3N3O2)]
 Deg. of freedom    27
 Full point group                 C1      NOp   1
 Largest Abelian subgroup         C1      NOp   1
 Largest concise Abelian subgroup C1      NOp   1
                         Standard orientation:                         
 ---------------------------------------------------------------------
 Center     Atomic      Atomic             Coordinates (Angstroms)
 Number     Number       Type             X           Y           Z
 ---------------------------------------------------------------------
      1          7           0       -0.563317   -0.851563    0.022055
      2          7           0        0.092591    0.292722    0.032833
      3          6           0       -0.875257    1.205957    0.006099
      4          6           0       -2.110034    0.535750   -0.020228
      5          7           0       -1.876636   -0.775133   -0.009166
      6          1           0       -0.647099    2.260195    0.006901
      7          1           0       -3.116617    0.922394   -0.045566
      8          1           0       -0.069358   -1.734121    0.037820
      9          6           0        1.372736    0.047584    0.004626
     10          8           0        2.381889    0.867004   -0.011637
     11          8           0        1.360604   -1.222804   -0.021136
 ---------------------------------------------------------------------
 Rotational constants (GHZ):           5.9044246           1.8738794           1.4227729
 Standard basis: 6-31+G(d,p) (6D, 7F)
 There are   167 symmetry adapted cartesian basis functions of A   symmetry.
 There are   167 symmetry adapted basis functions of A   symmetry.
   167 basis functions,   277 primitive gaussians,   167 cartesian basis functions
    30 alpha electrons       29 beta electrons
       nuclear repulsion energy       372.7030613085 Hartrees.
 NAtoms=   11 NActive=   11 NUniq=   11 SFac= 1.00D+00 NAtFMM=   60 NAOKFM=F Big=F
 Integral buffers will be    131072 words long.
 Raffenetti 2 integral format.
 Two-electron integral symmetry is turned on.
 One-electron integrals computed using PRISM.
 NBasis=   167 RedAO= T EigKep=  2.01D-05  NBF=   167
 NBsUse=   167 1.00D-06 EigRej= -1.00D+00 NBFU=   167
 ExpMin= 4.38D-02 ExpMax= 5.48D+03 ExpMxC= 8.25D+02 IAcc=3 IRadAn=         5 AccDes= 0.00D+00
 Harris functional with IExCor= 1009 and IRadAn=       5 diagonalized for initial guess.
 HarFok:  IExCor= 1009 AccDes= 0.00D+00 IRadAn=         5 IDoV= 1 UseB2=F ITyADJ=14
 ICtDFT=  3500011 ScaDFX=  1.000000  1.000000  1.000000  1.000000
 FoFCou: FMM=F IPFlag=           0 FMFlag=      100000 FMFlg1=           0
         NFxFlg=           0 DoJE=T BraDBF=F KetDBF=T FulRan=T
         wScrn=  0.000000 ICntrl=       500 IOpCl=  0 I1Cent=   200000004 NGrid=           0
         NMat0=    1 NMatS0=      1 NMatT0=    0 NMatD0=    1 NMtDS0=    0 NMtDT0=    0
 Petite list used in FoFCou.
 Initial guess <Sx>= 0.0000 <Sy>= 0.0000 <Sz>= 0.5000 <S**2>= 0.7500 S= 0.5000
 Keep R1 and R2 ints in memory in canonical form, NReq=220618657.
 Requested convergence on RMS density matrix=1.00D-08 within 128 cycles.
 Requested convergence on MAX density matrix=1.00D-06.
 Requested convergence on             energy=1.00D-06.
 No special actions if energy rises.
 SCF Done:  E(UM062X) =  -430.569582465     A.U. after   19 cycles
            NFock= 19  Conv=0.45D-08     -V/T= 2.0059
 <Sx>= 0.0000 <Sy>= 0.0000 <Sz>= 0.5000 <S**2>= 0.7642 S= 0.5071
 <L.S>=  0.00000000000    
 Annihilation of the first spin contaminant:
 S**2 before annihilation     0.7642,   after     0.7501

 **********************************************************************

            Population analysis using the SCF density.

 **********************************************************************

 Orbital symmetries:
 Alpha Orbitals:
       Occupied  (A) (A) (A) (A) (A) (A) (A) (A) (A) (A) (A) (A)
                 (A) (A) (A) (A) (A) (A) (A) (A) (A) (A) (A) (A)
                 (A) (A) (A) (A) (A) (A)
       Virtual   (A) (A) (A) (A) (A) (A) (A) (A) (A) (A) (A) (A)
                 (A) (A) (A) (A) (A) (A) (A) (A) (A) (A) (A) (A)
                 (A) (A) (A) (A) (A) (A) (A) (A) (A) (A) (A) (A)
                 (A) (A) (A) (A) (A) (A) (A) (A) (A) (A) (A) (A)
                 (A) (A) (A) (A) (A) (A) (A) (A) (A) (A) (A) (A)
                 (A) (A) (A) (A) (A) (A) (A) (A) (A) (A) (A) (A)
                 (A) (A) (A) (A) (A) (A) (A) (A) (A) (A) (A) (A)
                 (A) (A) (A) (A) (A) (A) (A) (A) (A) (A) (A) (A)
                 (A) (A) (A) (A) (A) (A) (A) (A) (A) (A) (A) (A)
                 (A) (A) (A) (A) (A) (A) (A) (A) (A) (A) (A) (A)
                 (A) (A) (A) (A) (A) (A) (A) (A) (A) (A) (A) (A)
                 (A) (A) (A) (A) (A)
 Beta  Orbitals:
       Occupied  (A) (A) (A) (A) (A) (A) (A) (A) (A) (A) (A) (A)
                 (A) (A) (A) (A) (A) (A) (A) (A) (A) (A) (A) (A)
                 (A) (A) (A) (A) (A)
       Virtual   (A) (A) (A) (A) (A) (A) (A) (A) (A) (A) (A) (A)
                 (A) (A) (A) (A) (A) (A) (A) (A) (A) (A) (A) (A)
                 (A) (A) (A) (A) (A) (A) (A) (A) (A) (A) (A) (A)
                 (A) (A) (A) (A) (A) (A) (A) (A) (A) (A) (A) (A)
                 (A) (A) (A) (A) (A) (A) (A) (A) (A) (A) (A) (A)
                 (A) (A) (A) (A) (A) (A) (A) (A) (A) (A) (A) (A)
                 (A) (A) (A) (A) (A) (A) (A) (A) (A) (A) (A) (A)
                 (A) (A) (A) (A) (A) (A) (A) (A) (A) (A) (A) (A)
                 (A) (A) (A) (A) (A) (A) (A) (A) (A) (A) (A) (A)
                 (A) (A) (A) (A) (A) (A) (A) (A) (A) (A) (A) (A)
                 (A) (A) (A) (A) (A) (A) (A) (A) (A) (A) (A) (A)
                 (A) (A) (A) (A) (A) (A)
 The electronic state is 2-A.
 Alpha  occ. eigenvalues --  -19.42009 -19.39954 -14.68957 -14.67237 -14.63182
 Alpha  occ. eigenvalues --  -10.49639 -10.43745 -10.43549  -1.12125  -0.98918
 Alpha  occ. eigenvalues --   -0.89323  -0.87365  -0.76747  -0.65011  -0.57554
 Alpha  occ. eigenvalues --   -0.55466  -0.45307  -0.45009  -0.38592  -0.37899
 Alpha  occ. eigenvalues --   -0.33500  -0.31796  -0.30192  -0.23329  -0.22365
 Alpha  occ. eigenvalues --   -0.19949  -0.16622  -0.14848  -0.13052  -0.01247
 Alpha virt. eigenvalues --    0.12907   0.15585   0.16523   0.17844   0.19046
 Alpha virt. eigenvalues --    0.19363   0.19625   0.21121   0.23356   0.23619
 Alpha virt. eigenvalues --    0.24584   0.25315   0.25889   0.28952   0.30809
 Alpha virt. eigenvalues --    0.31825   0.31964   0.33949   0.36135   0.36420
 Alpha virt. eigenvalues --    0.36577   0.37921   0.38255   0.40828   0.41193
 Alpha virt. eigenvalues --    0.41892   0.42833   0.44214   0.44891   0.46602
 Alpha virt. eigenvalues --    0.46777   0.47490   0.49037   0.49835   0.49950
 Alpha virt. eigenvalues --    0.50538   0.52205   0.54791   0.57726   0.61710
 Alpha virt. eigenvalues --    0.64449   0.65636   0.68674   0.70001   0.83810
 Alpha virt. eigenvalues --    0.87084   0.90330   0.93293   0.99771   1.00003
 Alpha virt. eigenvalues --    1.01951   1.02805   1.07105   1.08842   1.09133
 Alpha virt. eigenvalues --    1.09978   1.14335   1.14752   1.16480   1.16713
 Alpha virt. eigenvalues --    1.21511   1.24957   1.30141   1.34250   1.37472
 Alpha virt. eigenvalues --    1.39886   1.43124   1.45441   1.45749   1.47593
 Alpha virt. eigenvalues --    1.50801   1.52606   1.53152   1.57290   1.57480
 Alpha virt. eigenvalues --    1.60598   1.61557   1.63783   1.67383   1.68651
 Alpha virt. eigenvalues --    1.72299   1.76699   1.83124   1.88486   1.91238
 Alpha virt. eigenvalues --    1.96044   2.01236   2.01729   2.03625   2.08761
 Alpha virt. eigenvalues --    2.09502   2.14828   2.16054   2.17765   2.22777
 Alpha virt. eigenvalues --    2.26566   2.26931   2.36093   2.38303   2.39677
 Alpha virt. eigenvalues --    2.43014   2.46590   2.49336   2.53071   2.57347
 Alpha virt. eigenvalues --    2.58113   2.64393   2.67601   2.70223   2.74284
 Alpha virt. eigenvalues --    2.76047   2.81137   2.86769   2.92007   2.93468
 Alpha virt. eigenvalues --    2.96763   3.02896   3.05901   3.06830   3.10974
 Alpha virt. eigenvalues --    3.17973   3.29270   3.31052   3.38057   3.46025
 Alpha virt. eigenvalues --    3.47307   3.69296   3.79306   3.93506   4.24879
 Alpha virt. eigenvalues --    4.42715   4.50575   4.53391   4.61653   4.79377
 Alpha virt. eigenvalues --    4.94699   5.00020
  Beta  occ. eigenvalues --  -19.41815 -19.39923 -14.68680 -14.66719 -14.62809
  Beta  occ. eigenvalues --  -10.49602 -10.43853 -10.43336  -1.11007  -0.98300
  Beta  occ. eigenvalues --   -0.88757  -0.86377  -0.75790  -0.63782  -0.57076
  Beta  occ. eigenvalues --   -0.54745  -0.44633  -0.42495  -0.38238  -0.37531
  Beta  occ. eigenvalues --   -0.33019  -0.29847  -0.29691  -0.22311  -0.19340
  Beta  occ. eigenvalues --   -0.17062  -0.16302  -0.13266  -0.12781
  Beta virt. eigenvalues --    0.12612   0.14222   0.14653   0.15934   0.17400
  Beta virt. eigenvalues --    0.18839   0.19093   0.19237   0.20192   0.22149
  Beta virt. eigenvalues --    0.22694   0.24093   0.25386   0.25690   0.27721
  Beta virt. eigenvalues --    0.30617   0.31410   0.33589   0.33888   0.35464
  Beta virt. eigenvalues --    0.35808   0.36443   0.37769   0.38027   0.40573
  Beta virt. eigenvalues --    0.41114   0.41674   0.42969   0.44269   0.44409
  Beta virt. eigenvalues --    0.46205   0.46562   0.47306   0.48556   0.49690
  Beta virt. eigenvalues --    0.49944   0.50755   0.51893   0.54618   0.57695
  Beta virt. eigenvalues --    0.61852   0.64248   0.66109   0.68751   0.70227
  Beta virt. eigenvalues --    0.84001   0.86472   0.91653   0.93301   0.99903
  Beta virt. eigenvalues --    1.00231   1.02111   1.02909   1.07463   1.09038
  Beta virt. eigenvalues --    1.09962   1.11004   1.14480   1.16314   1.16879
  Beta virt. eigenvalues --    1.18271   1.21772   1.25032   1.30137   1.33964
  Beta virt. eigenvalues --    1.37730   1.40906   1.43529   1.45921   1.46180
  Beta virt. eigenvalues --    1.47952   1.51816   1.53201   1.53611   1.57463
  Beta virt. eigenvalues --    1.58103   1.60681   1.61702   1.64222   1.68096
  Beta virt. eigenvalues --    1.69468   1.73021   1.77425   1.83383   1.88701
  Beta virt. eigenvalues --    1.91550   1.96148   2.01583   2.02143   2.04027
  Beta virt. eigenvalues --    2.09030   2.09689   2.14963   2.16519   2.18019
  Beta virt. eigenvalues --    2.23145   2.27031   2.27552   2.36408   2.39048
  Beta virt. eigenvalues --    2.40413   2.43341   2.47121   2.49835   2.53849
  Beta virt. eigenvalues --    2.57856   2.58625   2.64767   2.68149   2.70574
  Beta virt. eigenvalues --    2.74701   2.76690   2.81569   2.87284   2.92667
  Beta virt. eigenvalues --    2.93970   2.97318   3.03251   3.06723   3.07515
  Beta virt. eigenvalues --    3.11231   3.18335   3.29617   3.31408   3.38258
  Beta virt. eigenvalues --    3.46411   3.47618   3.69636   3.80041   3.94108
  Beta virt. eigenvalues --    4.25049   4.42719   4.50929   4.53425   4.61508
  Beta virt. eigenvalues --    4.80147   4.94723   5.00726
          Condensed to atoms (all electrons):
               1          2          3          4          5          6
     1  N    9.541969  -0.246638  -0.803977   0.803773  -2.332176   0.006974
     2  N   -0.246638   8.154264  -0.085991   0.113113  -0.283193  -0.056805
     3  C   -0.803977  -0.085991   6.874839  -0.680372   0.799846   0.445532
     4  C    0.803773   0.113113  -0.680372   6.141133  -0.609912  -0.062983
     5  N   -2.332176  -0.283193   0.799846  -0.609912   9.733047   0.010292
     6  H    0.006974  -0.056805   0.445532  -0.062983   0.010292   0.506320
     7  H   -0.023324  -0.023549   0.028495   0.345398  -0.008674   0.000779
     8  H    0.298427   0.016589   0.014703   0.002867   0.002476  -0.000062
     9  C    0.073315   0.037056  -0.249123   0.087154  -0.190525  -0.006762
    10  O    0.048291  -0.139280  -0.055622   0.018806   0.010341  -0.000588
    11  O    0.061607  -0.360276  -0.031628   0.023008   0.013181  -0.001797
               7          8          9         10         11
     1  N   -0.023324   0.298427   0.073315   0.048291   0.061607
     2  N   -0.023549   0.016589   0.037056  -0.139280  -0.360276
     3  C    0.028495   0.014703  -0.249123  -0.055622  -0.031628
     4  C    0.345398   0.002867   0.087154   0.018806   0.023008
     5  N   -0.008674   0.002476  -0.190525   0.010341   0.013181
     6  H    0.000779  -0.000062  -0.006762  -0.000588  -0.001797
     7  H    0.554650  -0.000052  -0.001837  -0.000016  -0.000127
     8  H   -0.000052   0.291760  -0.021138   0.000151  -0.015541
     9  C   -0.001837  -0.021138   4.629872   0.465359   0.409884
    10  O   -0.000016   0.000151   0.465359   8.499044  -0.138610
    11  O   -0.000127  -0.015541   0.409884  -0.138610   8.659417
          Atomic-Atomic Spin Densities.
               1          2          3          4          5          6
     1  N    0.609565  -0.304801   0.224845  -0.053976  -0.203604  -0.000704
     2  N   -0.304801   0.518942  -0.301433   0.011759   0.127769   0.002793
     3  C    0.224845  -0.301433   0.584232   0.030054  -0.176720  -0.007443
     4  C   -0.053976   0.011759   0.030054  -0.232550   0.080219   0.004880
     5  N   -0.203604   0.127769  -0.176720   0.080219   0.462261  -0.000453
     6  H   -0.000704   0.002793  -0.007443   0.004880  -0.000453  -0.016120
     7  H    0.002603  -0.000447  -0.001389   0.003496  -0.003466   0.000007
     8  H    0.002749  -0.004289   0.000703  -0.000625  -0.004851   0.000004
     9  C   -0.036992   0.085523  -0.016918  -0.005195   0.018763   0.001423
    10  O    0.009657  -0.031381   0.015174  -0.001266  -0.001438   0.000246
    11  O    0.019887  -0.029408   0.014886  -0.006278   0.011523   0.000226
               7          8          9         10         11
     1  N    0.002603   0.002749  -0.036992   0.009657   0.019887
     2  N   -0.000447  -0.004289   0.085523  -0.031381  -0.029408
     3  C   -0.001389   0.000703  -0.016918   0.015174   0.014886
     4  C    0.003496  -0.000625  -0.005195  -0.001266  -0.006278
     5  N   -0.003466  -0.004851   0.018763  -0.001438   0.011523
     6  H    0.000007   0.000004   0.001423   0.000246   0.000226
     7  H    0.004026   0.000001   0.000048   0.000002  -0.000008
     8  H    0.000001  -0.013629  -0.000585   0.000148   0.007290
     9  C    0.000048  -0.000585   0.067192  -0.040637  -0.021036
    10  O    0.000002   0.000148  -0.040637   0.130125   0.008943
    11  O   -0.000008   0.007290  -0.021036   0.008943   0.025392
 Mulliken charges and spin densities:
               1          2
     1  N   -0.428243   0.269231
     2  N   -0.125291   0.075029
     3  C   -0.256703   0.365991
     4  C   -0.181986  -0.169481
     5  N   -0.144703   0.310002
     6  H    0.159099  -0.015141
     7  H    0.128256   0.004873
     8  H    0.409821  -0.013083
     9  C    0.766744   0.051587
    10  O   -0.707877   0.089574
    11  O   -0.619119   0.031418
 Sum of Mulliken charges =  -1.00000   1.00000
 Mulliken charges and spin densities with hydrogens summed into heavy atoms:
               1          2
     1  N   -0.018421   0.256148
     2  N   -0.125291   0.075029
     3  C   -0.097604   0.350850
     4  C   -0.053730  -0.164608
     5  N   -0.144703   0.310002
     9  C    0.766744   0.051587
    10  O   -0.707877   0.089574
    11  O   -0.619119   0.031418
 Electronic spatial extent (au):  <R**2>=            801.6536
 Charge=             -1.0000 electrons
 Dipole moment (field-independent basis, Debye):
    X=             -5.7268    Y=              1.2370    Z=              0.1307  Tot=              5.8603
 Quadrupole moment (field-independent basis, Debye-Ang):
   XX=            -75.3371   YY=            -53.7178   ZZ=            -50.0753
   XY=             -5.2958   XZ=              0.2717   YZ=             -0.2000
 Traceless Quadrupole moment (field-independent basis, Debye-Ang):
   XX=            -15.6270   YY=              5.9923   ZZ=              9.6348
   XY=             -5.2958   XZ=              0.2717   YZ=             -0.2000
 Octapole moment (field-independent basis, Debye-Ang**2):
  XXX=            -35.0864  YYY=             -3.1417  ZZZ=              0.1223  XYY=             -6.9227
  XXY=              3.4566  XXZ=              0.1598  XZZ=              6.2335  YZZ=             -3.4554
  YYZ=              0.3099  XYZ=              0.0861
 Hexadecapole moment (field-independent basis, Debye-Ang**3):
 XXXX=           -881.5105 YYYY=           -273.6030 ZZZZ=            -59.2783 XXXY=            -54.3553
 XXXZ=              1.6422 YYYX=             -1.6982 YYYZ=             -0.5741 ZZZX=             -0.0907
 ZZZY=             -0.0545 XXYY=           -216.6352 XXZZ=           -145.0931 YYZZ=            -64.1313
 XXYZ=             -0.6185 YYXZ=              0.2983 ZZXY=              3.0648
 N-N= 3.727030613085D+02 E-N=-1.763977965811D+03  KE= 4.280532378720D+02
                          Isotropic Fermi Contact Couplings
        Atom                 a.u.       MegaHertz       Gauss      10(-4) cm-1
     1  N(14)              0.06985      22.56820       8.05289       7.52794
     2  N(14)              0.02085       6.73678       2.40385       2.24715
     3  C(13)              0.04130      46.42585      16.56590      15.48600
     4  C(13)             -0.03188     -35.84307     -12.78970     -11.95596
     5  N(14)              0.06841      22.10350       7.88708       7.37293
     6  H(1)              -0.00459     -20.53611      -7.32780      -6.85011
     7  H(1)               0.00114       5.08930       1.81599       1.69761
     8  H(1)              -0.00718     -32.08450     -11.44855     -10.70224
     9  C(13)              0.00606       6.81151       2.43051       2.27207
    10  O(17)              0.02292     -13.89638      -4.95857      -4.63533
    11  O(17)             -0.00105       0.63355       0.22607       0.21133
 --------------------------------------------------------
       Center         ----  Spin Dipole Couplings  ----
                      3XX-RR        3YY-RR        3ZZ-RR
 --------------------------------------------------------
     1   Atom       -0.362612     -0.361743      0.724355
     2   Atom       -0.215342     -0.232118      0.447459
     3   Atom       -0.143371     -0.127618      0.270990
     4   Atom        0.052260      0.064787     -0.117047
     5   Atom       -0.304697     -0.299160      0.603857
     6   Atom       -0.021304      0.023125     -0.001821
     7   Atom       -0.000414      0.006671     -0.006257
     8   Atom       -0.017675      0.025462     -0.007788
     9   Atom       -0.021875     -0.055817      0.077692
    10   Atom       -0.181521     -0.174718      0.356239
    11   Atom       -0.040651     -0.047892      0.088543
 --------------------------------------------------------
                        XY            XZ            YZ
 --------------------------------------------------------
     1   Atom        0.000106     -0.032923      0.014799
     2   Atom        0.003364     -0.002137      0.006059
     3   Atom       -0.002740     -0.008958      0.001472
     4   Atom       -0.003719      0.004111     -0.000901
     5   Atom        0.000491     -0.023250      0.006124
     6   Atom        0.008048     -0.000655     -0.000048
     7   Atom       -0.000143      0.000123     -0.000021
     8   Atom       -0.032274      0.000786     -0.001961
     9   Atom        0.002806      0.010457     -0.005415
    10   Atom       -0.006860      0.019544     -0.014753
    11   Atom       -0.007873     -0.003226     -0.009580
 --------------------------------------------------------


 ---------------------------------------------------------------------------------
              Anisotropic Spin Dipole Couplings in Principal Axis System
 ---------------------------------------------------------------------------------

       Atom             a.u.   MegaHertz   Gauss  10(-4) cm-1        Axes

              Baa    -0.3638   -14.030    -5.006    -4.680  0.9566 -0.2894  0.0329
     1 N(14)  Bbb    -0.3618   -13.953    -4.979    -4.654  0.2897  0.9571 -0.0043
              Bcc     0.7256    27.983     9.985     9.334 -0.0302  0.0136  0.9995
 
              Baa    -0.2328    -8.980    -3.204    -2.995 -0.1900  0.9817 -0.0093
     2 N(14)  Bbb    -0.2147    -8.280    -2.955    -2.762  0.9818  0.1901  0.0014
              Bcc     0.4475    17.260     6.159     5.757 -0.0032  0.0089  1.0000
 
              Baa    -0.1440   -19.325    -6.896    -6.446  0.9864  0.1630  0.0207
     3 C(13)  Bbb    -0.1272   -17.066    -6.090    -5.693 -0.1629  0.9866 -0.0073
              Bcc     0.2712    36.391    12.985    12.139 -0.0216  0.0038  0.9998
 
              Baa    -0.1172   -15.720    -5.609    -5.244 -0.0242  0.0045  0.9997
     4 C(13)  Bbb     0.0513     6.887     2.457     2.297  0.9633  0.2675  0.0221
              Bcc     0.0658     8.834     3.152     2.947 -0.2674  0.9635 -0.0108
 
              Baa    -0.3054   -11.777    -4.202    -3.928  0.9942 -0.1046  0.0261
     5 N(14)  Bbb    -0.2991   -11.537    -4.117    -3.848  0.1047  0.9945 -0.0040
              Bcc     0.6045    23.314     8.319     7.777 -0.0256  0.0068  0.9997
 
              Baa    -0.0227   -12.131    -4.329    -4.046  0.9845 -0.1727  0.0305
     6 H(1)   Bbb    -0.0018    -0.962    -0.343    -0.321 -0.0289  0.0113  0.9995
              Bcc     0.0245    13.092     4.672     4.367  0.1730  0.9849 -0.0061
 
              Baa    -0.0063    -3.340    -1.192    -1.114 -0.0211  0.0014  0.9998
     7 H(1)   Bbb    -0.0004    -0.221    -0.079    -0.074  0.9996  0.0203  0.0211
              Bcc     0.0067     3.561     1.271     1.188 -0.0202  0.9998 -0.0018
 
              Baa    -0.0349   -18.635    -6.649    -6.216  0.8818  0.4715  0.0085
     8 H(1)   Bbb    -0.0079    -4.201    -1.499    -1.401 -0.0271  0.0326  0.9991
              Bcc     0.0428    22.835     8.148     7.617 -0.4708  0.8812 -0.0415
 
              Baa    -0.0563    -7.561    -2.698    -2.522 -0.0954  0.9943  0.0476
     9 C(13)  Bbb    -0.0226    -3.036    -1.083    -1.013  0.9902  0.0997 -0.0978
              Bcc     0.0790    10.597     3.781     3.535  0.1020 -0.0378  0.9941
 
              Baa    -0.1859    13.454     4.801     4.488  0.8629  0.5051 -0.0174
    10 O(17)  Bbb    -0.1714    12.405     4.427     4.138 -0.5041  0.8626  0.0428
              Bcc     0.3574   -25.859    -9.227    -8.626  0.0366 -0.0282  0.9989
 
              Baa    -0.0536     3.880     1.384     1.294  0.5303  0.8450  0.0690
    11 O(17)  Bbb    -0.0357     2.580     0.921     0.861  0.8476 -0.5304 -0.0189
              Bcc     0.0893    -6.459    -2.305    -2.155 -0.0206 -0.0685  0.9974
 

 ---------------------------------------------------------------------------------

 Calling FoFJK, ICntrl=      2127 FMM=F ISym2X=0 I1Cent= 0 IOpClX= 1 NMat=1 NMatS=1 NMatT=0.
 ***** Axes restored to original set *****
 -------------------------------------------------------------------
 Center     Atomic                   Forces (Hartrees/Bohr)
 Number     Number              X              Y              Z
 -------------------------------------------------------------------
      1        7          -0.088754437   -0.090375161    0.004607135
      2        7          -0.071283006    0.026923892    0.005318644
      3        6          -0.054930088    0.060028330    0.000448384
      4        6           0.014990194    0.014357023   -0.000055975
      5        7          -0.030758650    0.005335034    0.001037745
      6        1          -0.000231584   -0.000665316   -0.000099853
      7        1          -0.000588058    0.004487750   -0.000120929
      8        1          -0.000968158    0.012100399    0.000026690
      9        6           0.140991975    0.005783644   -0.009265077
     10        8          -0.056803258   -0.030568022    0.003304328
     11        8           0.148335071   -0.007407573   -0.005201092
 -------------------------------------------------------------------
 Cartesian Forces:  Max     0.148335071 RMS     0.048100785

 GradGradGradGradGradGradGradGradGradGradGradGradGradGradGradGradGradGrad
 Berny optimization.
 FormGI is forming the generalized inverse of G from B-inverse, IUseBI=4.
 Internal  Forces:  Max     0.251194346 RMS     0.071019016
 Search for a local minimum.
 Step number   1 out of a maximum of   57
 All quantities printed in internal units (Hartrees-Bohrs-Radians)
 Mixed Optimization -- RFO/linear search
 Second derivative matrix not updated -- first step.
 ITU=  0
     Eigenvalues ---    0.02156   0.02281   0.02347   0.02381   0.02474
     Eigenvalues ---    0.02710   0.02966   0.02967   0.16000   0.16000
     Eigenvalues ---    0.16000   0.22694   0.23395   0.24883   0.25000
     Eigenvalues ---    0.25000   0.36159   0.36166   0.41437   0.45721
     Eigenvalues ---    0.52785   0.56354   0.59881   0.62006   0.66173
     Eigenvalues ---    0.67182   0.76032
 RFO step:  Lambda=-3.45740585D-01 EMin= 2.15630336D-02
 Linear search not attempted -- first point.
 Maximum step size (   0.300) exceeded in Quadratic search.
    -- Step size scaled by   0.413
 Iteration  1 RMS(Cart)=  0.12988858 RMS(Int)=  0.01083080
 Iteration  2 RMS(Cart)=  0.01382896 RMS(Int)=  0.00013549
 Iteration  3 RMS(Cart)=  0.00017286 RMS(Int)=  0.00008651
 Iteration  4 RMS(Cart)=  0.00000004 RMS(Int)=  0.00008651
 Variable       Old X    -DE/DX   Delta X   Delta X   Delta X     New X
                                 (Linear)    (Quad)   (Total)
    R1        2.49252   0.10476   0.00000   0.04730   0.04737   2.53989
    R2        2.48671   0.02890   0.00000   0.01319   0.01320   2.49992
    R3        1.91148  -0.01017   0.00000  -0.00524  -0.00524   1.90624
    R4        2.51514   0.07443   0.00000   0.03360   0.03364   2.54879
    R5        2.46365   0.23396   0.00000   0.09600   0.09600   2.55966
    R6        2.65541  -0.01784   0.00000  -0.01181  -0.01185   2.64356
    R7        2.03834  -0.00068   0.00000  -0.00040  -0.00040   2.03794
    R8        2.51625   0.00690   0.00000   0.00089   0.00082   2.51707
    R9        2.03823   0.00155   0.00000   0.00091   0.00091   2.03914
   R10        2.45672  -0.06098   0.00000  -0.02478  -0.02478   2.43194
   R11        2.40129   0.02759   0.00000   0.01031   0.01031   2.41160
    A1        2.03321  -0.01243   0.00000  -0.00437  -0.00431   2.02890
    A2        2.11061  -0.00012   0.00000  -0.00299  -0.00302   2.10759
    A3        2.13936   0.01255   0.00000   0.00736   0.00733   2.14669
    A4        1.80646  -0.03850   0.00000  -0.02159  -0.02146   1.78500
    A5        1.90180   0.19218   0.00000   0.13104   0.13100   2.03280
    A6        2.57293  -0.15394   0.00000  -0.10958  -0.10964   2.46329
    A7        1.88821   0.02089   0.00000   0.01360   0.01360   1.90181
    A8        2.11390  -0.01025   0.00000  -0.00664  -0.00664   2.10726
    A9        2.28108  -0.01064   0.00000  -0.00696  -0.00696   2.27411
   A10        1.89164   0.01671   0.00000   0.00597   0.00586   1.89751
   A11        2.27777  -0.01267   0.00000  -0.00651  -0.00646   2.27130
   A12        2.11377  -0.00404   0.00000   0.00055   0.00060   2.11437
   A13        1.80525   0.01333   0.00000   0.00639   0.00630   1.81155
   A14        2.27047  -0.15167   0.00000  -0.10525  -0.10525   2.16523
   A15        1.75081   0.25119   0.00000   0.17432   0.17432   1.92514
   A16        2.26179  -0.09946   0.00000  -0.06901  -0.06902   2.19277
    D1       -0.00018  -0.00129   0.00000  -0.00075  -0.00064  -0.00083
    D2       -3.09346   0.00900   0.00000   0.00596   0.00578  -3.08768
    D3       -3.14115  -0.00324   0.00000  -0.00205  -0.00193   3.14010
    D4        0.04876   0.00705   0.00000   0.00467   0.00449   0.05325
    D5        0.00018   0.00173   0.00000   0.00123   0.00116   0.00134
    D6        3.14113   0.00371   0.00000   0.00254   0.00248  -3.13958
    D7        0.00011   0.00029   0.00000  -0.00004  -0.00014  -0.00003
    D8       -3.14136  -0.00162   0.00000  -0.00141  -0.00148   3.14035
    D9        3.05678   0.00830   0.00000   0.00657   0.00665   3.06343
   D10       -0.08468   0.00639   0.00000   0.00520   0.00531  -0.07938
   D11        3.12737   0.00235   0.00000   0.00288   0.00269   3.13006
   D12        0.00059  -0.00179   0.00000  -0.00167  -0.00187  -0.00128
   D13        0.07309   0.00070   0.00000   0.00048   0.00067   0.07377
   D14       -3.05369  -0.00344   0.00000  -0.00408  -0.00388  -3.05757
   D15       -0.00001   0.00071   0.00000   0.00078   0.00084   0.00083
   D16        3.14150  -0.00094   0.00000  -0.00062  -0.00059   3.14091
   D17        3.14144   0.00287   0.00000   0.00232   0.00235  -3.13939
   D18       -0.00024   0.00121   0.00000   0.00092   0.00092   0.00068
   D19       -0.00009  -0.00138   0.00000  -0.00114  -0.00115  -0.00124
   D20        3.14158   0.00009   0.00000   0.00009   0.00013  -3.14148
         Item               Value     Threshold  Converged?
 Maximum Force            0.251194     0.000450     NO 
 RMS     Force            0.071019     0.000300     NO 
 Maximum Displacement     0.659820     0.001800     NO 
 RMS     Displacement     0.137043     0.001200     NO 
 Predicted change in Energy=-1.289743D-01
 GradGradGradGradGradGradGradGradGradGradGradGradGradGradGradGradGradGrad

                          Input orientation:                          
 ---------------------------------------------------------------------
 Center     Atomic      Atomic             Coordinates (Angstroms)
 Number     Number       Type             X           Y           Z
 ---------------------------------------------------------------------
      1          7           0       -0.926301   -0.880774    0.005687
      2          7           0       -0.356880    0.336692    0.002028
      3          6           0       -1.429224    1.154750   -0.001269
      4          6           0       -2.593120    0.378670    0.000562
      5          7           0       -2.248918   -0.908055    0.005996
      6          1           0       -1.305236    2.226029   -0.003552
      7          1           0       -3.629504    0.679151   -0.000465
      8          1           0       -0.359624   -1.715297    0.007456
      9          6           0        0.995618    0.370455   -0.063640
     10          8           0        1.689162    1.454231   -0.088367
     11          8           0        1.466462   -0.814812   -0.108835
 ---------------------------------------------------------------------
                    Distance matrix (angstroms):
                    1          2          3          4          5
     1  N    0.000000
     2  N    1.344053   0.000000
     3  C    2.096745   1.348759   0.000000
     4  C    2.089142   2.236634   1.398912   0.000000
     5  N    1.322898   2.264777   2.219710   1.331978   0.000000
     6  H    3.129841   2.114002   1.078433   2.251976   3.273088
     7  H    3.121012   3.290494   2.251094   1.079065   2.103635
     8  H    1.008739   2.051998   3.062889   3.061576   2.054525
     9  C    2.294374   1.354512   2.549288   3.589322   3.488043
    10  O    3.507383   2.333099   3.133944   4.416183   4.593230
    11  O    2.396410   2.159358   3.503676   4.232797   3.718323
                    6          7          8          9         10
     6  H    0.000000
     7  H    2.791964   0.000000
     8  H    4.053191   4.052846   0.000000
     9  C    2.956467   4.635843   2.488393   0.000000
    10  O    3.093426   5.375563   3.775263   1.286928   0.000000
    11  O    4.115837   5.311548   2.039360   1.276164   2.280036
                   11
    11  O    0.000000
 Stoichiometry    C3H3N3O2(1-,2)
 Framework group  C1[X(C3H3N3O2)]
 Deg. of freedom    27
 Full point group                 C1      NOp   1
 Largest Abelian subgroup         C1      NOp   1
 Largest concise Abelian subgroup C1      NOp   1
                         Standard orientation:                         
 ---------------------------------------------------------------------
 Center     Atomic      Atomic             Coordinates (Angstroms)
 Number     Number       Type             X           Y           Z
 ---------------------------------------------------------------------
      1          7           0       -0.669065   -0.925997    0.025115
      2          7           0        0.066403    0.198933    0.034979
      3          6           0       -0.879321    1.160070    0.003814
      4          6           0       -2.140780    0.555968   -0.023318
      5          7           0       -1.981881   -0.766411   -0.008149
      6          1           0       -0.605353    2.203123    0.003853
      7          1           0       -3.124025    0.999647   -0.050901
      8          1           0       -0.226072   -1.832103    0.041922
      9          6           0        1.411343    0.041264    0.003659
     10          8           0        2.251310    1.016239   -0.004282
     11          8           0        1.711165   -1.198759   -0.028646
 ---------------------------------------------------------------------
 Rotational constants (GHZ):           5.6528498           1.7568087           1.3406394
 Standard basis: 6-31+G(d,p) (6D, 7F)
 There are   167 symmetry adapted cartesian basis functions of A   symmetry.
 There are   167 symmetry adapted basis functions of A   symmetry.
   167 basis functions,   277 primitive gaussians,   167 cartesian basis functions
    30 alpha electrons       29 beta electrons
       nuclear repulsion energy       363.6900389244 Hartrees.
 NAtoms=   11 NActive=   11 NUniq=   11 SFac= 1.00D+00 NAtFMM=   60 NAOKFM=F Big=F
 Integral buffers will be    131072 words long.
 Raffenetti 2 integral format.
 Two-electron integral symmetry is turned on.
 One-electron integrals computed using PRISM.
 NBasis=   167 RedAO= T EigKep=  2.68D-05  NBF=   167
 NBsUse=   167 1.00D-06 EigRej= -1.00D+00 NBFU=   167
 Initial guess from the checkpoint file:  "/scratch/gongke2021/RC/Gau-7300.chk"
 B after Tr=     0.000000    0.000000    0.000000
         Rot=    0.999881   -0.001280    0.000554   -0.015383 Ang=  -1.77 deg.
 Initial guess <Sx>= 0.0000 <Sy>= 0.0000 <Sz>= 0.5000 <S**2>= 0.7642 S= 0.5071
 ExpMin= 4.38D-02 ExpMax= 5.48D+03 ExpMxC= 8.25D+02 IAcc=2 IRadAn=         4 AccDes= 0.00D+00
 Harris functional with IExCor= 1009 and IRadAn=       4 diagonalized for initial guess.
 HarFok:  IExCor= 1009 AccDes= 0.00D+00 IRadAn=         4 IDoV= 1 UseB2=F ITyADJ=14
 ICtDFT=  3500011 ScaDFX=  1.000000  1.000000  1.000000  1.000000
 FoFCou: FMM=F IPFlag=           0 FMFlag=      100000 FMFlg1=           0
         NFxFlg=           0 DoJE=T BraDBF=F KetDBF=T FulRan=T
         wScrn=  0.000000 ICntrl=       500 IOpCl=  0 I1Cent=   200000004 NGrid=           0
         NMat0=    1 NMatS0=      1 NMatT0=    0 NMatD0=    1 NMtDS0=    0 NMtDT0=    0
 Petite list used in FoFCou.
 Keep R1 and R2 ints in memory in canonical form, NReq=220618657.
 Requested convergence on RMS density matrix=1.00D-08 within 128 cycles.
 Requested convergence on MAX density matrix=1.00D-06.
 Requested convergence on             energy=1.00D-06.
 No special actions if energy rises.
 SCF Done:  E(UM062X) =  -430.642059132     A.U. after   18 cycles
            NFock= 18  Conv=0.69D-08     -V/T= 2.0075
 <Sx>= 0.0000 <Sy>= 0.0000 <Sz>= 0.5000 <S**2>= 0.7642 S= 0.5071
 <L.S>=  0.00000000000    
 Annihilation of the first spin contaminant:
 S**2 before annihilation     0.7642,   after     0.7501
 Calling FoFJK, ICntrl=      2127 FMM=F ISym2X=0 I1Cent= 0 IOpClX= 1 NMat=1 NMatS=1 NMatT=0.
 ***** Axes restored to original set *****
 -------------------------------------------------------------------
 Center     Atomic                   Forces (Hartrees/Bohr)
 Number     Number              X              Y              Z
 -------------------------------------------------------------------
      1        7           0.002385688   -0.060309848    0.001150943
      2        7          -0.036175075    0.002443933    0.002933049
      3        6          -0.036465475    0.049747480   -0.000073691
      4        6           0.022122206    0.014687736    0.000178031
      5        7          -0.024707782   -0.009317879    0.000275915
      6        1           0.001031196   -0.000683722   -0.000173513
      7        1           0.000434976    0.002760566   -0.000034298
      8        1           0.006962240    0.007656712   -0.000778851
      9        6           0.109504435    0.007220370   -0.008106382
     10        8          -0.047046449   -0.024999085    0.002786958
     11        8           0.001954038    0.010793738    0.001841839
 -------------------------------------------------------------------
 Cartesian Forces:  Max     0.109504435 RMS     0.027727314

 GradGradGradGradGradGradGradGradGradGradGradGradGradGradGradGradGradGrad
 Berny optimization.
 Using GEDIIS/GDIIS optimizer.
 FormGI is forming the generalized inverse of G from B-inverse, IUseBI=4.
 Internal  Forces:  Max     0.064310958 RMS     0.019058441
 Search for a local minimum.
 Step number   2 out of a maximum of   57
 All quantities printed in internal units (Hartrees-Bohrs-Radians)
 Mixed Optimization -- RFO/linear search
 Update second derivatives using D2CorX and points    1    2
 DE= -7.25D-02 DEPred=-1.29D-01 R= 5.62D-01
 TightC=F SS=  1.41D+00  RLast= 3.00D-01 DXNew= 5.0454D-01 9.0088D-01
 Trust test= 5.62D-01 RLast= 3.00D-01 DXMaxT set to 5.05D-01
 ITU=  1  0
 Use linear search instead of GDIIS.
 Linear search step of   0.557 exceeds DXMaxT=   0.505 but not scaled.
 Quartic linear search produced a step of  1.85583.
 Iteration  1 RMS(Cart)=  0.18935028 RMS(Int)=  0.03122727
 Iteration  2 RMS(Cart)=  0.07124778 RMS(Int)=  0.00408425
 Iteration  3 RMS(Cart)=  0.00452726 RMS(Int)=  0.00042265
 Iteration  4 RMS(Cart)=  0.00001772 RMS(Int)=  0.00042247
 Iteration  5 RMS(Cart)=  0.00000000 RMS(Int)=  0.00042247
 Variable       Old X    -DE/DX   Delta X   Delta X   Delta X     New X
                                 (Linear)    (Quad)   (Total)
    R1        2.53989   0.03842   0.08792   0.00000   0.08828   2.62817
    R2        2.49992   0.02207   0.02450   0.00000   0.02454   2.52446
    R3        1.90624  -0.00243  -0.00972   0.00000  -0.00972   1.89652
    R4        2.54879   0.03684   0.06243   0.00000   0.06263   2.61141
    R5        2.55966   0.06431   0.17816   0.00000   0.17816   2.73782
    R6        2.64356  -0.01230  -0.02200   0.00000  -0.02224   2.62132
    R7        2.03794  -0.00056  -0.00074   0.00000  -0.00074   2.03720
    R8        2.51707   0.02420   0.00152   0.00000   0.00116   2.51824
    R9        2.03914   0.00035   0.00169   0.00000   0.00169   2.04082
   R10        2.43194  -0.04646  -0.04598   0.00000  -0.04598   2.38596
   R11        2.41160  -0.00937   0.01914   0.00000   0.01914   2.43074
    A1        2.02890  -0.02013  -0.00799   0.00000  -0.00767   2.02123
    A2        2.10759   0.00048  -0.00561   0.00000  -0.00578   2.10181
    A3        2.14669   0.01965   0.01361   0.00000   0.01344   2.16014
    A4        1.78500   0.01067  -0.03982   0.00000  -0.03914   1.74587
    A5        2.03280   0.02220   0.24311   0.00000   0.24287   2.27566
    A6        2.46329  -0.03290  -0.20347   0.00000  -0.20372   2.25957
    A7        1.90181  -0.01099   0.02524   0.00000   0.02522   1.92703
    A8        2.10726   0.00437  -0.01232   0.00000  -0.01231   2.09495
    A9        2.27411   0.00662  -0.01292   0.00000  -0.01292   2.26120
   A10        1.89751   0.01823   0.01088   0.00000   0.01035   1.90786
   A11        2.27130  -0.01194  -0.01199   0.00000  -0.01173   2.25957
   A12        2.11437  -0.00628   0.00111   0.00000   0.00137   2.11575
   A13        1.81155   0.00223   0.01169   0.00000   0.01123   1.82278
   A14        2.16523  -0.04710  -0.19532   0.00000  -0.19534   1.96988
   A15        1.92514   0.03048   0.32351   0.00000   0.32349   2.24863
   A16        2.19277   0.01664  -0.12808   0.00000  -0.12810   2.06468
    D1       -0.00083  -0.00039  -0.00120   0.00000  -0.00071  -0.00154
    D2       -3.08768   0.00151   0.01073   0.00000   0.01002  -3.07766
    D3        3.14010  -0.00105  -0.00359   0.00000  -0.00312   3.13698
    D4        0.05325   0.00085   0.00833   0.00000   0.00761   0.06086
    D5        0.00134   0.00033   0.00215   0.00000   0.00184   0.00318
    D6       -3.13958   0.00102   0.00460   0.00000   0.00435  -3.13523
    D7       -0.00003   0.00028  -0.00025   0.00000  -0.00068  -0.00071
    D8        3.14035  -0.00015  -0.00274   0.00000  -0.00309   3.13726
    D9        3.06343   0.00162   0.01234   0.00000   0.01286   3.07629
   D10       -0.07938   0.00119   0.00985   0.00000   0.01045  -0.06893
   D11        3.13006   0.00099   0.00498   0.00000   0.00400   3.13406
   D12       -0.00128  -0.00152  -0.00347   0.00000  -0.00446  -0.00573
   D13        0.07377   0.00027   0.00125   0.00000   0.00224   0.07601
   D14       -3.05757  -0.00224  -0.00720   0.00000  -0.00622  -3.06378
   D15        0.00083  -0.00009   0.00155   0.00000   0.00186   0.00269
   D16        3.14091  -0.00023  -0.00109   0.00000  -0.00096   3.13994
   D17       -3.13939   0.00040   0.00436   0.00000   0.00456  -3.13483
   D18        0.00068   0.00026   0.00171   0.00000   0.00174   0.00242
   D19       -0.00124  -0.00015  -0.00213   0.00000  -0.00216  -0.00340
   D20       -3.14148  -0.00002   0.00023   0.00000   0.00040  -3.14108
         Item               Value     Threshold  Converged?
 Maximum Force            0.064311     0.000450     NO 
 RMS     Force            0.019058     0.000300     NO 
 Maximum Displacement     1.052254     0.001800     NO 
 RMS     Displacement     0.248370     0.001200     NO 
 Predicted change in Energy=-1.516067D-01
 GradGradGradGradGradGradGradGradGradGradGradGradGradGradGradGradGradGrad

                          Input orientation:                          
 ---------------------------------------------------------------------
 Center     Atomic      Atomic             Coordinates (Angstroms)
 Number     Number       Type             X           Y           Z
 ---------------------------------------------------------------------
      1          7           0       -1.087748   -1.025530    0.018783
      2          7           0       -0.349104    0.152771    0.003192
      3          6           0       -1.374259    1.079370   -0.007631
      4          6           0       -2.604915    0.439381    0.000653
      5          7           0       -2.415632   -0.879561    0.019971
      6          1           0       -1.148663    2.133499   -0.017141
      7          1           0       -3.598593    0.862346   -0.002692
      8          1           0       -0.624429   -1.915750    0.025657
      9          6           0        1.082425    0.362364   -0.072947
     10          8           0        1.400061    1.584352   -0.072596
     11          8           0        2.023291   -0.512202   -0.139649
 ---------------------------------------------------------------------
                    Distance matrix (angstroms):
                    1          2          3          4          5
     1  N    0.000000
     2  N    1.390766   0.000000
     3  C    2.124474   1.381899   0.000000
     4  C    2.109049   2.273947   1.387144   0.000000
     5  N    1.335884   2.310093   2.218700   1.332594   0.000000
     6  H    3.159821   2.136116   1.078041   2.234060   3.268810
     7  H    3.141478   3.326066   2.234902   1.079957   2.105742
     8  H    1.003595   2.086885   3.087733   3.077270   2.069331
     9  C    2.577657   1.448793   2.560012   3.688878   3.713141
    10  O    3.606803   2.261581   2.820653   4.166072   4.543011
    11  O    3.157082   2.467965   3.754181   4.727101   4.456958
                    6          7          8          9         10
     6  H    0.000000
     7  H    2.760108   0.000000
     8  H    4.083267   4.069923   0.000000
     9  C    2.849173   4.708168   2.848311   0.000000
    10  O    2.607802   5.051012   4.044618   1.262596   0.000000
    11  O    4.132316   5.789104   3.001283   1.286291   2.188253
                   11
    11  O    0.000000
 Stoichiometry    C3H3N3O2(1-,2)
 Framework group  C1[X(C3H3N3O2)]
 Deg. of freedom    27
 Full point group                 C1      NOp   1
 Largest Abelian subgroup         C1      NOp   1
 Largest concise Abelian subgroup C1      NOp   1
                         Standard orientation:                         
 ---------------------------------------------------------------------
 Center     Atomic      Atomic             Coordinates (Angstroms)
 Number     Number       Type             X           Y           Z
 ---------------------------------------------------------------------
      1          7           0       -0.871822   -1.056644    0.028374
      2          7           0        0.034983   -0.002192    0.036588
      3          6           0       -0.839228    1.067375   -0.001189
      4          6           0       -2.151533    0.618793   -0.029422
      5          7           0       -2.162397   -0.713583   -0.007856
      6          1           0       -0.458238    2.075848   -0.001781
      7          1           0       -3.070220    1.185703   -0.060022
      8          1           0       -0.547333   -2.006164    0.046312
      9          6           0        1.483338   -0.009351    0.001686
     10          8           0        1.980134    1.151335    0.013966
     11          8           0        2.284239   -1.015004   -0.040304
 ---------------------------------------------------------------------
 Rotational constants (GHZ):           5.7080181           1.5660237           1.2293288
 Standard basis: 6-31+G(d,p) (6D, 7F)
 There are   167 symmetry adapted cartesian basis functions of A   symmetry.
 There are   167 symmetry adapted basis functions of A   symmetry.
   167 basis functions,   277 primitive gaussians,   167 cartesian basis functions
    30 alpha electrons       29 beta electrons
       nuclear repulsion energy       353.7516696484 Hartrees.
 NAtoms=   11 NActive=   11 NUniq=   11 SFac= 1.00D+00 NAtFMM=   60 NAOKFM=F Big=F
 Integral buffers will be    131072 words long.
 Raffenetti 2 integral format.
 Two-electron integral symmetry is turned on.
 One-electron integrals computed using PRISM.
 NBasis=   167 RedAO= T EigKep=  2.96D-05  NBF=   167
 NBsUse=   167 1.00D-06 EigRej= -1.00D+00 NBFU=   167
 Initial guess from the checkpoint file:  "/scratch/gongke2021/RC/Gau-7300.chk"
 B after Tr=    -0.000000    0.000000   -0.000000
         Rot=    0.999814   -0.003162    0.001407   -0.018970 Ang=  -2.21 deg.
 Initial guess <Sx>= 0.0000 <Sy>= 0.0000 <Sz>= 0.5000 <S**2>= 0.7643 S= 0.5071
 ExpMin= 4.38D-02 ExpMax= 5.48D+03 ExpMxC= 8.25D+02 IAcc=2 IRadAn=         4 AccDes= 0.00D+00
 Harris functional with IExCor= 1009 and IRadAn=       4 diagonalized for initial guess.
 HarFok:  IExCor= 1009 AccDes= 0.00D+00 IRadAn=         4 IDoV= 1 UseB2=F ITyADJ=14
 ICtDFT=  3500011 ScaDFX=  1.000000  1.000000  1.000000  1.000000
 FoFCou: FMM=F IPFlag=           0 FMFlag=      100000 FMFlg1=           0
         NFxFlg=           0 DoJE=T BraDBF=F KetDBF=T FulRan=T
         wScrn=  0.000000 ICntrl=       500 IOpCl=  0 I1Cent=   200000004 NGrid=           0
         NMat0=    1 NMatS0=      1 NMatT0=    0 NMatD0=    1 NMtDS0=    0 NMtDT0=    0
 Petite list used in FoFCou.
 Keep R1 and R2 ints in memory in canonical form, NReq=220618657.
 Requested convergence on RMS density matrix=1.00D-08 within 128 cycles.
 Requested convergence on MAX density matrix=1.00D-06.
 Requested convergence on             energy=1.00D-06.
 No special actions if energy rises.
 SCF Done:  E(UM062X) =  -430.634733718     A.U. after   18 cycles
            NFock= 18  Conv=0.88D-08     -V/T= 2.0084
 <Sx>= 0.0000 <Sy>= 0.0000 <Sz>= 0.5000 <S**2>= 0.7646 S= 0.5073
 <L.S>=  0.00000000000    
 Annihilation of the first spin contaminant:
 S**2 before annihilation     0.7646,   after     0.7501
 Calling FoFJK, ICntrl=      2127 FMM=F ISym2X=0 I1Cent= 0 IOpClX= 1 NMat=1 NMatS=1 NMatT=0.
 ***** Axes restored to original set *****
 -------------------------------------------------------------------
 Center     Atomic                   Forces (Hartrees/Bohr)
 Number     Number              X              Y              Z
 -------------------------------------------------------------------
      1        7           0.032956637   -0.024472182   -0.000272463
      2        7          -0.018557779   -0.012726450    0.000386828
      3        6          -0.007788012    0.035295164   -0.000405972
      4        6           0.026588542    0.010958404    0.000408967
      5        7          -0.018285217   -0.020113609   -0.000263720
      6        1           0.003150165   -0.001483296   -0.000290326
      7        1           0.001147325    0.001117894   -0.000008055
      8        1           0.001600767   -0.000678552   -0.000249644
      9        6           0.086100062    0.029182388   -0.005939886
     10        8          -0.035517655   -0.001899107    0.002082315
     11        8          -0.071394833   -0.015180655    0.004551955
 -------------------------------------------------------------------
 Cartesian Forces:  Max     0.086100062 RMS     0.024618401

 GradGradGradGradGradGradGradGradGradGradGradGradGradGradGradGradGradGrad
 Berny optimization.
 Using GEDIIS/GDIIS optimizer.
 FormGI is forming the generalized inverse of G from B-inverse, IUseBI=4.
 Internal  Forces:  Max     0.075437930 RMS     0.018947554
 Search for a local minimum.
 Step number   3 out of a maximum of   57
 All quantities printed in internal units (Hartrees-Bohrs-Radians)
 Mixed Optimization -- RFO/linear search
 Update second derivatives using D2CorX and points    1    3    2
 ITU=  0  1  0
 Use linear search instead of GDIIS.
     Eigenvalues ---    0.02160   0.02284   0.02344   0.02381   0.02478
     Eigenvalues ---    0.02682   0.02966   0.02966   0.15836   0.16000
     Eigenvalues ---    0.16002   0.19805   0.22785   0.23405   0.24971
     Eigenvalues ---    0.32510   0.36159   0.36168   0.41304   0.45715
     Eigenvalues ---    0.53290   0.55701   0.57607   0.61682   0.62466
     Eigenvalues ---    0.67667   0.77441
 RFO step:  Lambda=-2.47140489D-02 EMin= 2.16010363D-02
 Quartic linear search produced a step of -0.63484.
 Iteration  1 RMS(Cart)=  0.13295451 RMS(Int)=  0.01643643
 Iteration  2 RMS(Cart)=  0.02404837 RMS(Int)=  0.00065592
 Iteration  3 RMS(Cart)=  0.00070392 RMS(Int)=  0.00018184
 Iteration  4 RMS(Cart)=  0.00000090 RMS(Int)=  0.00018184
 Variable       Old X    -DE/DX   Delta X   Delta X   Delta X     New X
                                 (Linear)    (Quad)   (Total)
    R1        2.62817   0.00111  -0.05604   0.04382  -0.01216   2.61601
    R2        2.52446   0.01083  -0.01558   0.03047   0.01474   2.53919
    R3        1.89652   0.00134   0.00617  -0.00218   0.00399   1.90051
    R4        2.61141   0.00067  -0.03976   0.03923  -0.00033   2.61109
    R5        2.73782  -0.01885  -0.11311   0.05538  -0.05773   2.68010
    R6        2.62132  -0.00963   0.01412  -0.02819  -0.01403   2.60729
    R7        2.03720  -0.00079   0.00047  -0.00164  -0.00117   2.03603
    R8        2.51824   0.02706  -0.00074   0.03937   0.03847   2.55671
    R9        2.04082  -0.00062  -0.00107  -0.00005  -0.00112   2.03971
   R10        2.38596  -0.01077   0.02919  -0.04965  -0.02046   2.36550
   R11        2.43074  -0.04214  -0.01215  -0.02625  -0.03839   2.39234
    A1        2.02123  -0.01653   0.00487  -0.06318  -0.05837   1.96287
    A2        2.10181   0.00721   0.00367  -0.00185   0.00184   2.10365
    A3        2.16014   0.00931  -0.00853   0.06501   0.05650   2.21664
    A4        1.74587   0.02850   0.02484   0.07259   0.09769   1.84355
    A5        2.27566  -0.02586  -0.15418  -0.00707  -0.16142   2.11425
    A6        2.25957  -0.00267   0.12933  -0.06564   0.06356   2.32313
    A7        1.92703  -0.02120  -0.01601  -0.06962  -0.08536   1.84167
    A8        2.09495   0.00714   0.00782   0.02410   0.03178   2.12672
    A9        2.26120   0.01405   0.00820   0.04552   0.05358   2.31478
   A10        1.90786   0.01667  -0.00657   0.06169   0.05504   1.96290
   A11        2.25957  -0.00985   0.00745  -0.04237  -0.03489   2.22468
   A12        2.11575  -0.00682  -0.00087  -0.01930  -0.02014   2.09561
   A13        1.82278  -0.00744  -0.00713  -0.00147  -0.00901   1.81377
   A14        1.96988  -0.00559   0.12401  -0.09974   0.02419   1.99407
   A15        2.24863  -0.06985  -0.20536  -0.04938  -0.25482   1.99381
   A16        2.06468   0.07544   0.08132   0.14916   0.23040   2.29508
    D1       -0.00154  -0.00017   0.00045  -0.00245  -0.00226  -0.00379
    D2       -3.07766  -0.00023  -0.00636   0.00143  -0.00458  -3.08224
    D3        3.13698  -0.00024   0.00198  -0.00864  -0.00683   3.13015
    D4        0.06086  -0.00030  -0.00483  -0.00477  -0.00915   0.05171
    D5        0.00318  -0.00017  -0.00117  -0.00063  -0.00163   0.00154
    D6       -3.13523  -0.00010  -0.00276   0.00594   0.00343  -3.13180
    D7       -0.00071   0.00041   0.00043   0.00446   0.00502   0.00431
    D8        3.13726   0.00049   0.00196   0.00280   0.00489  -3.14104
    D9        3.07629  -0.00082  -0.00816   0.00375  -0.00444   3.07185
   D10       -0.06893  -0.00073  -0.00663   0.00209  -0.00457  -0.07350
   D11        3.13406   0.00044  -0.00254   0.00560   0.00339   3.13745
   D12       -0.00573  -0.00039   0.00283  -0.02188  -0.01871  -0.02445
   D13        0.07601  -0.00024  -0.00142   0.00495   0.00319   0.07920
   D14       -3.06378  -0.00107   0.00395  -0.02253  -0.01892  -3.08270
   D15        0.00269  -0.00052  -0.00118  -0.00521  -0.00637  -0.00368
   D16        3.13994  -0.00000   0.00061  -0.00110  -0.00046   3.13948
   D17       -3.13483  -0.00059  -0.00290  -0.00324  -0.00610  -3.14094
   D18        0.00242  -0.00007  -0.00110   0.00087  -0.00019   0.00223
   D19       -0.00340   0.00035   0.00137   0.00323   0.00478   0.00138
   D20       -3.14108  -0.00010  -0.00026  -0.00039  -0.00058   3.14153
         Item               Value     Threshold  Converged?
 Maximum Force            0.075438     0.000450     NO 
 RMS     Force            0.018948     0.000300     NO 
 Maximum Displacement     0.688939     0.001800     NO 
 RMS     Displacement     0.150058     0.001200     NO 
 Predicted change in Energy=-1.477358D-02
 GradGradGradGradGradGradGradGradGradGradGradGradGradGradGradGradGradGrad

                          Input orientation:                          
 ---------------------------------------------------------------------
 Center     Atomic      Atomic             Coordinates (Angstroms)
 Number     Number       Type             X           Y           Z
 ---------------------------------------------------------------------
      1          7           0       -0.979938   -0.997570    0.009673
      2          7           0       -0.369868    0.245055    0.000780
      3          6           0       -1.400295    1.165562   -0.006678
      4          6           0       -2.561291    0.420176    0.003919
      5          7           0       -2.320839   -0.911206    0.012955
      6          1           0       -1.214614    2.226831   -0.014974
      7          1           0       -3.576637    0.786377    0.004145
      8          1           0       -0.427515   -1.837963    0.006340
      9          6           0        1.040876    0.368894   -0.075924
     10          8           0        1.453837    1.550579   -0.079727
     11          8           0        1.658720   -0.735695   -0.104907
 ---------------------------------------------------------------------
                    Distance matrix (angstroms):
                    1          2          3          4          5
     1  N    0.000000
     2  N    1.384334   0.000000
     3  C    2.203658   1.381727   0.000000
     4  C    2.123844   2.198411   1.379719   0.000000
     5  N    1.343683   2.267900   2.271728   1.352950   0.000000
     6  H    3.233024   2.154363   1.077422   2.253420   3.327430
     7  H    3.150451   3.252139   2.209154   1.079366   2.111609
     8  H    1.005705   2.083822   3.157156   3.106798   2.107984
     9  C    2.440951   1.418246   2.568812   3.603418   3.598289
    10  O    3.524814   2.244276   2.880911   4.172057   4.507455
    11  O    2.654096   2.255707   3.603055   4.376800   3.985171
                    6          7          8          9         10
     6  H    0.000000
     7  H    2.766663   0.000000
     8  H    4.140354   4.099284   0.000000
     9  C    2.922821   4.637039   2.652010   0.000000
    10  O    2.753569   5.088881   3.876739   1.251770   0.000000
    11  O    4.128038   5.453216   2.362149   1.265973   2.295574
                   11
    11  O    0.000000
 Stoichiometry    C3H3N3O2(1-,2)
 Framework group  C1[X(C3H3N3O2)]
 Deg. of freedom    27
 Full point group                 C1      NOp   1
 Largest Abelian subgroup         C1      NOp   1
 Largest concise Abelian subgroup C1      NOp   1
                         Standard orientation:                         
 ---------------------------------------------------------------------
 Center     Atomic      Atomic             Coordinates (Angstroms)
 Number     Number       Type             X           Y           Z
 ---------------------------------------------------------------------
      1          7           0       -0.732570   -1.036687    0.022210
      2          7           0        0.050785    0.104637    0.032902
      3          6           0       -0.835178    1.164488    0.002018
      4          6           0       -2.091633    0.594853   -0.019480
      5          7           0       -2.046527   -0.757301   -0.008547
      6          1           0       -0.497846    2.187741    0.001867
      7          1           0       -3.043024    1.104049   -0.044069
      8          1           0       -0.307565   -1.948140    0.030331
      9          6           0        1.466115    0.023103   -0.007278
     10          8           0        2.045556    1.132637    0.003264
     11          8           0        1.918293   -1.159244   -0.023969
 ---------------------------------------------------------------------
 Rotational constants (GHZ):           5.2865817           1.7528521           1.3166609
 Standard basis: 6-31+G(d,p) (6D, 7F)
 There are   167 symmetry adapted cartesian basis functions of A   symmetry.
 There are   167 symmetry adapted basis functions of A   symmetry.
   167 basis functions,   277 primitive gaussians,   167 cartesian basis functions
    30 alpha electrons       29 beta electrons
       nuclear repulsion energy       359.1726894994 Hartrees.
 NAtoms=   11 NActive=   11 NUniq=   11 SFac= 1.00D+00 NAtFMM=   60 NAOKFM=F Big=F
 Integral buffers will be    131072 words long.
 Raffenetti 2 integral format.
 Two-electron integral symmetry is turned on.
 One-electron integrals computed using PRISM.
 NBasis=   167 RedAO= T EigKep=  2.75D-05  NBF=   167
 NBsUse=   167 1.00D-06 EigRej= -1.00D+00 NBFU=   167
 Lowest energy guess from the checkpoint file:  "/scratch/gongke2021/RC/Gau-7300.chk"
 B after Tr=    -0.000000   -0.000000    0.000000
         Rot=    0.999949   -0.001257    0.000443   -0.010003 Ang=  -1.16 deg.
 B after Tr=     0.000000   -0.000000    0.000000
         Rot=    0.999957    0.001535   -0.000764    0.009084 Ang=   1.06 deg.
 Initial guess <Sx>= 0.0000 <Sy>= 0.0000 <Sz>= 0.5000 <S**2>= 0.7643 S= 0.5071
 Keep R1 and R2 ints in memory in canonical form, NReq=220618657.
 Requested convergence on RMS density matrix=1.00D-08 within 128 cycles.
 Requested convergence on MAX density matrix=1.00D-06.
 Requested convergence on             energy=1.00D-06.
 No special actions if energy rises.
 SCF Done:  E(UM062X) =  -430.663687828     A.U. after   16 cycles
            NFock= 16  Conv=0.93D-08     -V/T= 2.0082
 <Sx>= 0.0000 <Sy>= 0.0000 <Sz>= 0.5000 <S**2>= 0.7648 S= 0.5074
 <L.S>=  0.00000000000    
 Annihilation of the first spin contaminant:
 S**2 before annihilation     0.7648,   after     0.7501
 Calling FoFJK, ICntrl=      2127 FMM=F ISym2X=0 I1Cent= 0 IOpClX= 1 NMat=1 NMatS=1 NMatT=0.
 ***** Axes restored to original set *****
 -------------------------------------------------------------------
 Center     Atomic                   Forces (Hartrees/Bohr)
 Number     Number              X              Y              Z
 -------------------------------------------------------------------
      1        7           0.006815922    0.007073537    0.000180676
      2        7          -0.010838760   -0.008627394    0.000280541
      3        6          -0.005306221   -0.002194853    0.000216784
      4        6           0.004382232    0.001197400   -0.000120243
      5        7          -0.014657914   -0.002173733    0.000100460
      6        1           0.002434868   -0.002055348   -0.000096421
      7        1          -0.001265217   -0.000157971    0.000031110
      8        1           0.003389909    0.002195373   -0.000533308
      9        6           0.032874173    0.000380308    0.001127652
     10        8          -0.004496858   -0.007914634   -0.001169787
     11        8          -0.013332134    0.012277315   -0.000017463
 -------------------------------------------------------------------
 Cartesian Forces:  Max     0.032874173 RMS     0.007948696

 GradGradGradGradGradGradGradGradGradGradGradGradGradGradGradGradGradGrad
 Berny optimization.
 Using GEDIIS/GDIIS optimizer.
 FormGI is forming the generalized inverse of G from B-inverse, IUseBI=4.
 Internal  Forces:  Max     0.017219554 RMS     0.004629727
 Search for a local minimum.
 Step number   4 out of a maximum of   57
 All quantities printed in internal units (Hartrees-Bohrs-Radians)
 Mixed Optimization -- RFO/linear search
 Update second derivatives using D2CorX and points    1    3    2    4
 DE= -2.16D-02 DEPred=-1.48D-02 R= 1.46D+00
 TightC=F SS=  1.41D+00  RLast= 3.62D-01 DXNew= 8.4853D-01 1.0856D+00
 Trust test= 1.46D+00 RLast= 3.62D-01 DXMaxT set to 8.49D-01
 ITU=  1  0  1  0
 Use linear search instead of GDIIS.
     Eigenvalues ---    0.02160   0.02277   0.02351   0.02381   0.02480
     Eigenvalues ---    0.02683   0.02963   0.02988   0.14768   0.15958
     Eigenvalues ---    0.16018   0.21657   0.22438   0.23633   0.24900
     Eigenvalues ---    0.30658   0.36162   0.36194   0.41458   0.45719
     Eigenvalues ---    0.52706   0.55321   0.57213   0.61598   0.64820
     Eigenvalues ---    0.66565   0.77000
 RFO step:  Lambda=-2.73706476D-03 EMin= 2.16026113D-02
 Quartic linear search produced a step of  0.05479.
 Iteration  1 RMS(Cart)=  0.01825013 RMS(Int)=  0.00048968
 Iteration  2 RMS(Cart)=  0.00044077 RMS(Int)=  0.00022063
 Iteration  3 RMS(Cart)=  0.00000012 RMS(Int)=  0.00022063
 Variable       Old X    -DE/DX   Delta X   Delta X   Delta X     New X
                                 (Linear)    (Quad)   (Total)
    R1        2.61601  -0.00592   0.00417  -0.00748  -0.00332   2.61269
    R2        2.53919   0.01163   0.00215   0.02416   0.02635   2.56554
    R3        1.90051   0.00003  -0.00031  -0.00004  -0.00036   1.90015
    R4        2.61109  -0.00035   0.00341   0.00157   0.00494   2.61602
    R5        2.68010   0.01538   0.00660   0.02943   0.03603   2.71613
    R6        2.60729  -0.00061  -0.00199  -0.00437  -0.00637   2.60093
    R7        2.03603  -0.00160  -0.00010  -0.00505  -0.00515   2.03088
    R8        2.55671  -0.00025   0.00217   0.00382   0.00604   2.56274
    R9        2.03971   0.00114   0.00003   0.00349   0.00352   2.04323
   R10        2.36550  -0.00895  -0.00364  -0.01948  -0.02312   2.34239
   R11        2.39234  -0.01722  -0.00106  -0.02728  -0.02833   2.36401
    A1        1.96287   0.00346  -0.00362   0.01257   0.00894   1.97181
    A2        2.10365  -0.00557  -0.00022  -0.03638  -0.03662   2.06703
    A3        2.21664   0.00211   0.00383   0.02373   0.02753   2.24417
    A4        1.84355  -0.00226   0.00321  -0.00745  -0.00431   1.83925
    A5        2.11425   0.00084   0.00446   0.00073   0.00522   2.11947
    A6        2.32313   0.00142  -0.00768   0.00641  -0.00124   2.32189
    A7        1.84167   0.00329  -0.00329   0.00482   0.00147   1.84315
    A8        2.12672  -0.00445   0.00107  -0.02235  -0.02126   2.10547
    A9        2.31478   0.00115   0.00223   0.01753   0.01978   2.33456
   A10        1.96290   0.00092   0.00358   0.00928   0.01289   1.97579
   A11        2.22468   0.00013  -0.00255  -0.00150  -0.00406   2.22061
   A12        2.09561  -0.00105  -0.00103  -0.00779  -0.00883   2.08678
   A13        1.81377  -0.00541   0.00012  -0.01925  -0.01903   1.79474
   A14        1.99407   0.00203  -0.00938   0.00341  -0.00680   1.98727
   A15        1.99381  -0.00771   0.00376  -0.04081  -0.03788   1.95593
   A16        2.29508   0.00573   0.00561   0.03891   0.04368   2.33876
    D1       -0.00379  -0.00005  -0.00016  -0.00322  -0.00339  -0.00719
    D2       -3.08224  -0.00002   0.00030   0.00089   0.00114  -3.08109
    D3        3.13015  -0.00027  -0.00055  -0.01359  -0.01395   3.11620
    D4        0.05171  -0.00023  -0.00008  -0.00947  -0.00941   0.04230
    D5        0.00154   0.00002   0.00001   0.00134   0.00134   0.00289
    D6       -3.13180   0.00030   0.00043   0.01285   0.01357  -3.11823
    D7        0.00431   0.00007   0.00024   0.00363   0.00388   0.00819
    D8       -3.14104   0.00009   0.00010   0.00402   0.00410  -3.13694
    D9        3.07185  -0.00004   0.00046  -0.00161  -0.00109   3.07076
   D10       -0.07350  -0.00002   0.00032  -0.00122  -0.00087  -0.07437
   D11        3.13745  -0.00143   0.00041  -0.04858  -0.04815   3.08930
   D12       -0.02445   0.00058  -0.00127   0.01916   0.01787  -0.00658
   D13        0.07920  -0.00122   0.00030  -0.04247  -0.04215   0.03704
   D14       -3.08270   0.00079  -0.00138   0.02527   0.02387  -3.05884
   D15       -0.00368  -0.00006  -0.00025  -0.00311  -0.00341  -0.00710
   D16        3.13948  -0.00002  -0.00008  -0.00127  -0.00136   3.13812
   D17       -3.14094  -0.00007  -0.00008  -0.00343  -0.00354   3.13871
   D18        0.00223  -0.00003   0.00008  -0.00159  -0.00149   0.00074
   D19        0.00138   0.00002   0.00014   0.00114   0.00134   0.00271
   D20        3.14153  -0.00001  -0.00001  -0.00054  -0.00054   3.14099
         Item               Value     Threshold  Converged?
 Maximum Force            0.017220     0.000450     NO 
 RMS     Force            0.004630     0.000300     NO 
 Maximum Displacement     0.053435     0.001800     NO 
 RMS     Displacement     0.018309     0.001200     NO 
 Predicted change in Energy=-1.419679D-03
 GradGradGradGradGradGradGradGradGradGradGradGradGradGradGradGradGradGrad

                          Input orientation:                          
 ---------------------------------------------------------------------
 Center     Atomic      Atomic             Coordinates (Angstroms)
 Number     Number       Type             X           Y           Z
 ---------------------------------------------------------------------
      1          7           0       -0.982511   -0.996781    0.012804
      2          7           0       -0.370867    0.243140    0.013278
      3          6           0       -1.405397    1.162893   -0.000886
      4          6           0       -2.562902    0.418237    0.001986
      5          7           0       -2.337904   -0.919099    0.008222
      6          1           0       -1.200220    2.217799   -0.007862
      7          1           0       -3.578833    0.788256   -0.003304
      8          1           0       -0.401391   -1.817262   -0.000343
      9          6           0        1.058801    0.373800   -0.056303
     10          8           0        1.453216    1.547870   -0.105776
     11          8           0        1.630444   -0.737813   -0.106215
 ---------------------------------------------------------------------
[...]
    A6        2.21325  -0.00000   0.00000   0.00010   0.00010   2.21335
    A7        1.85821  -0.00000   0.00000   0.00001   0.00001   1.85822
    A8        2.09995   0.00000   0.00000  -0.00001  -0.00001   2.09994
    A9        2.32332   0.00000   0.00000   0.00002   0.00002   2.32334
   A10        1.96265  -0.00000   0.00000  -0.00003  -0.00003   1.96262
   A11        2.22677   0.00001   0.00000   0.00007   0.00007   2.22684
   A12        2.09352  -0.00000   0.00000  -0.00004  -0.00004   2.09348
   A13        1.81661  -0.00000   0.00000   0.00000   0.00000   1.81661
   A14        1.97932  -0.00000   0.00000  -0.00001  -0.00001   1.97931
   A15        1.96394   0.00000   0.00000   0.00001   0.00001   1.96395
   A16        2.33989   0.00000   0.00000   0.00001   0.00001   2.33990
    D1        0.13681  -0.00000   0.00000  -0.00006  -0.00006   0.13675
    D2       -2.49838  -0.00000   0.00000  -0.00035  -0.00035  -2.49872
    D3        2.41552  -0.00000   0.00000   0.00002   0.00002   2.41554
    D4       -0.21966  -0.00000   0.00000  -0.00027  -0.00027  -0.21994
    D5       -0.14125   0.00000   0.00000   0.00002   0.00002  -0.14122
    D6       -2.35279  -0.00001   0.00000  -0.00013  -0.00013  -2.35292
    D7       -0.07415   0.00000   0.00000   0.00007   0.00007  -0.07409
    D8        3.12234  -0.00000   0.00000  -0.00018  -0.00018   3.12216
    D9        2.51036   0.00000   0.00000   0.00036   0.00036   2.51072
   D10       -0.57634  -0.00000   0.00000   0.00011   0.00011  -0.57623
   D11        3.02866  -0.00000   0.00000  -0.00012  -0.00012   3.02854
   D12       -0.12053  -0.00000   0.00000  -0.00013  -0.00013  -0.12066
   D13        0.50873  -0.00000   0.00000  -0.00045  -0.00045   0.50828
   D14       -2.64046  -0.00001   0.00000  -0.00046  -0.00046  -2.64092
   D15       -0.01309  -0.00000   0.00000  -0.00006  -0.00006  -0.01314
   D16       -3.13052  -0.00000   0.00000   0.00000   0.00000  -3.13052
   D17        3.06357   0.00000   0.00000   0.00024   0.00024   3.06381
   D18       -0.05387   0.00000   0.00000   0.00030   0.00030  -0.05357
   D19        0.09454  -0.00000   0.00000   0.00002   0.00002   0.09456
   D20       -3.06914  -0.00000   0.00000  -0.00003  -0.00003  -3.06918
         Item               Value     Threshold  Converged?
 Maximum Force            0.000023     0.000450     YES
 RMS     Force            0.000006     0.000300     YES
 Maximum Displacement     0.000773     0.001800     YES
 RMS     Displacement     0.000174     0.001200     YES
 Predicted change in Energy=-7.008519D-09
 Optimization completed.
    -- Stationary point found.
                           ----------------------------
                           !   Optimized Parameters   !
                           ! (Angstroms and Degrees)  !
 --------------------------                            --------------------------
 ! Name  Definition              Value          Derivative Info.                !
 --------------------------------------------------------------------------------
 ! R1    R(1,2)                  1.3991         -DE/DX =    0.0                 !
 ! R2    R(1,5)                  1.3841         -DE/DX =    0.0                 !
 ! R3    R(1,8)                  1.0205         -DE/DX =    0.0                 !
 ! R4    R(2,3)                  1.3773         -DE/DX =    0.0                 !
 ! R5    R(2,9)                  1.4903         -DE/DX =    0.0                 !
 ! R6    R(3,4)                  1.3777         -DE/DX =    0.0                 !
 ! R7    R(3,6)                  1.0768         -DE/DX =    0.0                 !
 ! R8    R(4,5)                  1.3497         -DE/DX =    0.0                 !
 ! R9    R(4,7)                  1.082          -DE/DX =    0.0                 !
 ! R10   R(9,10)                 1.2364         -DE/DX =    0.0                 !
 ! R11   R(9,11)                 1.2435         -DE/DX =    0.0                 !
 ! A1    A(2,1,5)              110.3548         -DE/DX =    0.0                 !
 ! A2    A(2,1,8)              109.952          -DE/DX =    0.0                 !
 ! A3    A(5,1,8)              117.0241         -DE/DX =    0.0                 !
 ! A4    A(1,2,3)              105.9898         -DE/DX =    0.0                 !
 ! A5    A(1,2,9)              119.2244         -DE/DX =    0.0                 !
 ! A6    A(3,2,9)              126.81           -DE/DX =    0.0                 !
 ! A7    A(2,3,4)              106.4676         -DE/DX =    0.0                 !
 ! A8    A(2,3,6)              120.318          -DE/DX =    0.0                 !
 ! A9    A(4,3,6)              133.1164         -DE/DX =    0.0                 !
 ! A10   A(3,4,5)              112.4515         -DE/DX =    0.0                 !
 ! A11   A(3,4,7)              127.5845         -DE/DX =    0.0                 !
 ! A12   A(5,4,7)              119.9499         -DE/DX =    0.0                 !
 ! A13   A(1,5,4)              104.084          -DE/DX =    0.0                 !
 ! A14   A(2,9,10)             113.4067         -DE/DX =    0.0                 !
 ! A15   A(2,9,11)             112.5257         -DE/DX =    0.0                 !
 ! A16   A(10,9,11)            134.0657         -DE/DX =    0.0                 !
 ! D1    D(5,1,2,3)              7.8384         -DE/DX =    0.0                 !
 ! D2    D(5,1,2,9)           -143.1465         -DE/DX =    0.0                 !
 ! D3    D(8,1,2,3)            138.399          -DE/DX =    0.0                 !
 ! D4    D(8,1,2,9)            -12.5859         -DE/DX =    0.0                 !
 ! D5    D(2,1,5,4)             -8.0928         -DE/DX =    0.0                 !
 ! D6    D(8,1,5,4)           -134.8052         -DE/DX =    0.0                 !
 ! D7    D(1,2,3,4)             -4.2487         -DE/DX =    0.0                 !
 ! D8    D(1,2,3,6)            178.8969         -DE/DX =    0.0                 !
 ! D9    D(9,2,3,4)            143.8328         -DE/DX =    0.0                 !
 ! D10   D(9,2,3,6)            -33.0216         -DE/DX =    0.0                 !
 ! D11   D(1,2,9,10)           173.5297         -DE/DX =    0.0                 !
 ! D12   D(1,2,9,11)            -6.9059         -DE/DX =    0.0                 !
 ! D13   D(3,2,9,10)            29.1482         -DE/DX =    0.0                 !
 ! D14   D(3,2,9,11)          -151.2873         -DE/DX =    0.0                 !
 ! D15   D(2,3,4,5)             -0.7498         -DE/DX =    0.0                 !
 ! D16   D(2,3,4,7)           -179.3659         -DE/DX =    0.0                 !
 ! D17   D(6,3,4,5)            175.5296         -DE/DX =    0.0                 !
 ! D18   D(6,3,4,7)             -3.0865         -DE/DX =    0.0                 !
 ! D19   D(3,4,5,1)              5.4167         -DE/DX =    0.0                 !
 ! D20   D(7,4,5,1)           -175.8489         -DE/DX =    0.0                 !
 --------------------------------------------------------------------------------
 GradGradGradGradGradGradGradGradGradGradGradGradGradGradGradGradGradGrad


 ----------------------------------------------------------------------

 Electric dipole moment (input orientation):
 (Debye = 10**-18 statcoulomb cm , SI units = C m)
                  (au)            (Debye)         (10**-30 SI)
   Tot        0.176267D+01      0.448025D+01      0.149445D+02
   x         -0.174573D+01     -0.443721D+01     -0.148009D+02
   y          0.238524D+00      0.606266D+00      0.202229D+01
   z          0.502229D-01      0.127654D+00      0.425807D+00

 Dipole polarizability, Alpha (input orientation).
 (esu units = cm**3 , SI units = C**2 m**2 J**-1)
 Alpha(0;0):
               (au)            (10**-24 esu)      (10**-40 SI)
   iso        0.723440D+02      0.107203D+02      0.119279D+02
   aniso      0.388880D+02      0.576261D+01      0.641177D+01
   xx         0.899579D+02      0.133304D+02      0.148320D+02
   yx         0.278211D+01      0.412267D+00      0.458709D+00
   yy         0.797698D+02      0.118207D+02      0.131523D+02
   zx        -0.272330D+00     -0.403551D-01     -0.449011D-01
   zy        -0.297059D+00     -0.440195D-01     -0.489784D-01
   zz         0.473042D+02      0.700977D+01      0.779942D+01

 ----------------------------------------------------------------------

 Dipole orientation:
     7          0.35270317         -2.22556192          1.59812173
     7          0.65981922          0.27210439          0.78704050
     6          0.37760946          1.75440049          2.90768722
     6         -0.26235351          0.14612511          4.85246183
     7         -0.43641999         -2.28201378          4.09120267
     1          0.56623263          3.77647792          2.78007779
     1         -0.65175706          0.63606791          6.79909450
     1         -0.70805604         -3.20645014          0.32091201
     6         -0.03766934          0.95558744         -1.85446384
     8          0.08651352          3.24897505         -2.28341375
     8         -0.60327292         -0.92114391         -3.15047619

 Electric dipole moment (dipole orientation):
 (Debye = 10**-18 statcoulomb cm , SI units = C m)
                  (au)            (Debye)         (10**-30 SI)
   Tot        0.176267D+01      0.448025D+01      0.149445D+02
   x          0.000000D+00      0.000000D+00      0.000000D+00
   y          0.000000D+00      0.000000D+00      0.000000D+00
   z          0.176267D+01      0.448025D+01      0.149445D+02

 Dipole polarizability, Alpha (dipole orientation).
 (esu units = cm**3 , SI units = C**2 m**2 J**-1)
 Alpha(0;0):
               (au)            (10**-24 esu)      (10**-40 SI)
   iso        0.723440D+02      0.107203D+02      0.119279D+02
   aniso      0.388880D+02      0.576261D+01      0.641177D+01
   xx         0.478788D+02      0.709491D+01      0.789416D+01
   yx         0.426906D+01      0.632610D+00      0.703873D+00
   yy         0.801490D+02      0.118769D+02      0.132148D+02
   zx        -0.149905D+01     -0.222136D+00     -0.247160D+00
   zy        -0.388730D+01     -0.576038D+00     -0.640929D+00
   zz         0.890040D+02      0.131890D+02      0.146748D+02

 ----------------------------------------------------------------------
 1\1\GINC-NODE4\Freq\UM062X\6-31+G(d,p)\C3H3N3O2(1-,2)\GONGKE2021\04-Ju
 n-2023\0\\#N Geom=AllCheck Guess=TCheck SCRF=Check GenChk UM062X/6-31+
 G(d,p) Freq\\test\\-1,2\N,-0.9823879474,-1.0179892033,0.3683133474\N,-
 0.3775543427,0.2432843519,0.3381884397\C,-1.3936720427,1.1461117367,0.
 1161141661\C,-2.5394925815,0.4053341885,-0.074797871\N,-2.3122197059,-
 0.9232199013,-0.003628474\H,-1.182738608,2.2009666614,0.0682491016\H,-
 3.5354649897,0.7725279157,-0.2846148489\H,-0.4066364927,-1.6924150211,
 -0.1366408583\C,1.0368815385,0.3612798728,-0.1161309022\O,1.4228749702
 ,1.5311278821,-0.2217401778\O,1.5728450019,-0.7459682635,-0.2977113928
 \\Version=ES64L-G16RevA.03\State=2-A\HF=-430.6720858\S2=0.765642\S2-1=
 0.\S2A=0.750084\RMSD=2.336e-09\RMSF=1.082e-05\ZeroPoint=0.0721113\Ther
 mal=0.0784784\Dipole=-1.7457317,0.2385235,0.0502229\DipoleDeriv=-0.058
 0163,0.3459508,-0.0502671,0.2894805,-0.3760549,0.1569623,-0.0515698,0.
 4010762,-0.2599713,-1.6788298,-0.2220894,0.0593287,0.0147432,-0.028788
 7,-0.0853574,0.2338549,-0.0453084,-0.1163786,0.1878238,-0.0314189,0.05
 43628,-0.339574,-0.2772307,-0.0173993,0.1136682,-0.0728822,-0.2580143,
 0.23282,0.0098823,0.114326,0.3653561,0.5400064,0.0921952,0.076182,-0.0
 00396,-0.120979,-0.3936657,-0.294021,0.1311309,-0.4809025,-0.6459752,-
 0.1103734,-0.0145999,-0.1404674,-0.2222289,0.1107365,-0.0169711,-0.021
 1488,0.0162842,0.0218253,0.0061862,-0.0310127,0.016976,0.208748,-0.096
 6632,0.0778018,-0.0450912,0.0713127,0.0635838,0.0145791,-0.0541767,0.0
 155908,0.1465822,0.2719617,-0.0045641,0.0069554,-0.0330617,0.3087234,-
 0.0468453,0.0405405,-0.1573348,0.2283626,2.7448427,0.1528273,-0.416380
 2,0.1370067,2.2094286,0.0502201,-0.6249214,0.0256923,0.4456427,-1.0883
 346,-0.3634907,0.0647641,-0.5823127,-1.4967036,0.0539109,0.148116,0.07
 85796,-0.5208198,-1.2326751,0.346093,0.1020196,0.5416675,-1.3188144,-0
 .1140786,0.1639188,-0.1215263,-0.5309436\Polar=89.9578631,2.7821146,79
 .7697936,-0.2723298,-0.2970586,47.3042459\Quadrupole=-9.0032088,2.5714
 76,6.4317328,-6.0547937,2.6912197,0.8193364\PG=C01 [X(C3H3N3O2)]\NImag
 =0\\0.59768650,-0.15211844,0.64202761,-0.06381616,0.13797407,0.1990085
 8,-0.11980103,-0.02732197,0.01615392,0.66713058,-0.04241653,-0.2197178
 7,-0.03417501,-0.05399103,0.59820607,0.03149741,0.02180070,-0.02917809
 ,-0.00782529,-0.03073205,0.08336906,-0.00311807,0.03213188,-0.02316315
 ,-0.23062755,0.10539911,-0.01229351,0.62117173,0.01070805,-0.07481559,
 0.00975770,0.08442406,-0.19048266,0.02652201,0.10256824,0.84419668,-0.
 00279670,0.00728881,-0.00640854,-0.03502313,0.04494283,-0.03897917,0.0
 7564918,-0.03243646,0.10224761,-0.05607635,0.03722462,-0.00161939,-0.0
 7505372,0.03368560,-0.01975844,-0.30689914,-0.13022339,-0.03812147,0.8
 5154057,0.04682771,-0.04384648,0.02110977,0.00768427,0.00622888,-0.008
 19900,-0.11066104,-0.13610558,-0.00322706,-0.05900709,0.56063580,-0.01
 523227,0.01414447,0.00383084,-0.01784104,0.00466410,0.01172158,-0.0416
 7880,-0.01687977,-0.06270668,0.14295181,-0.03160172,0.14722585,-0.2271
 3254,-0.01651773,-0.02670908,-0.07505817,-0.03965933,-0.01607363,0.019
 88401,-0.01665939,-0.00041501,-0.10468121,0.05096887,-0.01480028,0.398
 27577,0.05658987,-0.09246275,-0.01136252,-0.03086248,-0.00931622,0.000
 57042,-0.06623822,-0.10906652,-0.01810711,0.02770993,-0.28894880,0.012
 53466,-0.01216135,0.50012985,-0.07092072,-0.01827174,-0.05716272,-0.01
 027577,-0.00190376,-0.00555993,0.00608168,-0.00339967,0.02814718,-0.01
 528270,0.01149093,-0.05556229,0.07402976,-0.00576585,0.08700553,-0.005
 59799,0.00404097,-0.00046099,0.00975249,0.02472946,-0.00016472,-0.0664
 4152,-0.06935373,-0.00382372,0.00718840,-0.02061784,0.00301826,-0.0037
 4390,-0.00280473,-0.00176861,0.05726145,0.00123034,-0.00088360,-0.0009
 8157,-0.00547152,-0.01449738,0.00000572,-0.05878005,-0.35985122,0.0168
 1890,0.00265137,-0.00337147,0.00026939,0.00068714,0.00163296,0.0011216
 6,0.06302797,0.37859945,-0.00272776,-0.00010876,0.00319894,0.00157294,
 0.00648481,-0.00345795,-0.00167459,0.01677898,-0.02021045,0.00029543,-
 0.00586044,-0.00101425,-0.00125714,0.00044824,0.00625511,0.00353152,-0
 .01775011,0.01827648,0.00094487,-0.00084326,-0.00064450,-0.00271589,-0
 .00151962,-0.00108567,-0.00985521,0.01330855,-0.00236505,-0.31178396,0
 .08719561,-0.05960200,-0.00131872,0.00226011,0.00094735,-0.00032451,-0
 .00046697,0.00049797,0.32454432,0.00284306,-0.00737295,-0.00089280,-0.
 00443135,-0.00393861,0.00009328,-0.01379678,0.01324937,-0.00303941,0.0
 8371062,-0.08824717,0.01758747,0.03010687,-0.00411879,0.00720628,0.000
 70794,-0.00038021,0.00006376,-0.10045567,0.08954224,0.00063549,0.00215
 711,0.00789900,-0.00177070,-0.00320311,0.00672639,-0.00227484,0.002042
 03,-0.00032203,-0.05918531,0.01783716,-0.04369922,0.00016856,0.0028195
 6,-0.00582255,0.00033768,-0.00033501,-0.00228615,0.06319308,-0.0218790
 3,0.03716197,-0.16174977,0.13312188,0.10028458,0.01123200,-0.01067973,
 -0.00817537,-0.00104836,-0.00393248,0.00055573,-0.00679479,-0.00325557
 ,0.00081746,-0.01647676,0.02145417,0.01017766,0.00084700,-0.00040245,0
 .00054292,0.00012714,0.00093255,-0.00057141,0.17020819,0.11604787,-0.2
 0473014,-0.12744278,0.01896993,-0.03242469,-0.01305633,-0.00684515,-0.
 00209175,-0.00256898,-0.00012460,0.00164462,-0.00114401,0.00416424,0.0
 0330138,0.00739884,0.00108031,-0.00073822,-0.00034983,0.00014737,0.000
 18026,-0.00053742,-0.13734951,0.23676694,0.12325125,-0.17112776,-0.120
 45986,-0.00789779,0.00859104,-0.00057900,0.00491256,0.00173416,-0.0009
 5873,-0.00727766,-0.00158912,-0.00000661,-0.01080345,0.02113506,0.0043
 2339,-0.00048470,0.00058882,0.00018735,-0.00036824,0.00141343,0.000004
 93,-0.10316929,0.13791955,0.11878124,-0.01761996,-0.01718665,-0.005066
 00,-0.07780755,-0.01046582,-0.00814913,-0.02533211,0.02022797,0.001006
 33,0.00644857,-0.00039547,0.00341020,0.01852968,0.00833803,0.00702801,
 0.00195289,-0.00197179,-0.00050565,0.00160197,0.00053517,0.00063851,0.
 00842421,0.00038658,0.00255658,0.41105683,-0.02347409,-0.00144645,0.00
 782191,0.01261269,-0.09229712,0.00082990,0.01301549,0.01110026,-0.0079
 5487,0.00787368,-0.00265244,0.00218655,-0.00444899,-0.01019598,-0.0014
 1804,0.00285189,-0.00252325,-0.00000572,0.00077492,0.00047173,0.000972
 97,-0.01075190,-0.00484651,-0.00163663,-0.02943050,1.10789012,-0.00285
 547,0.01191550,-0.00515976,0.01988874,0.00502691,-0.04541672,-0.006907
 10,-0.00978464,-0.00123474,-0.00432727,0.00015625,-0.00030433,-0.00789
 135,-0.00399788,-0.00307605,-0.00015586,0.00053744,0.00001968,-0.00136
 919,-0.00086196,0.00060563,-0.00218513,-0.00088871,0.00284561,-0.04795
 291,0.01864915,0.23563907,-0.00613679,0.00390290,0.00353784,-0.0427245
 5,-0.05489663,0.01841870,0.00233230,-0.00214971,0.00042985,0.00054237,
 -0.00170104,0.00028426,-0.00497284,-0.00375937,-0.00108398,-0.00073185
 ,-0.00102536,-0.00013089,-0.00047617,0.00003505,-0.00007881,-0.0016019
 9,0.00021404,-0.00045913,-0.14383461,-0.14841583,0.01865384,0.16401710
 ,-0.00540162,0.00421599,0.00114446,-0.04662233,-0.02431199,0.01950175,
 0.00381166,-0.00392201,-0.00098649,-0.00312329,-0.00100829,-0.00166893
 ,-0.00341005,0.00123695,0.00005048,-0.00242325,0.00159031,0.00021920,-
 0.00062990,0.00009865,-0.00011853,0.00359932,0.00145823,0.00025010,-0.
 13832897,-0.53977723,0.03756946,0.19084116,0.66523695,0.00289499,-0.00
 395365,0.00314505,0.01773464,0.01901046,0.00983611,-0.00040640,0.00107
 294,-0.00039628,0.00059796,0.00116394,0.00034649,0.00283622,0.00140581
 ,0.00068202,0.00006597,-0.00014474,-0.00093405,0.00025275,0.00005251,-
 0.00010393,0.00046358,0.00000776,-0.00029819,0.01501463,0.03938703,-0.
 08842491,-0.03803425,-0.05170529,0.04652245,-0.00139888,0.00356581,0.0
 0150293,-0.06432661,0.04981452,0.02360965,-0.00006607,-0.00891817,0.00
 490400,-0.00443074,0.00296158,-0.00132759,-0.00330533,-0.00052597,0.00
 106732,-0.00016245,0.00052134,-0.00014476,-0.00074383,-0.00018746,-0.0
 0109224,-0.00316686,0.00330891,-0.00026012,-0.18341991,0.17939265,0.03
 510169,0.03358701,0.00168728,-0.00142009,0.22743368,-0.01083621,-0.000
 96776,-0.00295324,0.04500975,-0.01744842,-0.01733640,-0.00060514,0.007
 78902,-0.00073016,-0.00037744,-0.00432908,-0.00009221,0.00692972,0.007
 80792,0.00349087,-0.00123899,0.00042263,0.00007987,0.00022887,0.000515
 46,0.00024426,0.00726371,0.00147987,0.00272135,0.16829143,-0.46572314,
 -0.05832153,0.01695479,-0.10481756,-0.00629678,-0.23162048,0.57527106,
 0.00006995,-0.00181876,0.00128655,0.02528348,-0.01870623,0.01151771,0.
 00175496,0.00459271,0.00082183,0.00172704,-0.00128071,0.00016862,0.000
 91540,0.00031961,0.00077032,-0.00009483,-0.00013051,-0.00003470,0.0005
 4352,0.00025649,-0.00016404,0.00125927,0.00066190,-0.00384013,0.032019
 44,-0.05883225,-0.09549348,-0.00153742,-0.00425621,0.02962523,-0.06194
 080,0.07919395,0.05534210\\0.00000805,-0.00000949,0.00000719,0.0000127
 9,-0.00000799,-0.00000181,-0.00000397,0.00001303,0.00000751,0.00000052
 ,-0.00003673,-0.00000354,-0.00002458,0.00002744,-0.00000618,-0.0000002
 4,-0.00000248,-0.00000403,-0.00000177,0.00000453,0.00000301,0.00000704
 ,0.00000680,0.00000215,-0.00000188,0.00001295,0.00000264,0.00000206,-0
 .00000391,0.00000017,0.00000199,-0.00000415,-0.00000711\\\@


 ACTORS ARE SO FORTUNATE.  THEY CAN CHOOSE WHETHER
 THEY WILL APPEAR IN A TRAGEDY OR IN COMEDY,
 WHETHER THEY WILL SUFFER OF MAKE MERRY,
 LAUGH OR SHED TEARS.  BUT IN REAL LIFE IT IS DIFFERENT.
 MOST MEN AND WOMEN ARE FORCED TO PERFORM
 PARTS FOR WHICH THEY HAVE NO QUALIFICATIONS.
 THE WORLD IS A STAGE, BUT THE PLAY IS BADLY CAST.

                                   -- OSCAR WILDE
 Job cpu time:       0 days  0 hours 20 minutes  4.7 seconds.
 Elapsed time:       0 days  0 hours  0 minutes 51.0 seconds.
 File lengths (MBytes):  RWF=     73 Int=      0 D2E=      0 Chk=      4 Scr=      1
 Normal termination of Gaussian 16 at Sun Jun  4 02:36:16 2023.
