 Entering Gaussian System, Link 0=/opt/soft/g16/g16
 Initial command:
 /opt/soft/g16/l1.exe "/scratch/gongke2021/PC/Gau-17893.inp" -scrdir="/scratch/gongke2021/PC/"
 Entering Link 1 = /opt/soft/g16/l1.exe PID=     17894.
  
 Copyright (c) 1988,1990,1992,1993,1995,1998,2003,2009,2016,
            Gaussian, Inc.  All Rights Reserved.
  
 This is part of the Gaussian(R) 16 program.  It is based on
 the Gaussian(R) 09 system (copyright 2009, Gaussian, Inc.),
 the Gaussian(R) 03 system (copyright 2003, Gaussian, Inc.),
 the Gaussian(R) 98 system (copyright 1998, Gaussian, Inc.),
 the Gaussian(R) 94 system (copyright 1995, Gaussian, Inc.),
 the Gaussian 92(TM) system (copyright 1992, Gaussian, Inc.),
 the Gaussian 90(TM) system (copyright 1990, Gaussian, Inc.),
 the Gaussian 88(TM) system (copyright 1988, Gaussian, Inc.),
 the Gaussian 86(TM) system (copyright 1986, Carnegie Mellon
 University), and the Gaussian 82(TM) system (copyright 1983,
 Carnegie Mellon University). Gaussian is a federally registered
 trademark of Gaussian, Inc.
  
 This software contains proprietary and confidential information,
 including trade secrets, belonging to Gaussian, Inc.
  
 This software is provided under written license and may be
 used, copied, transmitted, or stored only in accord with that
 written license.
  
 The following legend is applicable only to US Government
 contracts under FAR:
  
                    RESTRICTED RIGHTS LEGEND
  
 Use, reproduction and disclosure by the US Government is
 subject to restrictions as set forth in subparagraphs (a)
 and (c) of the Commercial Computer Software - Restricted
 Rights clause in FAR 52.227-19.
  
 Gaussian, Inc.
 340 Quinnipiac St., Bldg. 40, Wallingford CT 06492
  
  
 ---------------------------------------------------------------
 Warning -- This program may not be used in any manner that
 competes with the business of Gaussian, Inc. or will provide
 assistance to any competitor of Gaussian, Inc.  The licensee
 of this program is prohibited from giving any competitor of
 Gaussian, Inc. access to this program.  By using this program,
 the user acknowledges that Gaussian, Inc. is engaged in the
 business of creating and licensing software in the field of
 computational chemistry and represents and warrants to the
 licensee that it is not a competitor of Gaussian, Inc. and that
 it will not use this program in any manner prohibited above.
 ---------------------------------------------------------------
  

 Cite this work as:
 Gaussian 16, Revision A.03,
 M. J. Frisch, G. W. Trucks, H. B. Schlegel, G. E. Scuseria, 
 M. A. Robb, J. R. Cheeseman, G. Scalmani, V. Barone, 
 G. A. Petersson, H. Nakatsuji, X. Li, M. Caricato, A. V. Marenich, 
 J. Bloino, B. G. Janesko, R. Gomperts, B. Mennucci, H. P. Hratchian, 
 J. V. Ortiz, A. F. Izmaylov, J. L. Sonnenberg, D. Williams-Young, 
 F. Ding, F. Lipparini, F. Egidi, J. Goings, B. Peng, A. Petrone, 
 T. Henderson, D. Ranasinghe, V. G. Zakrzewski, J. Gao, N. Rega, 
 G. Zheng, W. Liang, M. Hada, M. Ehara, K. Toyota, R. Fukuda, 
 J. Hasegawa, M. Ishida, T. Nakajima, Y. Honda, O. Kitao, H. Nakai, 
 T. Vreven, K. Throssell, J. A. Montgomery, Jr., J. E. Peralta, 
 F. Ogliaro, M. J. Bearpark, J. J. Heyd, E. N. Brothers, K. N. Kudin, 
 V. N. Staroverov, T. A. Keith, R. Kobayashi, J. Normand, 
 K. Raghavachari, A. P. Rendell, J. C. Burant, S. S. Iyengar, 
 J. Tomasi, M. Cossi, J. M. Millam, M. Klene, C. Adamo, R. Cammi, 
 J. W. Ochterski, R. L. Martin, K. Morokuma, O. Farkas, 
 J. B. Foresman, and D. J. Fox, Gaussian, Inc., Wallingford CT, 2016.
 
 ******************************************
 Gaussian 16:  ES64L-G16RevA.03 25-Dec-2016
                 4-Jun-2023 
 ******************************************
 %mem=10GB
 %nprocshared=24
 Will use up to   24 processors via shared memory.
 ----------------------------
 # opt freq 6-31+g(d,p) m062x
 ----------------------------
 1/18=20,19=15,26=3,38=1/1,3;
 2/9=110,12=2,17=6,18=5,40=1/2;
 3/5=1,6=6,7=111,11=2,25=1,30=1,71=1,74=-55/1,2,3;
 4//1;
 5/5=2,38=5/2;
 6/7=2,8=2,9=2,10=2,28=1/1;
 7//1,2,3,16;
 1/18=20,19=15,26=3/3(2);
 2/9=110/2;
 99//99;
 2/9=110/2;
 3/5=1,6=6,7=111,11=2,25=1,30=1,71=1,74=-55/1,2,3;
 4/5=5,16=3,69=1/1;
 5/5=2,38=5/2;
 7//1,2,3,16;
 1/18=20,19=15,26=3/3(-5);
 2/9=110/2;
 6/7=2,8=2,9=2,10=2,19=2,28=1/1;
 99/9=1/99;
 ----
 test
 ----
 Symbolic Z-matrix:
 Charge = -1 Multiplicity = 2
 N                    -0.65354  -1.02157   0.36165 
 N                     0.02917   0.21447   0.4699 
 C                    -0.86995   1.21763   0.09227 
 C                    -2.01446   0.54489  -0.27783 
 N                    -1.88768  -0.79392  -0.15907 
 H                    -0.59352   2.25822   0.09424 
 H                    -2.94318   0.97374  -0.63387 
 H                     0.78131  -1.84823  -0.11994 
 C                     1.37284   0.06271  -0.00586 
 O                     2.12733   1.01838  -0.11333 
 O                     1.59204  -1.1958   -0.25208 
 

 GradGradGradGradGradGradGradGradGradGradGradGradGradGradGradGradGradGrad
 Berny optimization.
 Initialization pass.
                           ----------------------------
                           !    Initial Parameters    !
                           ! (Angstroms and Degrees)  !
 --------------------------                            --------------------------
 ! Name  Definition              Value          Derivative Info.                !
 --------------------------------------------------------------------------------
 ! R1    R(1,2)                  1.4162         estimate D2E/DX2                !
 ! R2    R(1,5)                  1.3587         estimate D2E/DX2                !
 ! R3    R(2,3)                  1.399          estimate D2E/DX2                !
 ! R4    R(2,9)                  1.4335         estimate D2E/DX2                !
 ! R5    R(3,4)                  1.3782         estimate D2E/DX2                !
 ! R6    R(3,6)                  1.0767         estimate D2E/DX2                !
 ! R7    R(4,5)                  1.35           estimate D2E/DX2                !
 ! R8    R(4,7)                  1.0831         estimate D2E/DX2                !
 ! R9    R(8,11)                 1.049          estimate D2E/DX2                !
 ! R10   R(9,10)                 1.2223         estimate D2E/DX2                !
 ! R11   R(9,11)                 1.301          estimate D2E/DX2                !
 ! A1    A(2,1,5)              108.7195         estimate D2E/DX2                !
 ! A2    A(1,2,3)              107.18           estimate D2E/DX2                !
 ! A3    A(1,2,9)              109.5178         estimate D2E/DX2                !
 ! A4    A(3,2,9)              126.0672         estimate D2E/DX2                !
 ! A5    A(2,3,4)              104.843          estimate D2E/DX2                !
 ! A6    A(2,3,6)              121.8366         estimate D2E/DX2                !
 ! A7    A(4,3,6)              133.272          estimate D2E/DX2                !
 ! A8    A(3,4,5)              112.4862         estimate D2E/DX2                !
 ! A9    A(3,4,7)              127.3765         estimate D2E/DX2                !
 ! A10   A(5,4,7)              120.1372         estimate D2E/DX2                !
 ! A11   A(1,5,4)              106.5689         estimate D2E/DX2                !
 ! A12   A(2,9,10)             121.6678         estimate D2E/DX2                !
 ! A13   A(2,9,11)             108.8544         estimate D2E/DX2                !
 ! A14   A(10,9,11)            129.4704         estimate D2E/DX2                !
 ! A15   A(8,11,9)             116.5899         estimate D2E/DX2                !
 ! D1    D(5,1,2,3)              4.4433         estimate D2E/DX2                !
 ! D2    D(5,1,2,9)           -135.3205         estimate D2E/DX2                !
 ! D3    D(2,1,5,4)             -4.4309         estimate D2E/DX2                !
 ! D4    D(1,2,3,4)             -2.5964         estimate D2E/DX2                !
 ! D5    D(1,2,3,6)            179.6203         estimate D2E/DX2                !
 ! D6    D(9,2,3,4)            128.5362         estimate D2E/DX2                !
 ! D7    D(9,2,3,6)            -49.247          estimate D2E/DX2                !
 ! D8    D(1,2,9,10)           174.0095         estimate D2E/DX2                !
 ! D9    D(1,2,9,11)            -6.892          estimate D2E/DX2                !
 ! D10   D(3,2,9,10)            43.779          estimate D2E/DX2                !
 ! D11   D(3,2,9,11)          -137.1226         estimate D2E/DX2                !
 ! D12   D(2,3,4,5)             -0.1038         estimate D2E/DX2                !
 ! D13   D(2,3,4,7)           -179.9727         estimate D2E/DX2                !
 ! D14   D(6,3,4,5)            177.3095         estimate D2E/DX2                !
 ! D15   D(6,3,4,7)             -2.5594         estimate D2E/DX2                !
 ! D16   D(3,4,5,1)              2.8654         estimate D2E/DX2                !
 ! D17   D(7,4,5,1)           -177.255          estimate D2E/DX2                !
 ! D18   D(2,9,11,8)             3.0555         estimate D2E/DX2                !
 ! D19   D(10,9,11,8)         -177.9384         estimate D2E/DX2                !
 --------------------------------------------------------------------------------
 Trust Radius=3.00D-01 FncErr=1.00D-07 GrdErr=1.00D-06 EigMax=2.50D+02 EigMin=1.00D-04
 Number of steps in this run=     55 maximum allowed number of steps=    100.
 GradGradGradGradGradGradGradGradGradGradGradGradGradGradGradGradGradGrad

                          Input orientation:                          
 ---------------------------------------------------------------------
 Center     Atomic      Atomic             Coordinates (Angstroms)
 Number     Number       Type             X           Y           Z
 ---------------------------------------------------------------------
      1          7           0       -0.653542   -1.021567    0.361646
      2          7           0        0.029165    0.214473    0.469898
      3          6           0       -0.869948    1.217628    0.092274
      4          6           0       -2.014457    0.544891   -0.277827
      5          7           0       -1.887680   -0.793917   -0.159068
      6          1           0       -0.593516    2.258215    0.094240
      7          1           0       -2.943181    0.973740   -0.633874
      8          1           0        0.781310   -1.848235   -0.119935
      9          6           0        1.372840    0.062709   -0.005863
     10          8           0        2.127333    1.018378   -0.113333
     11          8           0        1.592038   -1.195795   -0.252083
 ---------------------------------------------------------------------
                    Distance matrix (angstroms):
                    1          2          3          4          5
     1  N    0.000000
     2  N    1.416193   0.000000
     3  C    2.265698   1.399044   0.000000
     4  C    2.171360   2.201059   1.378206   0.000000
     5  N    1.358699   2.255381   2.268318   1.350031   0.000000
     6  H    3.291212   2.169270   1.076680   2.256765   3.324836
     7  H    3.196053   3.260313   2.210219   1.083148   2.112850
     8  H    1.724558   2.273409   3.488725   3.683516   2.869952
     9  C    2.327432   1.433472   2.524592   3.432236   3.374651
    10  O    3.481414   2.321364   3.010925   4.172011   4.405319
    11  O    2.334448   2.225463   3.464761   4.004679   3.504083
                    6          7          8          9         10
     6  H    0.000000
     7  H    2.775059   0.000000
     8  H    4.335775   4.701011   0.000000
     9  C    2.949038   4.455605   2.003654   0.000000
    10  O    2.997216   5.097359   3.166906   1.222339   0.000000
    11  O    4.102045   5.041910   1.049010   1.300963   2.282182
                   11
    11  O    0.000000
 Stoichiometry    C3H3N3O2(1-,2)
 Framework group  C1[X(C3H3N3O2)]
 Deg. of freedom    27
 Full point group                 C1      NOp   1
 Largest Abelian subgroup         C1      NOp   1
 Largest concise Abelian subgroup C1      NOp   1
                         Standard orientation:                         
 ---------------------------------------------------------------------
 Center     Atomic      Atomic             Coordinates (Angstroms)
 Number     Number       Type             X           Y           Z
 ---------------------------------------------------------------------
      1          7           0       -0.650183   -1.022079    0.363336
      2          7           0        0.020974    0.220409    0.469990
      3          6           0       -0.887262    1.214603    0.090504
      4          6           0       -2.025326    0.530711   -0.279028
      5          7           0       -1.886171   -0.806682   -0.158201
      6          1           0       -0.620505    2.257714    0.091009
      7          1           0       -2.957848    0.950382   -0.636083
      8          1           0        0.792477   -1.836111   -0.116439
      9          6           0        1.366192    0.080413   -0.005018
     10          8           0        2.111823    1.042884   -0.113634
     11          8           0        1.597166   -1.176370   -0.249255
 ---------------------------------------------------------------------
 Rotational constants (GHZ):           4.9408825           1.8937614           1.4305624
 Standard basis: 6-31+G(d,p) (6D, 7F)
 There are   167 symmetry adapted cartesian basis functions of A   symmetry.
 There are   167 symmetry adapted basis functions of A   symmetry.
   167 basis functions,   277 primitive gaussians,   167 cartesian basis functions
    30 alpha electrons       29 beta electrons
       nuclear repulsion energy       362.3994609836 Hartrees.
 NAtoms=   11 NActive=   11 NUniq=   11 SFac= 1.00D+00 NAtFMM=   60 NAOKFM=F Big=F
 Integral buffers will be    131072 words long.
 Raffenetti 2 integral format.
 Two-electron integral symmetry is turned on.
 One-electron integrals computed using PRISM.
 NBasis=   167 RedAO= T EigKep=  5.30D-05  NBF=   167
 NBsUse=   167 1.00D-06 EigRej= -1.00D+00 NBFU=   167
 ExpMin= 4.38D-02 ExpMax= 5.48D+03 ExpMxC= 8.25D+02 IAcc=3 IRadAn=         5 AccDes= 0.00D+00
 Harris functional with IExCor= 1009 and IRadAn=       5 diagonalized for initial guess.
 HarFok:  IExCor= 1009 AccDes= 0.00D+00 IRadAn=         5 IDoV= 1 UseB2=F ITyADJ=14
 ICtDFT=  3500011 ScaDFX=  1.000000  1.000000  1.000000  1.000000
 FoFCou: FMM=F IPFlag=           0 FMFlag=      100000 FMFlg1=           0
         NFxFlg=           0 DoJE=T BraDBF=F KetDBF=T FulRan=T
         wScrn=  0.000000 ICntrl=       500 IOpCl=  0 I1Cent=   200000004 NGrid=           0
         NMat0=    1 NMatS0=      1 NMatT0=    0 NMatD0=    1 NMtDS0=    0 NMtDT0=    0
 Petite list used in FoFCou.
 Initial guess <Sx>= 0.0000 <Sy>= 0.0000 <Sz>= 0.5000 <S**2>= 0.7500 S= 0.5000
 Keep R1 and R2 ints in memory in canonical form, NReq=220618657.
 Requested convergence on RMS density matrix=1.00D-08 within 128 cycles.
 Requested convergence on MAX density matrix=1.00D-06.
 Requested convergence on             energy=1.00D-06.
 No special actions if energy rises.
 SCF Done:  E(UM062X) =  -430.640021770     A.U. after   19 cycles
            NFock= 19  Conv=0.81D-08     -V/T= 2.0082
 <Sx>= 0.0000 <Sy>= 0.0000 <Sz>= 0.5000 <S**2>= 0.7645 S= 0.5072
 <L.S>=  0.00000000000    
 Annihilation of the first spin contaminant:
 S**2 before annihilation     0.7645,   after     0.7501

 **********************************************************************

            Population analysis using the SCF density.

 **********************************************************************

 Orbital symmetries:
 Alpha Orbitals:
       Occupied  (A) (A) (A) (A) (A) (A) (A) (A) (A) (A) (A) (A)
                 (A) (A) (A) (A) (A) (A) (A) (A) (A) (A) (A) (A)
                 (A) (A) (A) (A) (A) (A)
       Virtual   (A) (A) (A) (A) (A) (A) (A) (A) (A) (A) (A) (A)
                 (A) (A) (A) (A) (A) (A) (A) (A) (A) (A) (A) (A)
                 (A) (A) (A) (A) (A) (A) (A) (A) (A) (A) (A) (A)
                 (A) (A) (A) (A) (A) (A) (A) (A) (A) (A) (A) (A)
                 (A) (A) (A) (A) (A) (A) (A) (A) (A) (A) (A) (A)
                 (A) (A) (A) (A) (A) (A) (A) (A) (A) (A) (A) (A)
                 (A) (A) (A) (A) (A) (A) (A) (A) (A) (A) (A) (A)
                 (A) (A) (A) (A) (A) (A) (A) (A) (A) (A) (A) (A)
                 (A) (A) (A) (A) (A) (A) (A) (A) (A) (A) (A) (A)
                 (A) (A) (A) (A) (A) (A) (A) (A) (A) (A) (A) (A)
                 (A) (A) (A) (A) (A) (A) (A) (A) (A) (A) (A) (A)
                 (A) (A) (A) (A) (A)
 Beta  Orbitals:
       Occupied  (A) (A) (A) (A) (A) (A) (A) (A) (A) (A) (A) (A)
                 (A) (A) (A) (A) (A) (A) (A) (A) (A) (A) (A) (A)
                 (A) (A) (A) (A) (A)
       Virtual   (A) (A) (A) (A) (A) (A) (A) (A) (A) (A) (A) (A)
                 (A) (A) (A) (A) (A) (A) (A) (A) (A) (A) (A) (A)
                 (A) (A) (A) (A) (A) (A) (A) (A) (A) (A) (A) (A)
                 (A) (A) (A) (A) (A) (A) (A) (A) (A) (A) (A) (A)
                 (A) (A) (A) (A) (A) (A) (A) (A) (A) (A) (A) (A)
                 (A) (A) (A) (A) (A) (A) (A) (A) (A) (A) (A) (A)
                 (A) (A) (A) (A) (A) (A) (A) (A) (A) (A) (A) (A)
                 (A) (A) (A) (A) (A) (A) (A) (A) (A) (A) (A) (A)
                 (A) (A) (A) (A) (A) (A) (A) (A) (A) (A) (A) (A)
                 (A) (A) (A) (A) (A) (A) (A) (A) (A) (A) (A) (A)
                 (A) (A) (A) (A) (A) (A) (A) (A) (A) (A) (A) (A)
                 (A) (A) (A) (A) (A) (A)
 The electronic state is 2-A.
 Alpha  occ. eigenvalues --  -19.52207 -19.47075 -14.65285 -14.61641 -14.59686
 Alpha  occ. eigenvalues --  -10.54733 -10.40647 -10.40563  -1.08129  -0.98546
 Alpha  occ. eigenvalues --   -0.97916  -0.81928  -0.71160  -0.59599  -0.53056
 Alpha  occ. eigenvalues --   -0.51069  -0.46937  -0.40747  -0.38372  -0.36946
 Alpha  occ. eigenvalues --   -0.33662  -0.31473  -0.30258  -0.24042  -0.22665
 Alpha  occ. eigenvalues --   -0.20772  -0.19138  -0.17431  -0.15315   0.00650
 Alpha virt. eigenvalues --    0.14658   0.15848   0.16782   0.17910   0.18629
 Alpha virt. eigenvalues --    0.19218   0.19987   0.21890   0.22723   0.23923
 Alpha virt. eigenvalues --    0.24730   0.25905   0.27506   0.28461   0.29333
 Alpha virt. eigenvalues --    0.31294   0.32924   0.35258   0.36558   0.37236
 Alpha virt. eigenvalues --    0.37567   0.37974   0.39087   0.39640   0.40206
 Alpha virt. eigenvalues --    0.41310   0.41907   0.42933   0.43294   0.43900
 Alpha virt. eigenvalues --    0.44808   0.45653   0.47106   0.47603   0.48913
 Alpha virt. eigenvalues --    0.49899   0.52067   0.52914   0.54206   0.54858
 Alpha virt. eigenvalues --    0.57872   0.62601   0.66365   0.68903   0.78632
 Alpha virt. eigenvalues --    0.86705   0.91852   0.93922   0.96611   0.98878
 Alpha virt. eigenvalues --    1.02250   1.04242   1.07313   1.08615   1.10358
 Alpha virt. eigenvalues --    1.11451   1.13526   1.15304   1.17348   1.19973
 Alpha virt. eigenvalues --    1.22522   1.23645   1.27339   1.29971   1.31936
 Alpha virt. eigenvalues --    1.34310   1.36180   1.39402   1.40689   1.43112
 Alpha virt. eigenvalues --    1.48568   1.50882   1.52801   1.53103   1.54491
 Alpha virt. eigenvalues --    1.56837   1.61853   1.62667   1.65437   1.67230
 Alpha virt. eigenvalues --    1.69078   1.72366   1.76978   1.78676   1.84590
 Alpha virt. eigenvalues --    1.87899   1.94766   1.98979   2.01778   2.06370
 Alpha virt. eigenvalues --    2.08557   2.09338   2.13370   2.14043   2.15462
 Alpha virt. eigenvalues --    2.23595   2.25292   2.27831   2.35408   2.39153
 Alpha virt. eigenvalues --    2.39868   2.43388   2.50214   2.52843   2.53035
 Alpha virt. eigenvalues --    2.55630   2.60906   2.66386   2.68664   2.70327
 Alpha virt. eigenvalues --    2.75781   2.77716   2.81119   2.86447   2.88693
 Alpha virt. eigenvalues --    2.92353   2.96752   2.98576   3.03261   3.11891
 Alpha virt. eigenvalues --    3.13520   3.17670   3.27766   3.30884   3.37814
 Alpha virt. eigenvalues --    3.40415   3.47934   3.68970   3.87014   4.20663
 Alpha virt. eigenvalues --    4.37030   4.44338   4.48120   4.59959   4.67040
 Alpha virt. eigenvalues --    4.80177   4.85499
  Beta  occ. eigenvalues --  -19.52183 -19.46978 -14.65124 -14.61010 -14.59389
  Beta  occ. eigenvalues --  -10.54618 -10.40695 -10.40367  -1.07819  -0.97805
  Beta  occ. eigenvalues --   -0.97330  -0.80925  -0.70082  -0.58566  -0.52595
  Beta  occ. eigenvalues --   -0.50440  -0.46096  -0.39508  -0.38024  -0.36625
  Beta  occ. eigenvalues --   -0.33133  -0.30031  -0.29511  -0.23099  -0.22016
  Beta  occ. eigenvalues --   -0.19739  -0.16613  -0.16258  -0.11780
  Beta virt. eigenvalues --    0.14115   0.15427   0.15917   0.16184   0.17867
  Beta virt. eigenvalues --    0.18303   0.18807   0.20012   0.20986   0.21664
  Beta virt. eigenvalues --    0.23866   0.25086   0.25746   0.26899   0.28126
  Beta virt. eigenvalues --    0.29133   0.31089   0.32845   0.35238   0.36399
  Beta virt. eigenvalues --    0.36732   0.37152   0.37880   0.39029   0.39466
  Beta virt. eigenvalues --    0.40216   0.40894   0.41415   0.42470   0.43327
  Beta virt. eigenvalues --    0.43733   0.44513   0.45498   0.46893   0.47489
  Beta virt. eigenvalues --    0.48797   0.49858   0.51788   0.52800   0.53887
  Beta virt. eigenvalues --    0.54709   0.58298   0.62894   0.66929   0.69184
  Beta virt. eigenvalues --    0.79012   0.86866   0.91229   0.94975   0.96962
  Beta virt. eigenvalues --    0.99293   1.02497   1.04471   1.07614   1.09434
  Beta virt. eigenvalues --    1.10719   1.11409   1.13902   1.16189   1.18198
  Beta virt. eigenvalues --    1.21282   1.23209   1.23955   1.27702   1.29953
  Beta virt. eigenvalues --    1.32107   1.34581   1.36806   1.39745   1.40962
  Beta virt. eigenvalues --    1.43301   1.48872   1.51033   1.53088   1.53234
  Beta virt. eigenvalues --    1.54515   1.57262   1.62174   1.63073   1.65820
  Beta virt. eigenvalues --    1.67533   1.69530   1.73238   1.77400   1.79838
  Beta virt. eigenvalues --    1.84775   1.88158   1.95214   1.99150   2.02178
  Beta virt. eigenvalues --    2.06655   2.09107   2.09673   2.13622   2.14458
  Beta virt. eigenvalues --    2.15814   2.23766   2.25811   2.28341   2.35755
  Beta virt. eigenvalues --    2.40020   2.40516   2.43783   2.50911   2.53417
  Beta virt. eigenvalues --    2.53467   2.56226   2.61610   2.66876   2.69024
  Beta virt. eigenvalues --    2.70865   2.76280   2.78216   2.81599   2.86888
  Beta virt. eigenvalues --    2.89205   2.93077   2.97410   2.99117   3.03808
  Beta virt. eigenvalues --    3.12486   3.13997   3.17874   3.28080   3.31107
  Beta virt. eigenvalues --    3.38111   3.40774   3.48243   3.69180   3.87663
  Beta virt. eigenvalues --    4.21053   4.37141   4.44593   4.48205   4.60083
  Beta virt. eigenvalues --    4.67512   4.80856   4.86233
          Condensed to atoms (all electrons):
               1          2          3          4          5          6
     1  N    8.653413  -0.493484  -0.417257   0.479142  -0.851669   0.011667
     2  N   -0.493484   7.841912  -0.194421   0.002214   0.182984  -0.043718
     3  C   -0.417257  -0.194421   7.179564  -0.639617   0.377043   0.405199
     4  C    0.479142   0.002214  -0.639617   6.076016  -0.135620  -0.034807
     5  N   -0.851669   0.182984   0.377043  -0.135620   7.705970  -0.001543
     6  H    0.011667  -0.043718   0.405199  -0.034807  -0.001543   0.517981
     7  H    0.019987  -0.006403  -0.045459   0.399323  -0.063966   0.000692
     8  H    0.124206  -0.041216   0.012103  -0.005845  -0.000555  -0.000031
     9  C   -0.102223   0.371521  -0.469544   0.029694   0.014921  -0.000023
    10  O    0.013673  -0.189281   0.033480  -0.011798   0.006054  -0.001204
    11  O   -0.106939  -0.225167   0.073328  -0.006567   0.012210  -0.000371
               7          8          9         10         11
     1  N    0.019987   0.124206  -0.102223   0.013673  -0.106939
     2  N   -0.006403  -0.041216   0.371521  -0.189281  -0.225167
     3  C   -0.045459   0.012103  -0.469544   0.033480   0.073328
     4  C    0.399323  -0.005845   0.029694  -0.011798  -0.006567
     5  N   -0.063966  -0.000555   0.014921   0.006054   0.012210
     6  H    0.000692  -0.000031  -0.000023  -0.001204  -0.000371
     7  H    0.587408  -0.000016  -0.000296  -0.000089   0.000209
     8  H   -0.000016   0.304547   0.000709   0.006160   0.180873
     9  C   -0.000296   0.000709   4.757709   0.492554   0.200040
    10  O   -0.000089   0.006160   0.492554   8.343453  -0.090005
    11  O    0.000209   0.180873   0.200040  -0.090005   8.490325
          Atomic-Atomic Spin Densities.
               1          2          3          4          5          6
     1  N    1.011355  -0.423495   0.410111  -0.083123  -0.367790  -0.002438
     2  N   -0.423495   0.444405  -0.336016   0.020229   0.168162   0.003098
     3  C    0.410111  -0.336016   0.767409  -0.048859  -0.212621   0.000128
     4  C   -0.083123   0.020229  -0.048859  -0.160974   0.106706  -0.001795
     5  N   -0.367790   0.168162  -0.212621   0.106706   0.492798   0.000894
     6  H   -0.002438   0.003098   0.000128  -0.001795   0.000894  -0.017758
     7  H   -0.000413   0.000714  -0.002793   0.004196  -0.000856   0.000011
     8  H    0.041583  -0.019640   0.011396  -0.001691  -0.013135  -0.000002
     9  C   -0.240920   0.219487  -0.242978   0.009019   0.068415   0.001549
    10  O    0.022739  -0.031118   0.041206   0.000486  -0.006175  -0.000105
    11  O    0.011364  -0.006516  -0.001877   0.004359   0.000746   0.000064
               7          8          9         10         11
     1  N   -0.000413   0.041583  -0.240920   0.022739   0.011364
     2  N    0.000714  -0.019640   0.219487  -0.031118  -0.006516
     3  C   -0.002793   0.011396  -0.242978   0.041206  -0.001877
     4  C    0.004196  -0.001691   0.009019   0.000486   0.004359
     5  N   -0.000856  -0.013135   0.068415  -0.006175   0.000746
     6  H    0.000011  -0.000002   0.001549  -0.000105   0.000064
     7  H    0.002506   0.000000   0.000416  -0.000002  -0.000007
     8  H    0.000000   0.006441  -0.012171   0.000450  -0.007392
     9  C    0.000416  -0.012171   0.332462  -0.063865  -0.015216
    10  O   -0.000002   0.000450  -0.063865   0.081533   0.005642
    11  O   -0.000007  -0.007392  -0.015216   0.005642   0.019494
 Mulliken charges and spin densities:
               1          2
     1  N   -0.330516   0.378973
     2  N   -0.204941   0.039309
     3  C   -0.314419   0.385108
     4  C   -0.152135  -0.151445
     5  N   -0.245829   0.237144
     6  H    0.146159  -0.016353
     7  H    0.108610   0.003773
     8  H    0.419066   0.005840
     9  C    0.704938   0.056200
    10  O   -0.602998   0.050790
    11  O   -0.527936   0.010662
 Sum of Mulliken charges =  -1.00000   1.00000
 Mulliken charges and spin densities with hydrogens summed into heavy atoms:
               1          2
     1  N   -0.330516   0.378973
     2  N   -0.204941   0.039309
     3  C   -0.168260   0.368755
     4  C   -0.043525  -0.147672
     5  N   -0.245829   0.237144
     9  C    0.704938   0.056200
    10  O   -0.602998   0.050790
    11  O   -0.108870   0.016502
 Electronic spatial extent (au):  <R**2>=            810.7344
 Charge=             -1.0000 electrons
 Dipole moment (field-independent basis, Debye):
    X=             -0.3946    Y=              0.7193    Z=             -0.2970  Tot=              0.8725
 Quadrupole moment (field-independent basis, Debye-Ang):
   XX=            -69.8819   YY=            -54.4297   ZZ=            -51.7793
   XY=             -8.6408   XZ=              2.2304   YZ=              0.1052
 Traceless Quadrupole moment (field-independent basis, Debye-Ang):
   XX=            -11.1849   YY=              4.2673   ZZ=              6.9177
   XY=             -8.6408   XZ=              2.2304   YZ=              0.1052
 Octapole moment (field-independent basis, Debye-Ang**2):
  XXX=             -0.7132  YYY=             -4.8486  ZZZ=             -1.5569  XYY=              5.9005
  XXY=              4.2000  XXZ=              2.0582  XZZ=              8.7078  YZZ=             -1.8613
  YYZ=             -1.4831  XYZ=              1.7560
 Hexadecapole moment (field-independent basis, Debye-Ang**3):
 XXXX=           -822.5254 YYYY=           -298.4521 ZZZZ=            -85.0442 XXXY=            -44.4479
 XXXZ=             13.8070 YYYX=            -18.1320 YYYZ=              2.9234 ZZZX=             -1.7385
 ZZZY=              1.1426 XXYY=           -210.1863 XXZZ=           -139.3827 YYZZ=            -73.6465
 XXYZ=             -7.5902 YYXZ=              3.2520 ZZXY=              0.7813
 N-N= 3.623994609836D+02 E-N=-1.742918611439D+03  KE= 4.271268153524D+02
                          Isotropic Fermi Contact Couplings
        Atom                 a.u.       MegaHertz       Gauss      10(-4) cm-1
     1  N(14)              0.11382      36.77511      13.12227      12.26686
     2  N(14)              0.04996      16.14288       5.76018       5.38468
     3  C(13)              0.04631      52.05770      18.57548      17.36458
     4  C(13)             -0.02682     -30.14626     -10.75694     -10.05571
     5  N(14)              0.05471      17.67835       6.30807       5.89686
     6  H(1)              -0.00495     -22.11541      -7.89133      -7.37691
     7  H(1)               0.00076       3.40670       1.21560       1.13635
     8  H(1)               0.00088       3.93217       1.40309       1.31163
     9  C(13)              0.05244      58.95465      21.03648      19.66515
    10  O(17)              0.01125      -6.82083      -2.43384      -2.27518
    11  O(17)              0.00419      -2.54000      -0.90633      -0.84725
 --------------------------------------------------------
       Center         ----  Spin Dipole Couplings  ----
                      3XX-RR        3YY-RR        3ZZ-RR
 --------------------------------------------------------
     1   Atom       -0.317224     -0.455150      0.772374
     2   Atom       -0.129401     -0.126555      0.255956
     3   Atom       -0.115142     -0.135272      0.250414
     4   Atom        0.021599      0.054401     -0.076000
     5   Atom       -0.191162     -0.242473      0.433636
     6   Atom       -0.018602      0.022921     -0.004319
     7   Atom       -0.000853      0.006215     -0.005363
     8   Atom        0.016171     -0.001463     -0.014708
     9   Atom        0.085416     -0.060441     -0.024974
    10   Atom        0.003741     -0.081853      0.078112
    11   Atom       -0.025706      0.026922     -0.001217
 --------------------------------------------------------
                        XY            XZ            YZ
 --------------------------------------------------------
     1   Atom       -0.004559     -0.425718      0.025435
     2   Atom        0.005392      0.029237      0.020411
     3   Atom       -0.010357     -0.127210      0.025430
     4   Atom        0.000423      0.046687     -0.005772
     5   Atom       -0.004738     -0.205036      0.015752
     6   Atom        0.009766     -0.008769     -0.001003
     7   Atom       -0.001324      0.002287     -0.000765
     8   Atom       -0.014455     -0.001684      0.003566
     9   Atom       -0.025292      0.086090     -0.018319
    10   Atom       -0.040000      0.141076     -0.061058
    11   Atom        0.003197     -0.023448     -0.065889
 --------------------------------------------------------


 ---------------------------------------------------------------------------------
              Anisotropic Spin Dipole Couplings in Principal Axis System
 ---------------------------------------------------------------------------------

       Atom             a.u.   MegaHertz   Gauss  10(-4) cm-1        Axes

              Baa    -0.4654   -17.951    -6.405    -5.988  0.8742 -0.3750  0.3084
     1 N(14)  Bbb    -0.4540   -17.510    -6.248    -5.841  0.3602  0.9268  0.1058
              Bcc     0.9195    35.461    12.653    11.829 -0.3255  0.0186  0.9454
 
              Baa    -0.1339    -5.166    -1.843    -1.723  0.8530 -0.5206 -0.0367
     2 N(14)  Bbb    -0.1253    -4.834    -1.725    -1.612  0.5164  0.8521 -0.0852
              Bcc     0.2593    10.000     3.568     3.336  0.0756  0.0537  0.9957
 
              Baa    -0.1553   -20.844    -7.438    -6.953  0.9492  0.1225  0.2899
     3 C(13)  Bbb    -0.1367   -18.350    -6.548    -6.121 -0.0981  0.9904 -0.0973
              Bcc     0.2921    39.194    13.985    13.074 -0.2990  0.0639  0.9521
 
              Baa    -0.0949   -12.740    -4.546    -4.250 -0.3717  0.0369  0.9276
     4 C(13)  Bbb     0.0401     5.384     1.921     1.796  0.9231  0.1202  0.3652
              Bcc     0.0548     7.356     2.625     2.454 -0.0981  0.9921 -0.0788
 
              Baa    -0.2524    -9.736    -3.474    -3.248  0.9581  0.0031  0.2863
     5 N(14)  Bbb    -0.2428    -9.366    -3.342    -3.124  0.0034  0.9997 -0.0222
              Bcc     0.4953    19.102     6.816     6.372 -0.2863  0.0223  0.9579
 
              Baa    -0.0243   -12.963    -4.625    -4.324  0.9042 -0.1788  0.3879
     6 H(1)   Bbb    -0.0011    -0.589    -0.210    -0.197 -0.3568  0.1833  0.9160
              Bcc     0.0254    13.552     4.836     4.521  0.2349  0.9667 -0.1019
 
              Baa    -0.0063    -3.373    -1.204    -1.125 -0.3824  0.0160  0.9239
     7 H(1)   Bbb    -0.0003    -0.134    -0.048    -0.045  0.9010  0.2281  0.3690
              Bcc     0.0066     3.507     1.252     1.170 -0.2048  0.9735 -0.1016
 
              Baa    -0.0158    -8.432    -3.009    -2.813 -0.1027 -0.3363  0.9361
     8 H(1)   Bbb    -0.0087    -4.666    -1.665    -1.557  0.4887  0.8026  0.3420
              Bcc     0.0245    13.099     4.674     4.369  0.8664 -0.4927 -0.0819
 
              Baa    -0.0738    -9.906    -3.535    -3.304 -0.3823  0.4106  0.8278
     9 C(13)  Bbb    -0.0635    -8.523    -3.041    -2.843  0.3238  0.8986 -0.2962
              Bcc     0.1373    18.430     6.576     6.147  0.8654 -0.1548  0.4765
 
              Baa    -0.1085     7.853     2.802     2.620 -0.5816  0.5335  0.6141
    10 O(17)  Bbb    -0.0967     7.000     2.498     2.335  0.5620  0.8093 -0.1708
              Bcc     0.2053   -14.854    -5.300    -4.955  0.5881 -0.2458  0.7705
 
              Baa    -0.0622     4.499     1.605     1.501  0.4261  0.5280  0.7346
    11 O(17)  Bbb    -0.0208     1.508     0.538     0.503  0.8906 -0.3877 -0.2378
              Bcc     0.0830    -6.006    -2.143    -2.004  0.1593  0.7556 -0.6354
 

 ---------------------------------------------------------------------------------

 Calling FoFJK, ICntrl=      2127 FMM=F ISym2X=0 I1Cent= 0 IOpClX= 1 NMat=1 NMatS=1 NMatT=0.
 ***** Axes restored to original set *****
 -------------------------------------------------------------------
 Center     Atomic                   Forces (Hartrees/Bohr)
 Number     Number              X              Y              Z
 -------------------------------------------------------------------
      1        7          -0.023745254   -0.013627642    0.000602319
      2        7           0.016581883   -0.019126948   -0.011170013
      3        6          -0.001667715    0.008901495   -0.000412523
      4        6          -0.002749312   -0.000915778   -0.002645449
      5        7           0.007606490    0.006998438    0.010272388
      6        1          -0.000256437    0.000244828   -0.000081238
      7        1          -0.000012790    0.000911907   -0.000607887
      8        1           0.007874168    0.051199468    0.001316340
      9        6          -0.049405973    0.026618295    0.016296776
     10        8           0.005839489   -0.013690774   -0.003705087
     11        8           0.039935450   -0.047513291   -0.009865627
 -------------------------------------------------------------------
 Cartesian Forces:  Max     0.051199468 RMS     0.019157952

 GradGradGradGradGradGradGradGradGradGradGradGradGradGradGradGradGradGrad
 Berny optimization.
 FormGI is forming the generalized inverse of G from B-inverse, IUseBI=4.
 Internal  Forces:  Max     0.069935399 RMS     0.014626157
 Search for a local minimum.
 Step number   1 out of a maximum of   55
 All quantities printed in internal units (Hartrees-Bohrs-Radians)
 Mixed Optimization -- RFO/linear search
 Second derivative matrix not updated -- first step.
 ITU=  0
     Eigenvalues ---    0.01249   0.01515   0.01913   0.02073   0.02195
     Eigenvalues ---    0.02370   0.03002   0.03589   0.15974   0.16000
     Eigenvalues ---    0.16000   0.19309   0.22028   0.23755   0.24998
     Eigenvalues ---    0.25000   0.35617   0.36398   0.40014   0.40241
     Eigenvalues ---    0.40494   0.43089   0.47341   0.51468   0.53241
     Eigenvalues ---    0.66926   0.94354
 RFO step:  Lambda=-4.23207628D-02 EMin= 1.24900367D-02
 Linear search not attempted -- first point.
 Maximum step size (   0.300) exceeded in Quadratic search.
    -- Step size scaled by   0.743
 Iteration  1 RMS(Cart)=  0.07651045 RMS(Int)=  0.00855744
 Iteration  2 RMS(Cart)=  0.01598678 RMS(Int)=  0.00072741
 Iteration  3 RMS(Cart)=  0.00036799 RMS(Int)=  0.00060577
 Iteration  4 RMS(Cart)=  0.00000012 RMS(Int)=  0.00060577
 Variable       Old X    -DE/DX   Delta X   Delta X   Delta X     New X
                                 (Linear)    (Quad)   (Total)
    R1        2.67622   0.01731   0.00000   0.02695   0.02704   2.70326
    R2        2.56757  -0.00585   0.00000  -0.00741  -0.00747   2.56010
    R3        2.64381   0.01006   0.00000   0.01435   0.01442   2.65823
    R4        2.70887   0.00088   0.00000   0.00146   0.00146   2.71033
    R5        2.60443  -0.00204   0.00000  -0.00276  -0.00278   2.60165
    R6        2.03463   0.00017   0.00000   0.00031   0.00031   2.03494
    R7        2.55119  -0.00278   0.00000  -0.00297  -0.00307   2.54812
    R8        2.04685   0.00057   0.00000   0.00107   0.00107   2.04792
    R9        1.98234  -0.03776   0.00000  -0.06341  -0.06341   1.91893
   R10        2.30989  -0.00677   0.00000  -0.00510  -0.00510   2.30478
   R11        2.45846   0.00611   0.00000   0.00638   0.00638   2.46484
    A1        1.89751  -0.00311   0.00000  -0.01105  -0.01090   1.88662
    A2        1.87064  -0.00694   0.00000  -0.00627  -0.00663   1.86401
    A3        1.91145   0.02529   0.00000   0.09540   0.09583   2.00728
    A4        2.20029  -0.01507   0.00000  -0.03332  -0.03502   2.16527
    A5        1.82986   0.00342   0.00000   0.00577   0.00580   1.83565
    A6        2.12645  -0.00162   0.00000  -0.00203  -0.00207   2.12438
    A7        2.32603  -0.00172   0.00000  -0.00327  -0.00334   2.32269
    A8        1.96326  -0.00163   0.00000  -0.00655  -0.00676   1.95650
    A9        2.22314   0.00002   0.00000   0.00038   0.00028   2.22342
   A10        2.09679   0.00161   0.00000   0.00622   0.00613   2.10291
   A11        1.85998   0.00839   0.00000   0.01942   0.01925   1.87923
   A12        2.12350   0.00515   0.00000   0.01288   0.01238   2.13589
   A13        1.89987   0.02138   0.00000   0.05412   0.05367   1.95353
   A14        2.25968  -0.02660   0.00000  -0.06786  -0.06825   2.19143
   A15        2.03488  -0.06994   0.00000  -0.25681  -0.25681   1.77807
    D1        0.07755  -0.00055   0.00000  -0.00598  -0.00550   0.07205
    D2       -2.36179   0.00405   0.00000  -0.03957  -0.04194  -2.40373
    D3       -0.07733   0.00240   0.00000   0.02195   0.02153  -0.05580
    D4       -0.04532  -0.00202   0.00000  -0.01316  -0.01336  -0.05867
    D5        3.13497  -0.00380   0.00000  -0.02366  -0.02359   3.11137
    D6        2.24338   0.01459   0.00000   0.09880   0.09761   2.34099
    D7       -0.85952   0.01281   0.00000   0.08830   0.08737  -0.77215
    D8        3.03704   0.00273   0.00000   0.04254   0.04330   3.08034
    D9       -0.12029  -0.00174   0.00000  -0.01022  -0.01056  -0.13085
   D10        0.76409  -0.00128   0.00000  -0.03078  -0.03044   0.73365
   D11       -2.39324  -0.00576   0.00000  -0.08355  -0.08430  -2.47754
   D12       -0.00181   0.00410   0.00000   0.02859   0.02835   0.02654
   D13       -3.14112  -0.00048   0.00000  -0.00270  -0.00255   3.13952
   D14        3.09463   0.00620   0.00000   0.04093   0.04036   3.13500
   D15       -0.04467   0.00162   0.00000   0.00963   0.00946  -0.03521
   D16        0.05001  -0.00388   0.00000  -0.03154  -0.03129   0.01872
   D17       -3.09368   0.00033   0.00000  -0.00278  -0.00281  -3.09649
   D18        0.05333   0.00561   0.00000   0.06308   0.06200   0.11533
   D19       -3.10561   0.00111   0.00000   0.00601   0.00709  -3.09852
         Item               Value     Threshold  Converged?
 Maximum Force            0.069935     0.000450     NO 
 RMS     Force            0.014626     0.000300     NO 
 Maximum Displacement     0.313161     0.001800     NO 
 RMS     Displacement     0.082560     0.001200     NO 
 Predicted change in Energy=-2.243225D-02
 GradGradGradGradGradGradGradGradGradGradGradGradGradGradGradGradGradGrad

                          Input orientation:                          
 ---------------------------------------------------------------------
 Center     Atomic      Atomic             Coordinates (Angstroms)
 Number     Number       Type             X           Y           Z
 ---------------------------------------------------------------------
      1          7           0       -0.737158   -1.071590    0.371663
      2          7           0        0.013824    0.144347    0.433812
      3          6           0       -0.860184    1.181531    0.060859
      4          6           0       -2.039381    0.555661   -0.275555
      5          7           0       -1.970330   -0.780487   -0.107801
      6          1           0       -0.545533    2.211343    0.052060
      7          1           0       -2.957891    1.020561   -0.614138
      8          1           0        0.832093   -1.682517   -0.133773
      9          6           0        1.373432    0.040692   -0.010913
     10          8           0        2.115357    1.006646   -0.074129
     11          8           0        1.716133   -1.195666   -0.246010
 ---------------------------------------------------------------------
                    Distance matrix (angstroms):
                    1          2          3          4          5
     1  N    0.000000
     2  N    1.430503   0.000000
     3  C    2.277781   1.406675   0.000000
     4  C    2.182343   2.210889   1.376732   0.000000
     5  N    1.354747   2.255111   2.260616   1.348407   0.000000
     6  H    3.304014   2.175106   1.076845   2.253928   3.317627
     7  H    3.206330   3.270633   2.209504   1.083712   2.115520
     8  H    1.758194   2.080661   3.332334   3.643474   2.944130
     9  C    2.416221   1.434245   2.509124   3.461577   3.444483
    10  O    3.557336   2.327661   2.983730   4.183994   4.459575
    11  O    2.532895   2.270605   3.518897   4.143900   3.712342
                    6          7          8          9         10
     6  H    0.000000
     7  H    2.771507   0.000000
     8  H    4.134553   4.679888   0.000000
     9  C    2.897950   4.481560   1.810412   0.000000
    10  O    2.923620   5.101926   2.980256   1.219638   0.000000
    11  O    4.100205   5.185912   1.015455   1.304337   2.244794
                   11
    11  O    0.000000
 Stoichiometry    C3H3N3O2(1-,2)
 Framework group  C1[X(C3H3N3O2)]
 Deg. of freedom    27
 Full point group                 C1      NOp   1
 Largest Abelian subgroup         C1      NOp   1
 Largest concise Abelian subgroup C1      NOp   1
                         Standard orientation:                         
 ---------------------------------------------------------------------
 Center     Atomic      Atomic             Coordinates (Angstroms)
 Number     Number       Type             X           Y           Z
 ---------------------------------------------------------------------
      1          7           0       -0.722818   -1.066140    0.347453
      2          7           0        0.010906    0.158960    0.431821
      3          6           0       -0.876533    1.189875    0.073492
      4          6           0       -2.045955    0.553265   -0.276612
      5          7           0       -1.958659   -0.784381   -0.130716
      6          1           0       -0.576303    2.223980    0.082588
      7          1           0       -2.969976    1.010840   -0.610141
      8          1           0        0.856171   -1.646681   -0.163441
      9          6           0        1.373012    0.081645   -0.010613
     10          8           0        2.101512    1.058767   -0.055742
     11          8           0        1.733608   -1.145757   -0.265073
 ---------------------------------------------------------------------
 Rotational constants (GHZ):           5.0440093           1.8113457           1.3845425
 Standard basis: 6-31+G(d,p) (6D, 7F)
 There are   167 symmetry adapted cartesian basis functions of A   symmetry.
 There are   167 symmetry adapted basis functions of A   symmetry.
   167 basis functions,   277 primitive gaussians,   167 cartesian basis functions
    30 alpha electrons       29 beta electrons
       nuclear repulsion energy       360.0913757107 Hartrees.
 NAtoms=   11 NActive=   11 NUniq=   11 SFac= 1.00D+00 NAtFMM=   60 NAOKFM=F Big=F
 Integral buffers will be    131072 words long.
 Raffenetti 2 integral format.
 Two-electron integral symmetry is turned on.
 One-electron integrals computed using PRISM.
 NBasis=   167 RedAO= T EigKep=  5.13D-05  NBF=   167
 NBsUse=   167 1.00D-06 EigRej= -1.00D+00 NBFU=   167
 Initial guess from the checkpoint file:  "/scratch/gongke2021/PC/Gau-17894.chk"
 B after Tr=    -0.000000   -0.000000    0.000000
         Rot=    0.999950   -0.009338    0.002627   -0.002347 Ang=  -1.14 deg.
 Initial guess <Sx>= 0.0000 <Sy>= 0.0000 <Sz>= 0.5000 <S**2>= 0.7644 S= 0.5072
 ExpMin= 4.38D-02 ExpMax= 5.48D+03 ExpMxC= 8.25D+02 IAcc=2 IRadAn=         4 AccDes= 0.00D+00
 Harris functional with IExCor= 1009 and IRadAn=       4 diagonalized for initial guess.
 HarFok:  IExCor= 1009 AccDes= 0.00D+00 IRadAn=         4 IDoV= 1 UseB2=F ITyADJ=14
 ICtDFT=  3500011 ScaDFX=  1.000000  1.000000  1.000000  1.000000
 FoFCou: FMM=F IPFlag=           0 FMFlag=      100000 FMFlg1=           0
         NFxFlg=           0 DoJE=T BraDBF=F KetDBF=T FulRan=T
         wScrn=  0.000000 ICntrl=       500 IOpCl=  0 I1Cent=   200000004 NGrid=           0
         NMat0=    1 NMatS0=      1 NMatT0=    0 NMatD0=    1 NMtDS0=    0 NMtDT0=    0
 Petite list used in FoFCou.
 Keep R1 and R2 ints in memory in canonical form, NReq=220618657.
 Requested convergence on RMS density matrix=1.00D-08 within 128 cycles.
 Requested convergence on MAX density matrix=1.00D-06.
 Requested convergence on             energy=1.00D-06.
 No special actions if energy rises.
 SCF Done:  E(UM062X) =  -430.654525889     A.U. after   16 cycles
            NFock= 16  Conv=0.85D-08     -V/T= 2.0082
 <Sx>= 0.0000 <Sy>= 0.0000 <Sz>= 0.5000 <S**2>= 0.7644 S= 0.5072
 <L.S>=  0.00000000000    
 Annihilation of the first spin contaminant:
 S**2 before annihilation     0.7644,   after     0.7501
 Calling FoFJK, ICntrl=      2127 FMM=F ISym2X=0 I1Cent= 0 IOpClX= 1 NMat=1 NMatS=1 NMatT=0.
 ***** Axes restored to original set *****
 -------------------------------------------------------------------
 Center     Atomic                   Forces (Hartrees/Bohr)
 Number     Number              X              Y              Z
 -------------------------------------------------------------------
      1        7           0.005347970   -0.004266070   -0.004136038
      2        7           0.009949098   -0.006889736   -0.012755942
      3        6           0.003078119    0.006974117    0.000447341
      4        6          -0.000423371   -0.000899202    0.002708989
      5        7           0.006143990    0.001418297    0.003121441
      6        1           0.000352332    0.000049915   -0.000612400
      7        1           0.000376768    0.000013361   -0.000133289
      8        1           0.005785239   -0.000419514   -0.002952060
      9        6          -0.028561883    0.034672193    0.018044961
     10        8           0.001491047   -0.000933065   -0.003573802
     11        8          -0.003539308   -0.029720296   -0.000159201
 -------------------------------------------------------------------
 Cartesian Forces:  Max     0.034672193 RMS     0.010713225

 GradGradGradGradGradGradGradGradGradGradGradGradGradGradGradGradGradGrad
 Berny optimization.
 Using GEDIIS/GDIIS optimizer.
 FormGI is forming the generalized inverse of G from B-inverse, IUseBI=4.
 Internal  Forces:  Max     0.029720199 RMS     0.006917095
 Search for a local minimum.
 Step number   2 out of a maximum of   55
 All quantities printed in internal units (Hartrees-Bohrs-Radians)
 Mixed Optimization -- RFO/linear search
 Update second derivatives using D2CorX and points    1    2
 DE= -1.45D-02 DEPred=-2.24D-02 R= 6.47D-01
 TightC=F SS=  1.41D+00  RLast= 3.57D-01 DXNew= 5.0454D-01 1.0708D+00
 Trust test= 6.47D-01 RLast= 3.57D-01 DXMaxT set to 5.05D-01
 ITU=  1  0
 Use linear search instead of GDIIS.
     Eigenvalues ---    0.01247   0.01522   0.01912   0.02071   0.02195
     Eigenvalues ---    0.02371   0.03002   0.03377   0.15985   0.15994
     Eigenvalues ---    0.17950   0.21082   0.23083   0.23819   0.24706
     Eigenvalues ---    0.29525   0.35618   0.36398   0.38074   0.40260
     Eigenvalues ---    0.43034   0.47265   0.48229   0.51510   0.53297
     Eigenvalues ---    0.71608   0.94422
 RFO step:  Lambda=-5.59764458D-03 EMin= 1.24696963D-02
 Quartic linear search produced a step of -0.06884.
 Iteration  1 RMS(Cart)=  0.04920902 RMS(Int)=  0.00181884
 Iteration  2 RMS(Cart)=  0.00280437 RMS(Int)=  0.00036447
 Iteration  3 RMS(Cart)=  0.00000512 RMS(Int)=  0.00036445
 Iteration  4 RMS(Cart)=  0.00000000 RMS(Int)=  0.00036445
 Variable       Old X    -DE/DX   Delta X   Delta X   Delta X     New X
                                 (Linear)    (Quad)   (Total)
    R1        2.70326  -0.00382  -0.00186  -0.00326  -0.00520   2.69806
    R2        2.56010  -0.00446   0.00051  -0.00949  -0.00895   2.55115
    R3        2.65823  -0.00040  -0.00099   0.00198   0.00091   2.65914
    R4        2.71033  -0.02732  -0.00010  -0.06118  -0.06128   2.64905
    R5        2.60165  -0.00108   0.00019  -0.00176  -0.00153   2.60012
    R6        2.03494   0.00016  -0.00002   0.00046   0.00044   2.03538
    R7        2.54812   0.00151   0.00021   0.00276   0.00306   2.55118
    R8        2.04792  -0.00027  -0.00007  -0.00045  -0.00052   2.04740
    R9        1.91893  -0.00516   0.00436  -0.02643  -0.02206   1.89687
   R10        2.30478   0.00035   0.00035  -0.00082  -0.00046   2.30432
   R11        2.46484   0.02972  -0.00044   0.04218   0.04174   2.50658
    A1        1.88662  -0.00550   0.00075  -0.02711  -0.02698   1.85964
    A2        1.86401   0.00758   0.00046   0.03236   0.03219   1.89621
    A3        2.00728  -0.00898  -0.00660  -0.00872  -0.01604   1.99124
    A4        2.16527   0.00238   0.00241   0.01247   0.01500   2.18027
    A5        1.83565  -0.00565  -0.00040  -0.02128  -0.02230   1.81335
    A6        2.12438   0.00273   0.00014   0.01064   0.01072   2.13511
    A7        2.32269   0.00293   0.00023   0.01184   0.01199   2.33469
    A8        1.95650  -0.00005   0.00047   0.00141   0.00161   1.95811
    A9        2.22342  -0.00013  -0.00002  -0.00222  -0.00217   2.22126
   A10        2.10291   0.00022  -0.00042   0.00119   0.00085   2.10376
   A11        1.87923   0.00374  -0.00133   0.01981   0.01810   1.89733
   A12        2.13589   0.00714  -0.00085   0.02891   0.02809   2.16398
   A13        1.95353  -0.00789  -0.00369  -0.01573  -0.01940   1.93413
   A14        2.19143   0.00078   0.00470  -0.01308  -0.00836   2.18307
   A15        1.77807   0.00689   0.01768  -0.02355  -0.00587   1.77220
    D1        0.07205  -0.00148   0.00038  -0.06661  -0.06623   0.00582
    D2       -2.40373  -0.00409   0.00289  -0.11333  -0.10991  -2.51364
    D3       -0.05580   0.00065  -0.00148   0.04442   0.04236  -0.01344
    D4       -0.05867   0.00180   0.00092   0.06134   0.06251   0.00384
    D5        3.11137   0.00124   0.00162   0.02363   0.02561   3.13699
    D6        2.34099  -0.00048  -0.00672   0.10441   0.09838   2.43937
    D7       -0.77215  -0.00103  -0.00601   0.06670   0.06148  -0.71067
    D8        3.08034   0.00038  -0.00298  -0.05102  -0.05449   3.02585
    D9       -0.13085   0.00081   0.00073  -0.05029  -0.04994  -0.18079
   D10        0.73365  -0.00369   0.00210  -0.11301  -0.11053   0.62311
   D11       -2.47754  -0.00326   0.00580  -0.11228  -0.10599  -2.58353
   D12        0.02654  -0.00178  -0.00195  -0.03787  -0.03911  -0.01256
   D13        3.13952  -0.00036   0.00018  -0.02240  -0.02209   3.11743
   D14        3.13500  -0.00117  -0.00278   0.00591   0.00391   3.13891
   D15       -0.03521   0.00025  -0.00065   0.02138   0.02093  -0.01429
   D16        0.01872   0.00077   0.00215  -0.00383  -0.00181   0.01691
   D17       -3.09649  -0.00053   0.00019  -0.01803  -0.01747  -3.11397
   D18        0.11533   0.00121  -0.00427   0.05019   0.04603   0.16135
   D19       -3.09852   0.00195  -0.00049   0.05296   0.05237  -3.04615
         Item               Value     Threshold  Converged?
 Maximum Force            0.029720     0.000450     NO 
 RMS     Force            0.006917     0.000300     NO 
 Maximum Displacement     0.185157     0.001800     NO 
 RMS     Displacement     0.049769     0.001200     NO 
 Predicted change in Energy=-3.128219D-03
 GradGradGradGradGradGradGradGradGradGradGradGradGradGradGradGradGradGrad

                          Input orientation:                          
 ---------------------------------------------------------------------
 Center     Atomic      Atomic             Coordinates (Angstroms)
 Number     Number       Type             X           Y           Z
 ---------------------------------------------------------------------
      1          7           0       -0.706582   -1.093065    0.273682
      2          7           0        0.009933    0.137388    0.378855
      3          6           0       -0.855564    1.192667    0.036225
      4          6           0       -2.044856    0.564051   -0.252906
      5          7           0       -1.956595   -0.777151   -0.126554
      6          1           0       -0.540171    2.222491    0.045489
      7          1           0       -2.979515    1.029391   -0.542221
      8          1           0        0.834489   -1.687332   -0.103977
      9          6           0        1.356887    0.049280    0.000648
     10          8           0        2.103341    1.009133   -0.091020
     11          8           0        1.718995   -1.216333   -0.162147
 ---------------------------------------------------------------------
                    Distance matrix (angstroms):
                    1          2          3          4          5
     1  N    0.000000
     2  N    1.427750   0.000000
     3  C    2.302857   1.407158   0.000000
     4  C    2.194153   2.191648   1.375925   0.000000
     5  N    1.350008   2.226893   2.262509   1.350029   0.000000
     6  H    3.327563   2.182064   1.077078   2.259102   3.321703
     7  H    3.215081   3.252822   2.207358   1.083436   2.117248
     8  H    1.694308   2.059763   3.342204   3.658078   2.935829
     9  C    2.374322   1.401816   2.490690   3.449802   3.417357
    10  O    3.528161   2.315833   2.967322   4.175146   4.435669
    11  O    2.467502   2.246360   3.531428   4.164682   3.701906
                    6          7          8          9         10
     6  H    0.000000
     7  H    2.778362   0.000000
     8  H    4.147137   4.703113   0.000000
     9  C    2.885080   4.478807   1.816498   0.000000
    10  O    2.911877   5.102884   2.980114   1.219392   0.000000
    11  O    4.119763   5.221468   1.003780   1.326423   2.259531
                   11
    11  O    0.000000
 Stoichiometry    C3H3N3O2(1-,2)
 Framework group  C1[X(C3H3N3O2)]
 Deg. of freedom    27
 Full point group                 C1      NOp   1
 Largest Abelian subgroup         C1      NOp   1
 Largest concise Abelian subgroup C1      NOp   1
                         Standard orientation:                         
 ---------------------------------------------------------------------
 Center     Atomic      Atomic             Coordinates (Angstroms)
 Number     Number       Type             X           Y           Z
 ---------------------------------------------------------------------
      1          7           0       -0.680698   -1.090898    0.259965
      2          7           0        0.008269    0.153220    0.386316
      3          6           0       -0.883877    1.195351    0.073055
      4          6           0       -2.060733    0.545807   -0.220664
      5          7           0       -1.940775   -0.795401   -0.123975
      6          1           0       -0.592086    2.231742    0.102196
      7          1           0       -3.008086    0.995554   -0.492848
      8          1           0        0.870512   -1.641233   -0.141981
      9          6           0        1.353823    0.104328   -0.003790
     10          8           0        2.077344    1.082888   -0.080297
     11          8           0        1.743507   -1.148817   -0.196592
 ---------------------------------------------------------------------
 Rotational constants (GHZ):           5.0547794           1.8413342           1.3858606
 Standard basis: 6-31+G(d,p) (6D, 7F)
 There are   167 symmetry adapted cartesian basis functions of A   symmetry.
 There are   167 symmetry adapted basis functions of A   symmetry.
   167 basis functions,   277 primitive gaussians,   167 cartesian basis functions
    30 alpha electrons       29 beta electrons
       nuclear repulsion energy       361.2382400149 Hartrees.
 NAtoms=   11 NActive=   11 NUniq=   11 SFac= 1.00D+00 NAtFMM=   60 NAOKFM=F Big=F
 Integral buffers will be    131072 words long.
 Raffenetti 2 integral format.
 Two-electron integral symmetry is turned on.
 One-electron integrals computed using PRISM.
 NBasis=   167 RedAO= T EigKep=  4.81D-05  NBF=   167
 NBsUse=   167 1.00D-06 EigRej= -1.00D+00 NBFU=   167
 Initial guess from the checkpoint file:  "/scratch/gongke2021/PC/Gau-17894.chk"
 B after Tr=    -0.000000   -0.000000    0.000000
         Rot=    0.999988   -0.000842   -0.000683   -0.004833 Ang=  -0.57 deg.
 Initial guess <Sx>= 0.0000 <Sy>= 0.0000 <Sz>= 0.5000 <S**2>= 0.7645 S= 0.5072
 ExpMin= 4.38D-02 ExpMax= 5.48D+03 ExpMxC= 8.25D+02 IAcc=2 IRadAn=         4 AccDes= 0.00D+00
 Harris functional with IExCor= 1009 and IRadAn=       4 diagonalized for initial guess.
 HarFok:  IExCor= 1009 AccDes= 0.00D+00 IRadAn=         4 IDoV= 1 UseB2=F ITyADJ=14
 ICtDFT=  3500011 ScaDFX=  1.000000  1.000000  1.000000  1.000000
 FoFCou: FMM=F IPFlag=           0 FMFlag=      100000 FMFlg1=           0
         NFxFlg=           0 DoJE=T BraDBF=F KetDBF=T FulRan=T
         wScrn=  0.000000 ICntrl=       500 IOpCl=  0 I1Cent=   200000004 NGrid=           0
         NMat0=    1 NMatS0=      1 NMatT0=    0 NMatD0=    1 NMtDS0=    0 NMtDT0=    0
 Petite list used in FoFCou.
 Keep R1 and R2 ints in memory in canonical form, NReq=220618657.
 Requested convergence on RMS density matrix=1.00D-08 within 128 cycles.
 Requested convergence on MAX density matrix=1.00D-06.
 Requested convergence on             energy=1.00D-06.
 No special actions if energy rises.
 SCF Done:  E(UM062X) =  -430.658131672     A.U. after   18 cycles
            NFock= 18  Conv=0.54D-08     -V/T= 2.0081
 <Sx>= 0.0000 <Sy>= 0.0000 <Sz>= 0.5000 <S**2>= 0.7646 S= 0.5073
 <L.S>=  0.00000000000    
 Annihilation of the first spin contaminant:
 S**2 before annihilation     0.7646,   after     0.7501
 Calling FoFJK, ICntrl=      2127 FMM=F ISym2X=0 I1Cent= 0 IOpClX= 1 NMat=1 NMatS=1 NMatT=0.
 ***** Axes restored to original set *****
 -------------------------------------------------------------------
 Center     Atomic                   Forces (Hartrees/Bohr)
 Number     Number              X              Y              Z
 -------------------------------------------------------------------
      1        7          -0.007067493    0.008113777    0.000260414
      2        7           0.011571072   -0.002514529   -0.012879410
      3        6           0.001447910    0.000791534    0.004000955
      4        6          -0.000766249   -0.003762779    0.000982621
      5        7          -0.001065332   -0.001115592    0.000828393
      6        1           0.000660564   -0.000950930    0.000016059
      7        1           0.000041658   -0.000666918   -0.000284702
      8        1           0.002057594   -0.005274191   -0.001930634
      9        6          -0.013531670    0.013109939    0.012686017
     10        8           0.002800084    0.002283992   -0.002721322
     11        8           0.003851861   -0.010014303   -0.000958393
 -------------------------------------------------------------------
 Cartesian Forces:  Max     0.013531670 RMS     0.005902009

 GradGradGradGradGradGradGradGradGradGradGradGradGradGradGradGradGradGrad
 Berny optimization.
 Using GEDIIS/GDIIS optimizer.
 FormGI is forming the generalized inverse of G from B-inverse, IUseBI=4.
 Internal  Forces:  Max     0.016553582 RMS     0.004206780
 Search for a local minimum.
 Step number   3 out of a maximum of   55
 All quantities printed in internal units (Hartrees-Bohrs-Radians)
 Mixed Optimization -- RFO/linear search
 Update second derivatives using D2CorX and points    1    2    3
 DE= -3.61D-03 DEPred=-3.13D-03 R= 1.15D+00
 TightC=F SS=  1.41D+00  RLast= 2.89D-01 DXNew= 8.4853D-01 8.6714D-01
 Trust test= 1.15D+00 RLast= 2.89D-01 DXMaxT set to 8.49D-01
 ITU=  1  1  0
 Use linear search instead of GDIIS.
     Eigenvalues ---    0.00980   0.01388   0.01911   0.02067   0.02158
     Eigenvalues ---    0.02367   0.02619   0.03061   0.15977   0.16002
     Eigenvalues ---    0.19988   0.21836   0.22556   0.24284   0.25798
     Eigenvalues ---    0.31350   0.35618   0.36384   0.40231   0.42608
     Eigenvalues ---    0.43058   0.46914   0.50845   0.51618   0.58329
     Eigenvalues ---    0.61860   0.95090
 RFO step:  Lambda=-5.18815241D-03 EMin= 9.79727870D-03
 Quartic linear search produced a step of  0.27851.
 Iteration  1 RMS(Cart)=  0.08243457 RMS(Int)=  0.00557197
 Iteration  2 RMS(Cart)=  0.00748156 RMS(Int)=  0.00156335
 Iteration  3 RMS(Cart)=  0.00003890 RMS(Int)=  0.00156317
 Iteration  4 RMS(Cart)=  0.00000001 RMS(Int)=  0.00156317
 Variable       Old X    -DE/DX   Delta X   Delta X   Delta X     New X
                                 (Linear)    (Quad)   (Total)
    R1        2.69806  -0.00048  -0.00145  -0.00333  -0.00398   2.69408
    R2        2.55115  -0.00266  -0.00249  -0.01188  -0.01490   2.53624
    R3        2.65914  -0.00141   0.00025  -0.00285  -0.00158   2.65756
    R4        2.64905  -0.00655  -0.01707  -0.05688  -0.07395   2.57510
    R5        2.60012   0.00321  -0.00043   0.00715   0.00646   2.60658
    R6        2.03538  -0.00072   0.00012  -0.00195  -0.00182   2.03356
    R7        2.55118  -0.00343   0.00085  -0.00379  -0.00405   2.54714
    R8        2.04740  -0.00025  -0.00015  -0.00099  -0.00114   2.04626
    R9        1.89687   0.00055  -0.00614  -0.01995  -0.02610   1.87077
   R10        2.30432   0.00372  -0.00013   0.00365   0.00352   2.30784
   R11        2.50658   0.01655   0.01162   0.05577   0.06740   2.57397
    A1        1.85964   0.00638  -0.00751   0.00174  -0.00404   1.85560
    A2        1.89621  -0.00515   0.00897   0.00585   0.01159   1.90779
    A3        1.99124   0.00657  -0.00447   0.06257   0.05213   2.04337
    A4        2.18027   0.00085   0.00418   0.03257   0.03048   2.21076
    A5        1.81335   0.00146  -0.00621  -0.01126  -0.01606   1.79729
    A6        2.13511  -0.00161   0.00299  -0.00107   0.00081   2.13591
    A7        2.33469   0.00015   0.00334   0.01211   0.01432   2.34900
    A8        1.95811   0.00089   0.00045   0.00595   0.00616   1.96427
    A9        2.22126   0.00017  -0.00060   0.00007  -0.00044   2.22082
   A10        2.10376  -0.00107   0.00024  -0.00608  -0.00574   2.09802
   A11        1.89733  -0.00358   0.00504  -0.00208   0.00216   1.89949
   A12        2.16398  -0.00286   0.00782   0.00669   0.01414   2.17812
   A13        1.93413   0.00900  -0.00540   0.03649   0.03071   1.96484
   A14        2.18307  -0.00606  -0.00233  -0.04027  -0.04298   2.14008
   A15        1.77220   0.01108  -0.00164   0.04282   0.04118   1.81338
    D1        0.00582   0.00119  -0.01844  -0.00944  -0.02797  -0.02215
    D2       -2.51364  -0.00173  -0.03061  -0.14489  -0.17611  -2.68974
    D3       -0.01344  -0.00054   0.01180   0.01251   0.02394   0.01049
    D4        0.00384  -0.00132   0.01741   0.00269   0.02022   0.02406
    D5        3.13699  -0.00150   0.00713  -0.02021  -0.01251   3.12447
    D6        2.43937   0.00415   0.02740   0.16821   0.19495   2.63432
    D7       -0.71067   0.00397   0.01712   0.14531   0.16221  -0.54846
    D8        3.02585  -0.00058  -0.01518  -0.03190  -0.04581   2.98004
    D9       -0.18079   0.00044  -0.01391   0.01386   0.00187  -0.17893
   D10        0.62311  -0.00216  -0.03078  -0.18504  -0.21774   0.40538
   D11       -2.58353  -0.00113  -0.02952  -0.13928  -0.17006  -2.75359
   D12       -0.01256   0.00101  -0.01089   0.00518  -0.00563  -0.01820
   D13        3.11743   0.00030  -0.00615  -0.00109  -0.00721   3.11022
   D14        3.13891   0.00123   0.00109   0.03209   0.03333  -3.11095
   D15       -0.01429   0.00052   0.00583   0.02582   0.03175   0.01746
   D16        0.01691  -0.00035  -0.00050  -0.01145  -0.01185   0.00506
   D17       -3.11397   0.00029  -0.00487  -0.00570  -0.01043  -3.12439
   D18        0.16135   0.00050   0.01282   0.04033   0.05381   0.21516
   D19       -3.04615   0.00169   0.01459   0.08886   0.10278  -2.94337
         Item               Value     Threshold  Converged?
 Maximum Force            0.016554     0.000450     NO 
 RMS     Force            0.004207     0.000300     NO 
 Maximum Displacement     0.244024     0.001800     NO 
 RMS     Displacement     0.082492     0.001200     NO 
 Predicted change in Energy=-3.388668D-03
 GradGradGradGradGradGradGradGradGradGradGradGradGradGradGradGradGradGrad

                          Input orientation:                          
 ---------------------------------------------------------------------
 Center     Atomic      Atomic             Coordinates (Angstroms)
 Number     Number       Type             X           Y           Z
 ---------------------------------------------------------------------
      1          7           0       -0.741121   -1.097918    0.178924
      2          7           0       -0.004395    0.118970    0.273192
      3          6           0       -0.857099    1.201676   -0.006766
      4          6           0       -2.073712    0.589428   -0.224931
      5          7           0       -2.003159   -0.752500   -0.119801
      6          1           0       -0.519564    2.223115    0.020646
      7          1           0       -3.018545    1.069594   -0.446880
      8          1           0        0.963621   -1.770009   -0.109220
      9          6           0        1.334779    0.053743    0.029746
     10          8           0        2.069832    1.021970   -0.087316
     11          8           0        1.789724   -1.227548   -0.051520
 ---------------------------------------------------------------------
                    Distance matrix (angstroms):
                    1          2          3          4          5
     1  N    0.000000
     2  N    1.425646   0.000000
     3  C    2.309992   1.406320   0.000000
     4  C    2.187701   2.179800   1.379344   0.000000
     5  N    1.342122   2.215618   2.268267   1.347888   0.000000
     6  H    3.332176   2.180964   1.076113   2.268175   3.327922
     7  H    3.205683   3.241495   2.209750   1.082835   2.111402
     8  H    1.854960   2.156742   3.486608   3.847821   3.136435
     9  C    2.378642   1.362684   2.474554   3.459715   3.437183
    10  O    3.530759   2.290806   2.933549   4.168331   4.442866
    11  O    2.544618   2.266585   3.592882   4.272892   3.823126
                    6          7          8          9         10
     6  H    0.000000
     7  H    2.791791   0.000000
     8  H    4.261660   4.902551   0.000000
     9  C    2.853918   4.495616   1.866318   0.000000
    10  O    2.856462   5.101288   3.003220   1.221257   0.000000
    11  O    4.152721   5.343465   0.989970   1.362088   2.267172
                   11
    11  O    0.000000
 Stoichiometry    C3H3N3O2(1-,2)
 Framework group  C1[X(C3H3N3O2)]
 Deg. of freedom    27
 Full point group                 C1      NOp   1
 Largest Abelian subgroup         C1      NOp   1
 Largest concise Abelian subgroup C1      NOp   1
                         Standard orientation:                         
 ---------------------------------------------------------------------
 Center     Atomic      Atomic             Coordinates (Angstroms)
 Number     Number       Type             X           Y           Z
 ---------------------------------------------------------------------
      1          7           0       -0.684367   -1.112272    0.165751
      2          7           0        0.004727    0.129893    0.286752
      3          6           0       -0.896337    1.185541    0.059977
      4          6           0       -2.091649    0.531686   -0.155174
      5          7           0       -1.965151   -0.808980   -0.096733
      6          1           0       -0.599565    2.218442    0.115291
      7          1           0       -3.059372    0.979954   -0.342521
      8          1           0        1.039653   -1.704417   -0.177756
      9          6           0        1.340124    0.127395    0.015431
     10          8           0        2.033159    1.128128   -0.083090
     11          8           0        1.844340   -1.130902   -0.117761
 ---------------------------------------------------------------------
 Rotational constants (GHZ):           5.0990106           1.8153983           1.3566842
 Standard basis: 6-31+G(d,p) (6D, 7F)
 There are   167 symmetry adapted cartesian basis functions of A   symmetry.
 There are   167 symmetry adapted basis functions of A   symmetry.
   167 basis functions,   277 primitive gaussians,   167 cartesian basis functions
    30 alpha electrons       29 beta electrons
       nuclear repulsion energy       360.1150084322 Hartrees.
 NAtoms=   11 NActive=   11 NUniq=   11 SFac= 1.00D+00 NAtFMM=   60 NAOKFM=F Big=F
 Integral buffers will be    131072 words long.
 Raffenetti 2 integral format.
 Two-electron integral symmetry is turned on.
 One-electron integrals computed using PRISM.
 NBasis=   167 RedAO= T EigKep=  4.21D-05  NBF=   167
 NBsUse=   167 1.00D-06 EigRej= -1.00D+00 NBFU=   167
 Initial guess from the checkpoint file:  "/scratch/gongke2021/PC/Gau-17894.chk"
 B after Tr=     0.000000   -0.000000   -0.000000
         Rot=    0.999960   -0.001849    0.000489   -0.008757 Ang=  -1.03 deg.
 Initial guess <Sx>= 0.0000 <Sy>= 0.0000 <Sz>= 0.5000 <S**2>= 0.7648 S= 0.5074
 ExpMin= 4.38D-02 ExpMax= 5.48D+03 ExpMxC= 8.25D+02 IAcc=2 IRadAn=         4 AccDes= 0.00D+00
 Harris functional with IExCor= 1009 and IRadAn=       4 diagonalized for initial guess.
 HarFok:  IExCor= 1009 AccDes= 0.00D+00 IRadAn=         4 IDoV= 1 UseB2=F ITyADJ=14
 ICtDFT=  3500011 ScaDFX=  1.000000  1.000000  1.000000  1.000000
 FoFCou: FMM=F IPFlag=           0 FMFlag=      100000 FMFlg1=           0
         NFxFlg=           0 DoJE=T BraDBF=F KetDBF=T FulRan=T
         wScrn=  0.000000 ICntrl=       500 IOpCl=  0 I1Cent=   200000004 NGrid=           0
         NMat0=    1 NMatS0=      1 NMatT0=    0 NMatD0=    1 NMtDS0=    0 NMtDT0=    0
 Petite list used in FoFCou.
 Keep R1 and R2 ints in memory in canonical form, NReq=220618657.
 Requested convergence on RMS density matrix=1.00D-08 within 128 cycles.
 Requested convergence on MAX density matrix=1.00D-06.
 Requested convergence on             energy=1.00D-06.
 No special actions if energy rises.
 SCF Done:  E(UM062X) =  -430.661840987     A.U. after   18 cycles
            NFock= 18  Conv=0.68D-08     -V/T= 2.0082
 <Sx>= 0.0000 <Sy>= 0.0000 <Sz>= 0.5000 <S**2>= 0.7655 S= 0.5077
 <L.S>=  0.00000000000    
 Annihilation of the first spin contaminant:
 S**2 before annihilation     0.7655,   after     0.7501
 Calling FoFJK, ICntrl=      2127 FMM=F ISym2X=0 I1Cent= 0 IOpClX= 1 NMat=1 NMatS=1 NMatT=0.
 ***** Axes restored to original set *****
 -------------------------------------------------------------------
 Center     Atomic                   Forces (Hartrees/Bohr)
 Number     Number              X              Y              Z
 -------------------------------------------------------------------
      1        7          -0.002860258    0.005685009    0.001875574
      2        7          -0.001465126   -0.004439353   -0.010702613
      3        6           0.001306649   -0.004404644    0.004611167
      4        6          -0.003630824   -0.001505574    0.000645151
      5        7          -0.000506265    0.002011497    0.000045123
      6        1           0.000575401   -0.000721028   -0.000441415
      7        1          -0.000204914   -0.000048118   -0.000347304
      8        1           0.005124195    0.000820018    0.002081810
      9        6           0.004333323   -0.005389869    0.002396322
     10        8           0.004636669    0.005722751    0.000538862
     11        8          -0.007308850    0.002269310   -0.000702677
 -------------------------------------------------------------------
 Cartesian Forces:  Max     0.010702613 RMS     0.003662285

 GradGradGradGradGradGradGradGradGradGradGradGradGradGradGradGradGradGrad
 Berny optimization.
 Using GEDIIS/GDIIS optimizer.
 FormGI is forming the generalized inverse of G from B-inverse, IUseBI=4.
 Internal  Forces:  Max     0.007276633 RMS     0.002651662
 Search for a local minimum.
 Step number   4 out of a maximum of   55
 All quantities printed in internal units (Hartrees-Bohrs-Radians)
 Mixed Optimization -- RFO/linear search
 Update second derivatives using D2CorX and points    3    4
 DE= -3.71D-03 DEPred=-3.39D-03 R= 1.09D+00
 TightC=F SS=  1.41D+00  RLast= 4.60D-01 DXNew= 1.4270D+00 1.3801D+00
 Trust test= 1.09D+00 RLast= 4.60D-01 DXMaxT set to 1.38D+00
 ITU=  1  1  1  0
 Use linear search instead of GDIIS.
     Eigenvalues ---    0.00719   0.01354   0.01896   0.01975   0.02100
     Eigenvalues ---    0.02306   0.02371   0.03307   0.15918   0.16004
     Eigenvalues ---    0.19829   0.22552   0.23649   0.24943   0.26494
     Eigenvalues ---    0.30101   0.35620   0.36383   0.40672   0.42730
     Eigenvalues ---    0.43768   0.47447   0.50780   0.51329   0.55486
     Eigenvalues ---    0.67395   0.95372
 RFO step:  Lambda=-2.75002030D-03 EMin= 7.18750993D-03
 Quartic linear search produced a step of  0.35685.
 Iteration  1 RMS(Cart)=  0.08782715 RMS(Int)=  0.00828748
 Iteration  2 RMS(Cart)=  0.01307880 RMS(Int)=  0.00274296
 Iteration  3 RMS(Cart)=  0.00016067 RMS(Int)=  0.00274142
 Iteration  4 RMS(Cart)=  0.00000011 RMS(Int)=  0.00274142
 Variable       Old X    -DE/DX   Delta X   Delta X   Delta X     New X
                                 (Linear)    (Quad)   (Total)
    R1        2.69408  -0.00152  -0.00142  -0.00967  -0.00967   2.68441
    R2        2.53624   0.00051  -0.00532  -0.00175  -0.00791   2.52834
    R3        2.65756  -0.00231  -0.00057  -0.00823  -0.00710   2.65046
    R4        2.57510   0.00574  -0.02639  -0.00972  -0.03611   2.53899
    R5        2.60658   0.00193   0.00231   0.00464   0.00643   2.61302
    R6        2.03356  -0.00052  -0.00065  -0.00153  -0.00218   2.03138
    R7        2.54714  -0.00367  -0.00144  -0.00512  -0.00847   2.53867
    R8        2.04626   0.00023  -0.00041   0.00056   0.00016   2.04642
    R9        1.87077  -0.00485  -0.00931  -0.02301  -0.03233   1.83844
   R10        2.30784   0.00728   0.00126   0.00972   0.01098   2.31882
   R11        2.57397  -0.00372   0.02405   0.01112   0.03517   2.60914
    A1        1.85560   0.00380  -0.00144  -0.00038   0.00155   1.85715
    A2        1.90779  -0.00460   0.00413  -0.00017  -0.00112   1.90667
    A3        2.04337   0.00601   0.01860   0.04309   0.05121   2.09458
    A4        2.21076   0.00015   0.01088   0.02865   0.02832   2.23908
    A5        1.79729   0.00394  -0.00573   0.00524   0.00229   1.79958
    A6        2.13591  -0.00257   0.00029  -0.00761  -0.00901   2.12690
    A7        2.34900  -0.00137   0.00511   0.00181   0.00531   2.35431
    A8        1.96427  -0.00207   0.00220  -0.00997  -0.00806   1.95622
    A9        2.22082   0.00119  -0.00016   0.00550   0.00547   2.22629
   A10        2.09802   0.00088  -0.00205   0.00458   0.00266   2.10067
   A11        1.89949  -0.00104   0.00077   0.00539   0.00520   1.90469
   A12        2.17812  -0.00007   0.00505   0.01210   0.01624   2.19436
   A13        1.96484   0.00026   0.01096  -0.01244  -0.00237   1.96248
   A14        2.14008  -0.00021  -0.01534  -0.00105  -0.01726   2.12282
   A15        1.81338   0.00382   0.01470   0.03633   0.05103   1.86441
    D1       -0.02215   0.00109  -0.00998   0.00934  -0.00115  -0.02330
    D2       -2.68974  -0.00154  -0.06284  -0.12629  -0.18983  -2.87958
    D3        0.01049  -0.00062   0.00854  -0.01171  -0.00304   0.00745
    D4        0.02406  -0.00107   0.00722  -0.00316   0.00464   0.02870
    D5        3.12447  -0.00114  -0.00447  -0.01473  -0.01822   3.10625
    D6        2.63432   0.00369   0.06957   0.15263   0.22023   2.85455
    D7       -0.54846   0.00362   0.05789   0.14106   0.19737  -0.35109
    D8        2.98004   0.00111  -0.01635   0.05649   0.04301   3.02304
    D9       -0.17893  -0.00031   0.00067  -0.03237  -0.02908  -0.20801
   D10        0.40538  -0.00107  -0.07770  -0.09821  -0.17853   0.22685
   D11       -2.75359  -0.00248  -0.06069  -0.18707  -0.25062  -3.00421
   D12       -0.01820   0.00065  -0.00201  -0.00413  -0.00668  -0.02488
   D13        3.11022   0.00031  -0.00257   0.00562   0.00296   3.11318
   D14       -3.11095   0.00075   0.01189   0.00992   0.02128  -3.08967
   D15        0.01746   0.00041   0.01133   0.01967   0.03093   0.04839
   D16        0.00506  -0.00004  -0.00423   0.01034   0.00634   0.01140
   D17       -3.12439   0.00027  -0.00372   0.00134  -0.00255  -3.12694
   D18        0.21516  -0.00104   0.01920  -0.01385   0.00502   0.22018
   D19       -2.94337  -0.00241   0.03668  -0.10033  -0.06333  -3.00669
         Item               Value     Threshold  Converged?
 Maximum Force            0.007277     0.000450     NO 
 RMS     Force            0.002652     0.000300     NO 
 Maximum Displacement     0.290380     0.001800     NO 
 RMS     Displacement     0.093997     0.001200     NO 
 Predicted change in Energy=-2.149569D-03
 GradGradGradGradGradGradGradGradGradGradGradGradGradGradGradGradGradGrad

                          Input orientation:                          
 ---------------------------------------------------------------------
 Center     Atomic      Atomic             Coordinates (Angstroms)
 Number     Number       Type             X           Y           Z
 ---------------------------------------------------------------------
      1          7           0       -0.765683   -1.099798    0.036443
      2          7           0       -0.008546    0.099260    0.119530
      3          6           0       -0.863622    1.198423   -0.047389
      4          6           0       -2.107268    0.610070   -0.185873
      5          7           0       -2.039044   -0.730952   -0.144068
      6          1           0       -0.505286    2.210196    0.011365
      7          1           0       -3.061632    1.105873   -0.312683
[...]
    R9        1.84609  -0.00003   0.00000  -0.00006  -0.00006   1.84603
   R10        2.32544   0.00005   0.00000   0.00008   0.00008   2.32552
   R11        2.57693  -0.00003   0.00000  -0.00008  -0.00008   2.57684
    A1        1.85873  -0.00001   0.00000  -0.00000  -0.00000   1.85873
    A2        1.91604   0.00003   0.00000   0.00013   0.00013   1.91617
    A3        2.11069  -0.00002   0.00000  -0.00005  -0.00005   2.11064
    A4        2.25645  -0.00001   0.00000  -0.00008  -0.00008   2.25637
    A5        1.79993  -0.00001   0.00000  -0.00008  -0.00008   1.79986
    A6        2.12597   0.00002   0.00000   0.00017   0.00017   2.12614
    A7        2.35728  -0.00001   0.00000  -0.00010  -0.00010   2.35718
    A8        1.95087  -0.00003   0.00000  -0.00007  -0.00007   1.95080
    A9        2.22810   0.00001   0.00000   0.00004   0.00004   2.22813
   A10        2.10422   0.00001   0.00000   0.00003   0.00003   2.10425
   A11        1.89921   0.00002   0.00000   0.00001   0.00001   1.89923
   A12        2.18124  -0.00001   0.00000  -0.00008  -0.00008   2.18116
   A13        1.96399   0.00001   0.00000   0.00005   0.00005   1.96404
   A14        2.13796   0.00001   0.00000   0.00003   0.00003   2.13799
   A15        1.85397  -0.00000   0.00000   0.00001   0.00001   1.85399
    D1        0.00004  -0.00000   0.00000  -0.00004  -0.00004   0.00000
    D2        3.14100   0.00000   0.00000   0.00059   0.00059  -3.14159
    D3        0.00001  -0.00000   0.00000  -0.00001  -0.00001  -0.00000
    D4       -0.00007   0.00000   0.00000   0.00007   0.00007  -0.00000
    D5        3.14142   0.00000   0.00000   0.00018   0.00018  -3.14159
    D6       -3.14097  -0.00000   0.00000  -0.00063  -0.00063   3.14159
    D7        0.00052  -0.00000   0.00000  -0.00052  -0.00052  -0.00000
    D8       -3.14130  -0.00000   0.00000  -0.00029  -0.00029  -3.14159
    D9        0.00050  -0.00001   0.00000  -0.00050  -0.00050  -0.00000
   D10       -0.00047   0.00000   0.00000   0.00047   0.00047   0.00000
   D11        3.14133  -0.00000   0.00000   0.00026   0.00026  -3.14159
   D12        0.00008  -0.00000   0.00000  -0.00008  -0.00008   0.00000
   D13       -3.14149  -0.00000   0.00000  -0.00010  -0.00010   3.14159
   D14       -3.14138  -0.00000   0.00000  -0.00021  -0.00021   3.14159
   D15        0.00023  -0.00000   0.00000  -0.00024  -0.00024  -0.00000
   D16       -0.00006   0.00000   0.00000   0.00006   0.00006   0.00000
   D17        3.14151   0.00000   0.00000   0.00008   0.00008  -3.14159
   D18       -0.00066   0.00001   0.00000   0.00066   0.00066   0.00000
   D19        3.14114   0.00000   0.00000   0.00046   0.00046  -3.14159
         Item               Value     Threshold  Converged?
 Maximum Force            0.000083     0.000450     YES
 RMS     Force            0.000020     0.000300     YES
 Maximum Displacement     0.000690     0.001800     YES
 RMS     Displacement     0.000179     0.001200     YES
 Predicted change in Energy=-3.893720D-08
 Optimization completed.
    -- Stationary point found.
                           ----------------------------
                           !   Optimized Parameters   !
                           ! (Angstroms and Degrees)  !
 --------------------------                            --------------------------
 ! Name  Definition              Value          Derivative Info.                !
 --------------------------------------------------------------------------------
 ! R1    R(1,2)                  1.4063         -DE/DX =   -0.0001              !
 ! R2    R(1,5)                  1.3416         -DE/DX =    0.0                 !
 ! R3    R(2,3)                  1.3928         -DE/DX =    0.0                 !
 ! R4    R(2,9)                  1.3567         -DE/DX =    0.0                 !
 ! R5    R(3,4)                  1.3847         -DE/DX =    0.0                 !
 ! R6    R(3,6)                  1.0756         -DE/DX =    0.0                 !
 ! R7    R(4,5)                  1.3434         -DE/DX =    0.0                 !
 ! R8    R(4,7)                  1.0825         -DE/DX =    0.0                 !
 ! R9    R(8,11)                 0.9769         -DE/DX =    0.0                 !
 ! R10   R(9,10)                 1.2306         -DE/DX =    0.0                 !
 ! R11   R(9,11)                 1.3637         -DE/DX =    0.0                 !
 ! A1    A(2,1,5)              106.4972         -DE/DX =    0.0                 !
 ! A2    A(1,2,3)              109.781          -DE/DX =    0.0                 !
 ! A3    A(1,2,9)              120.9337         -DE/DX =    0.0                 !
 ! A4    A(3,2,9)              129.2853         -DE/DX =    0.0                 !
 ! A5    A(2,3,4)              103.1285         -DE/DX =    0.0                 !
 ! A6    A(2,3,6)              121.8091         -DE/DX =    0.0                 !
 ! A7    A(4,3,6)              135.0624         -DE/DX =    0.0                 !
 ! A8    A(3,4,5)              111.7765         -DE/DX =    0.0                 !
 ! A9    A(3,4,7)              127.6606         -DE/DX =    0.0                 !
 ! A10   A(5,4,7)              120.5629         -DE/DX =    0.0                 !
 ! A11   A(1,5,4)              108.8169         -DE/DX =    0.0                 !
 ! A12   A(2,9,10)             124.9759         -DE/DX =    0.0                 !
 ! A13   A(2,9,11)             112.5281         -DE/DX =    0.0                 !
 ! A14   A(10,9,11)            122.496          -DE/DX =    0.0                 !
 ! A15   A(8,11,9)             106.2248         -DE/DX =    0.0                 !
 ! D1    D(5,1,2,3)              0.0021         -DE/DX =    0.0                 !
 ! D2    D(5,1,2,9)           -180.0337         -DE/DX =    0.0                 !
 ! D3    D(2,1,5,4)              0.0007         -DE/DX =    0.0                 !
 ! D4    D(1,2,3,4)             -0.0038         -DE/DX =    0.0                 !
 ! D5    D(1,2,3,6)           -180.0101         -DE/DX =    0.0                 !
 ! D6    D(9,2,3,4)            180.0359         -DE/DX =    0.0                 !
 ! D7    D(9,2,3,6)              0.0296         -DE/DX =    0.0                 !
 ! D8    D(1,2,9,10)          -179.9834         -DE/DX =    0.0                 !
 ! D9    D(1,2,9,11)             0.0285         -DE/DX =    0.0                 !
 ! D10   D(3,2,9,10)            -0.027          -DE/DX =    0.0                 !
 ! D11   D(3,2,9,11)          -180.015          -DE/DX =    0.0                 !
 ! D12   D(2,3,4,5)              0.0044         -DE/DX =    0.0                 !
 ! D13   D(2,3,4,7)            180.0059         -DE/DX =    0.0                 !
 ! D14   D(6,3,4,5)            180.012          -DE/DX =    0.0                 !
 ! D15   D(6,3,4,7)              0.0134         -DE/DX =    0.0                 !
 ! D16   D(3,4,5,1)             -0.0033         -DE/DX =    0.0                 !
 ! D17   D(7,4,5,1)           -180.0047         -DE/DX =    0.0                 !
 ! D18   D(2,9,11,8)            -0.0377         -DE/DX =    0.0                 !
 ! D19   D(10,9,11,8)         -180.0261         -DE/DX =    0.0                 !
 --------------------------------------------------------------------------------
 GradGradGradGradGradGradGradGradGradGradGradGradGradGradGradGradGradGrad


 ----------------------------------------------------------------------

 Electric dipole moment (input orientation):
 (Debye = 10**-18 statcoulomb cm , SI units = C m)
                  (au)            (Debye)         (10**-30 SI)
   Tot        0.566057D+00      0.143877D+01      0.479923D+01
   x         -0.444679D+00     -0.113026D+01     -0.377015D+01
   y          0.349371D+00      0.888012D+00      0.296209D+01
   z         -0.249299D-01     -0.633656D-01     -0.211365D+00

 Dipole polarizability, Alpha (input orientation).
 (esu units = cm**3 , SI units = C**2 m**2 J**-1)
 Alpha(0;0):
               (au)            (10**-24 esu)      (10**-40 SI)
   iso        0.795194D+02      0.117836D+02      0.131110D+02
   aniso      0.497753D+02      0.737594D+01      0.820684D+01
   xx         0.106533D+03      0.157866D+02      0.175649D+02
   yx         0.265275D+01      0.393098D+00      0.437380D+00
   yy         0.822687D+02      0.121910D+02      0.135643D+02
   zx         0.268586D+01      0.398003D+00      0.442838D+00
   zy        -0.233283D+00     -0.345690D-01     -0.384632D-01
   zz         0.497567D+02      0.737318D+01      0.820377D+01

 ----------------------------------------------------------------------

 Dipole orientation:
     7         -1.65283825         -1.91202033         -0.14360458
     7          0.02347556          0.13322640          0.12022659
     6          0.42946163          0.62858424          2.67316056
     6         -1.04578797         -1.17106542          3.86971086
     7         -2.26001383         -2.65266781          2.20383543
     1          1.65701394          2.12582461          3.29201351
     1         -1.28114033         -1.45784729          5.88146342
     1         -0.97530718         -1.08804657         -3.68392922
     6          0.99424986          1.31546732         -1.93722860
     8          2.46823928          3.11282835         -1.87005563
     8          0.15691586          0.29365716         -4.14976644

 Electric dipole moment (dipole orientation):
 (Debye = 10**-18 statcoulomb cm , SI units = C m)
                  (au)            (Debye)         (10**-30 SI)
   Tot        0.566057D+00      0.143877D+01      0.479923D+01
   x          0.000000D+00      0.000000D+00      0.000000D+00
   y          0.000000D+00      0.000000D+00      0.000000D+00
   z          0.566057D+00      0.143877D+01      0.479923D+01

 Dipole polarizability, Alpha (dipole orientation).
 (esu units = cm**3 , SI units = C**2 m**2 J**-1)
 Alpha(0;0):
               (au)            (10**-24 esu)      (10**-40 SI)
   iso        0.795194D+02      0.117836D+02      0.131110D+02
   aniso      0.497753D+02      0.737594D+01      0.820684D+01
   xx         0.675167D+02      0.100049D+02      0.111320D+02
   yx         0.218190D+02      0.323324D+01      0.359747D+01
   yy         0.762358D+02      0.112970D+02      0.125696D+02
   zx        -0.791533D+01     -0.117293D+01     -0.130506D+01
   zy        -0.963734D+01     -0.142811D+01     -0.158898D+01
   zz         0.948058D+02      0.140488D+02      0.156314D+02

 ----------------------------------------------------------------------
 1\1\GINC-NODE4\Freq\UM062X\6-31+G(d,p)\C3H3N3O2(1-,2)\GONGKE2021\04-Ju
 n-2023\0\\#N Geom=AllCheck Guess=TCheck SCRF=Check GenChk UM062X/6-31+
 G(d,p) Freq\\test\\-1,2\N,-0.7634921353,-1.0991264399,-0.0592681807\N,
 -0.0098185849,0.0879746903,-0.0365558491\C,-0.8619914845,1.1884247883,
 -0.0890703732\C,-2.1191265831,0.6104363398,-0.1424480982\N,-2.05200999
 34,-0.731149696,-0.1244824912\H,-0.4871566624,2.1965990685,-0.08220200
 57\H,-3.0765408832,1.1130391272,-0.1935056813\H,1.056476861,-1.8113027
 158,0.0357793353\C,1.3448700084,0.0528599826,0.0288226742\O,2.07581573
 05,1.0425241788,0.0529720895\O,1.8333353169,-1.2197592939,0.0660333103
 \\Version=ES64L-G16RevA.03\State=2-A\HF=-430.6655967\S2=0.765982\S2-1=
 0.\S2A=0.75012\RMSD=2.465e-09\RMSF=3.408e-05\ZeroPoint=0.0716402\Therm
 al=0.0780629\Dipole=-0.4446792,0.3493707,-0.0249299\DipoleDeriv=0.1055
 076,0.6464556,0.0147472,-0.4231504,-0.4596407,-0.0191236,0.0265761,0.0
 317558,-0.3535515,-0.7226687,-0.0029961,-0.0367883,0.0426487,-0.209493
 3,0.0048753,-0.0379111,0.0027267,0.0483368,-0.2567038,-0.3873399,0.014
 3177,0.2523903,-0.3790502,0.0111668,0.0075049,-0.0192285,-0.4692525,0.
 3693355,0.3310019,0.0192306,0.1793563,0.544031,0.0012528,0.0209396,0.0
 084224,-0.1110815,-0.877905,-0.614129,-0.0227585,-0.0900693,-0.4666612
 ,-0.0019246,-0.0283638,-0.0268207,-0.2603227,0.049589,-0.0317708,-0.01
 00885,0.0111114,-0.0029328,0.0034991,-0.0105547,0.0013877,0.2684689,-0
 .1178663,0.1071514,-0.0139825,0.1116932,0.0328315,0.0066172,-0.0140405
 ,0.0064219,0.1507642,0.3487095,-0.1303766,0.0039323,-0.0487492,0.32826
 03,-0.0026715,0.0029454,-0.0064871,0.2976115,2.5451275,0.1220542,0.100
 4436,0.5189558,1.7795048,0.0099936,0.0961351,-0.0090323,0.4217384,-1.6
 630494,-0.3078967,-0.0506362,-1.2955684,-1.0196906,-0.0566089,-0.03984
 1,-0.009381,-0.5344334,-0.7800758,0.2678459,-0.0184174,0.7413816,-1.14
 71587,0.0429237,-0.02339,0.0202351,-0.4582781\Polar=106.532968,2.65275
 4,82.2686526,2.685855,-0.2332834,49.7567\Quadrupole=-9.7948443,3.38055
 34,6.4142909,-6.6920754,-0.7015941,-0.2865227\PG=C01 [X(C3H3N3O2)]\NIm
 ag=0\\0.44920432,-0.09704965,0.40112118,0.01967176,-0.00838438,0.05894
 125,-0.08712414,0.03094983,-0.00276076,0.86196263,-0.03622210,-0.18074
 224,-0.00011695,-0.09870734,0.58373065,-0.00202563,0.00304752,-0.03657
 502,0.03853655,-0.01024702,0.07942821,0.01800589,0.00235592,0.00097493
 ,-0.16518923,0.08272775,-0.00722920,0.62074764,-0.00891188,-0.05686708
 ,0.00016209,0.07612837,-0.21790458,0.00564874,0.14951052,0.78817466,0.
 00109717,0.00071091,-0.00296629,-0.00713987,0.00593824,-0.03298769,0.0
 2512446,-0.00086302,0.05928523,-0.07544797,0.05400331,-0.00503256,-0.0
 7999891,0.04532420,-0.00463241,-0.31420104,-0.09542448,-0.01170426,0.8
 2021753,0.05476401,-0.04723020,0.00332252,-0.00679978,0.01006153,-0.00
 034637,-0.07483104,-0.13140487,-0.00263229,-0.11400272,0.64288586,-0.0
 0503981,0.00328168,0.01773514,-0.00405865,0.00211930,0.00689957,-0.011
 92163,-0.00359857,-0.04652712,0.03465780,-0.01120161,0.11913025,-0.254
 89930,0.01545619,-0.00989395,-0.10127814,-0.03697381,-0.00466942,-0.02
 855903,-0.03145277,-0.00233072,-0.06748003,0.04105665,-0.00064201,0.45
 570500,0.12164684,-0.12234893,0.00657441,-0.01115886,-0.00688501,-0.00
 040128,-0.08267232,-0.07063153,-0.00283636,-0.00085202,-0.34743497,0.0
 0308727,-0.01881540,0.55878146,-0.01106588,0.00153507,-0.05056292,-0.0
 0494166,-0.00162214,0.00524605,-0.00177343,-0.00041046,0.02781772,-0.0
 0017984,0.00507476,-0.06358381,0.01794075,-0.00613790,0.08315694,-0.00
 428814,0.00317775,-0.00039319,0.01140300,0.02334287,0.00055430,-0.0951
 5402,-0.11421386,-0.00301794,0.00658345,-0.01997277,0.00074471,-0.0049
 2198,-0.00389413,-0.00045433,0.08562679,0.00065544,-0.00109923,0.00007
 834,-0.01017324,-0.01680977,-0.00036049,-0.10286851,-0.33627600,-0.001
 29548,0.00113463,0.00096348,-0.00000555,0.00295887,0.00066687,0.000193
 04,0.11138069,0.35332057,-0.00036433,0.00019964,0.00323104,0.00092098,
 0.00123171,-0.00559803,-0.00314808,-0.00184064,-0.00564996,0.00051972,
 -0.00100355,-0.00448831,-0.00053134,-0.00013317,0.00552775,0.00243677,
 0.00155114,0.00897617,0.00189455,-0.00159103,-0.00028407,-0.00429972,-
 0.00118912,-0.00046903,-0.00918105,0.01516492,-0.00057411,-0.29433387,
 0.11670577,-0.01389879,0.00261815,0.00148709,0.00042505,-0.00039142,-0
 .00055334,0.00006490,0.30372899,0.00078817,-0.00617735,0.00019664,-0.0
 0539603,-0.00318419,-0.00015766,-0.00953223,0.01212452,-0.00059293,0.1
 1128268,-0.11368153,0.00622455,0.03323936,-0.01042674,0.00162024,0.000
 69473,-0.00049345,0.00002062,-0.13108592,0.12065596,-0.00031059,0.0000
 8229,0.00822153,-0.00042076,0.00004402,0.00578589,-0.00030091,0.000581
 09,-0.00062030,-0.01384221,0.00648244,-0.02972751,0.00007609,0.0001111
 1,-0.00666518,0.00005134,-0.00003855,-0.00162614,0.01478774,-0.0073080
 2,0.02381098,0.00707328,0.00514278,0.00030054,-0.00291636,0.01024064,-
 0.00037102,-0.00274505,-0.00140232,-0.00006623,0.00382667,-0.00016856,
 0.00017938,-0.00772462,-0.00516606,-0.00016368,0.00004862,-0.00018898,
 -0.00000557,-0.00007986,-0.00062339,-0.00001450,0.30336825,0.00228946,
 -0.00173474,0.00012261,0.00146014,-0.00395775,0.00014246,-0.00044467,-
 0.00177003,-0.00001377,-0.00069800,0.00046350,-0.00003697,-0.00130827,
 0.00001467,-0.00009563,-0.00008150,0.00004831,-0.00000190,-0.00024312,
 0.00007313,-0.00000806,0.20644653,0.24668820,0.00033465,0.00025964,-0.
 00049356,-0.00026183,0.00055839,0.00231235,-0.00007943,-0.00005496,-0.
 00101029,0.00018737,-0.00001317,0.00009798,-0.00021572,-0.00028105,-0.
 00295408,-0.00000658,-0.00000740,0.00020421,-0.00001842,-0.00002677,0.
 00036568,0.01146886,0.00719516,0.01346889,-0.04502078,-0.00973729,-0.0
 0215422,-0.34671504,0.01222252,-0.01440585,-0.02421249,0.00932398,-0.0
 0131690,0.00380852,0.00373425,0.00017396,0.01839729,-0.00399913,0.0010
 1910,0.00275851,-0.00323940,0.00013975,0.00148216,0.00021574,0.0000128
 1,0.02756842,-0.03484861,0.00173539,0.81447847,-0.01657003,0.02509041,
 -0.00105433,0.01376086,-0.13255064,0.00159718,0.03321647,0.00056332,0.
 00159556,0.00525483,-0.00967638,0.00034701,-0.00726244,-0.01215956,-0.
 00023327,0.00215942,-0.00263864,0.00013806,0.00121804,0.00023795,0.000
 06716,-0.00436754,-0.03656642,0.00018710,0.19623655,0.85257160,-0.0020
 6748,-0.00073443,0.00217427,-0.01443770,0.00151709,-0.04882233,-0.0015
 6201,0.00046069,0.00087333,0.00016505,0.00027331,-0.00075829,0.0010669
 8,-0.00007762,-0.00218420,0.00007999,-0.00011967,0.00059432,0.00000333
 ,0.00002100,0.00116101,0.00139624,-0.00126277,-0.00075004,0.02977429,0
 .00165901,0.14824495,0.00266033,-0.00438093,0.00004767,-0.04702073,-0.
 05593635,-0.00237542,0.00319266,0.00797281,0.00023408,0.00002110,-0.00
 467153,0.00005967,-0.01291375,0.00064905,-0.00073183,-0.00129642,0.000
 19901,-0.00003301,-0.00065376,0.00024191,-0.00003043,-0.00483365,0.003
 27483,-0.00043069,-0.29983669,-0.26109652,-0.00876527,0.33255786,0.001
 44629,-0.02421252,0.00036974,-0.01043515,0.00030609,-0.00037227,-0.006
 01352,0.01677136,-0.00050005,-0.00035080,-0.00240076,0.00000993,-0.013
 15278,0.00714245,-0.00067541,-0.00269582,0.00240740,-0.00016199,-0.000
 56067,0.00055791,-0.00003372,0.00469143,-0.00614255,0.00032116,-0.2582
 5810,-0.44000111,-0.00816636,0.31415976,0.51040191,-0.00001715,0.00009
 603,0.00268276,-0.00287515,-0.00252717,0.01491449,0.00038277,0.0001580
 9,-0.00341301,0.00001077,-0.00019948,-0.00014469,-0.00058714,-0.000022
 69,0.00233638,-0.00000165,-0.00002381,-0.00064230,-0.00002173,0.000004
 63,-0.00007408,-0.00044194,0.00026274,0.00340038,-0.00878164,-0.008300
 38,-0.05738920,0.01112499,0.00976597,0.02887563,-0.01205805,0.00167313
 ,-0.00047615,-0.03882335,0.05517074,-0.00291288,-0.00270429,-0.0066952
 9,-0.00030567,-0.00299546,0.00418571,-0.00025462,0.00105640,0.00277494
 ,-0.00007425,-0.00036839,0.00069484,0.00000020,-0.00078416,0.00017496,
 -0.00000858,-0.32358570,-0.17584680,-0.01271361,-0.15270838,0.03745036
 ,-0.00565341,0.02812303,-0.02883064,0.00120788,0.50484834,-0.02283656,
 0.01420070,-0.00127068,0.02037121,-0.03206410,0.00144916,0.00855163,-0
 .00277977,0.00048920,-0.00567164,-0.00254567,-0.00022705,0.01625439,0.
 00328130,0.00075169,0.00010261,-0.00008954,0.00000008,0.00064738,0.000
 31379,0.00002023,-0.21460452,-0.19711631,-0.00813812,0.08834949,-0.244
 87052,0.00642976,-0.00041204,-0.06483018,0.00078606,0.10924804,0.52650
 029,-0.00021271,-0.00009397,-0.00238819,-0.00256115,0.00310454,0.00939
 650,-0.00046746,-0.00024305,0.00519838,-0.00014943,0.00024342,0.001366
 78,-0.00021351,0.00011727,0.00186536,0.00000659,0.00002842,-0.00052875
 ,-0.00001486,-0.00000230,-0.00063189,-0.01228208,-0.00630387,-0.014641
 51,-0.00619669,0.00399690,-0.04314383,0.00090023,-0.00055701,0.0094536
 3,0.02119108,-0.00029035,0.03405351\\-0.00007289,-0.00004296,0.0000002
 2,0.00005884,0.00006496,-0.00002131,-0.00007371,-0.00002001,0.00000107
 ,0.00005770,0.00000708,-0.00000099,-0.00001722,-0.00002222,0.00000697,
 0.00001613,0.00000051,0.00000351,0.,-0.00000157,-0.00000284,-0.0000223
 5,-0.00001681,0.00000610,0.00003966,0.00007929,0.00002233,-0.00002048,
 -0.00004100,-0.00000189,0.00003431,-0.00000728,-0.00001317\\\@


 ... IT IS NO ONE DREAME THAT
     CAN PLEASE THESE ALL ...

                -- BEN JONSON
 Job cpu time:       0 days  0 hours 20 minutes  1.4 seconds.
 Elapsed time:       0 days  0 hours  0 minutes 50.9 seconds.
 File lengths (MBytes):  RWF=     73 Int=      0 D2E=      0 Chk=      4 Scr=      1
 Normal termination of Gaussian 16 at Sun Jun  4 03:18:02 2023.
