 Entering Gaussian System, Link 0=/home/gau/soft/g16/g16
 Initial command:
 /home/gau/soft/g16/l1.exe "/home/gau/soft/scratch/Gau-77713.inp" -scrdir="/home/gau/soft/scratch/"
 Entering Link 1 = /home/gau/soft/g16/l1.exe PID=     77714.
  
 Copyright (c) 1988-2019, Gaussian, Inc.  All Rights Reserved.
  
 This is part of the Gaussian(R) 16 program.  It is based on
 the Gaussian(R) 09 system (copyright 2009, Gaussian, Inc.),
 the Gaussian(R) 03 system (copyright 2003, Gaussian, Inc.),
 the Gaussian(R) 98 system (copyright 1998, Gaussian, Inc.),
 the Gaussian(R) 94 system (copyright 1995, Gaussian, Inc.),
 the Gaussian 92(TM) system (copyright 1992, Gaussian, Inc.),
 the Gaussian 90(TM) system (copyright 1990, Gaussian, Inc.),
 the Gaussian 88(TM) system (copyright 1988, Gaussian, Inc.),
 the Gaussian 86(TM) system (copyright 1986, Carnegie Mellon
 University), and the Gaussian 82(TM) system (copyright 1983,
 Carnegie Mellon University). Gaussian is a federally registered
 trademark of Gaussian, Inc.
  
 This software contains proprietary and confidential information,
 including trade secrets, belonging to Gaussian, Inc.
  
 This software is provided under written license and may be
 used, copied, transmitted, or stored only in accord with that
 written license.
  
 The following legend is applicable only to US Government
 contracts under FAR:
  
                    RESTRICTED RIGHTS LEGEND
  
 Use, reproduction and disclosure by the US Government is
 subject to restrictions as set forth in subparagraphs (a)
 and (c) of the Commercial Computer Software - Restricted
 Rights clause in FAR 52.227-19.
  
 Gaussian, Inc.
 340 Quinnipiac St., Bldg. 40, Wallingford CT 06492
  
  
 ---------------------------------------------------------------
 Warning -- This program may not be used in any manner that
 competes with the business of Gaussian, Inc. or will provide
 assistance to any competitor of Gaussian, Inc.  The licensee
 of this program is prohibited from giving any competitor of
 Gaussian, Inc. access to this program.  By using this program,
 the user acknowledges that Gaussian, Inc. is engaged in the
 business of creating and licensing software in the field of
 computational chemistry and represents and warrants to the
 licensee that it is not a competitor of Gaussian, Inc. and that
 it will not use this program in any manner prohibited above.
 ---------------------------------------------------------------
  

 Cite this work as:
 Gaussian 16, Revision C.01,
 M. J. Frisch, G. W. Trucks, H. B. Schlegel, G. E. Scuseria, 
 M. A. Robb, J. R. Cheeseman, G. Scalmani, V. Barone, 
 G. A. Petersson, H. Nakatsuji, X. Li, M. Caricato, A. V. Marenich, 
 J. Bloino, B. G. Janesko, R. Gomperts, B. Mennucci, H. P. Hratchian, 
 J. V. Ortiz, A. F. Izmaylov, J. L. Sonnenberg, D. Williams-Young, 
 F. Ding, F. Lipparini, F. Egidi, J. Goings, B. Peng, A. Petrone, 
 T. Henderson, D. Ranasinghe, V. G. Zakrzewski, J. Gao, N. Rega, 
 G. Zheng, W. Liang, M. Hada, M. Ehara, K. Toyota, R. Fukuda, 
 J. Hasegawa, M. Ishida, T. Nakajima, Y. Honda, O. Kitao, H. Nakai, 
 T. Vreven, K. Throssell, J. A. Montgomery, Jr., J. E. Peralta, 
 F. Ogliaro, M. J. Bearpark, J. J. Heyd, E. N. Brothers, K. N. Kudin, 
 V. N. Staroverov, T. A. Keith, R. Kobayashi, J. Normand, 
 K. Raghavachari, A. P. Rendell, J. C. Burant, S. S. Iyengar, 
 J. Tomasi, M. Cossi, J. M. Millam, M. Klene, C. Adamo, R. Cammi, 
 J. W. Ochterski, R. L. Martin, K. Morokuma, O. Farkas, 
 J. B. Foresman, and D. J. Fox, Gaussian, Inc., Wallingford CT, 2019.
 
 ******************************************
 Gaussian 16:  ES64L-G16RevC.01  3-Jul-2019
                 7-Dec-2023 
 ******************************************
 %mem=10GB
 %nprocshared=48
 Will use up to   48 processors via shared memory.
 ----------------------------
 # opt freq 6-31+g(d,p) m062x
 ----------------------------
 1/18=20,19=15,26=3,38=1/1,3;
 2/9=110,12=2,17=6,18=5,40=1/2;
 3/5=1,6=6,7=111,11=2,25=1,30=1,71=1,74=-55/1,2,3;
 4//1;
 5/5=2,38=5/2;
 6/7=2,8=2,9=2,10=2,28=1/1;
 7//1,2,3,16;
 1/18=20,19=15,26=3/3(2);
 2/9=110/2;
 99//99;
 2/9=110/2;
 3/5=1,6=6,7=111,11=2,25=1,30=1,71=1,74=-55/1,2,3;
 4/5=5,16=3,69=1/1;
 5/5=2,38=5/2;
 7//1,2,3,16;
 1/18=20,19=15,26=3/3(-5);
 2/9=110/2;
 6/7=2,8=2,9=2,10=2,19=2,28=1/1;
 99/9=1/99;
 ----
 test
 ----
 Symbolic Z-matrix:
 Charge =  0 Multiplicity = 1
 N                     0.24198   1.03253   0.04756 
 N                     0.4856   -0.2898   -0.00097 
 C                     1.82154  -0.52767  -0.0399 
 C                     2.37926   0.7225   -0.01518 
 N                     1.37413   1.64613   0.03877 
 H                     2.2124   -1.53134  -0.07907 
 H                     3.41557   1.0186   -0.03244 
 H                    -1.60323   1.78214  -0.17435 
 C                    -0.54421  -1.30864   0.00854 
 O                    -0.20007  -2.45691   0.01119 
 O                    -1.77393  -0.87773   0.02009 
 H                    -1.95093   0.10986  -0.0258 
 O                    -2.53407   1.56651  -0.01342 
 H                    -3.07536   2.32115  -0.26647 
 
 Add virtual bond connecting atoms H8         and H12        Dist= 3.24D+00.
 Add virtual bond connecting atoms O13        and H12        Dist= 2.97D+00.

 GradGradGradGradGradGradGradGradGradGradGradGradGradGradGradGradGradGrad
 Berny optimization.
 Initialization pass.
                           ----------------------------
                           !    Initial Parameters    !
                           ! (Angstroms and Degrees)  !
 --------------------------                            --------------------------
 ! Name  Definition              Value          Derivative Info.                !
 --------------------------------------------------------------------------------
 ! R1    R(1,2)                  1.3455         estimate D2E/DX2                !
 ! R2    R(1,5)                  1.2878         estimate D2E/DX2                !
 ! R3    R(2,3)                  1.3575         estimate D2E/DX2                !
 ! R4    R(2,9)                  1.4487         estimate D2E/DX2                !
 ! R5    R(3,4)                  1.3692         estimate D2E/DX2                !
 ! R6    R(3,6)                  1.0778         estimate D2E/DX2                !
 ! R7    R(4,5)                  1.3661         estimate D2E/DX2                !
 ! R8    R(4,7)                  1.0779         estimate D2E/DX2                !
 ! R9    R(8,12)                 1.7145         estimate D2E/DX2                !
 ! R10   R(8,13)                 0.9689         estimate D2E/DX2                !
 ! R11   R(9,10)                 1.1987         estimate D2E/DX2                !
 ! R12   R(9,11)                 1.3031         estimate D2E/DX2                !
 ! R13   R(11,12)                1.0044         estimate D2E/DX2                !
 ! R14   R(12,13)                1.5691         estimate D2E/DX2                !
 ! R15   R(13,14)                0.9626         estimate D2E/DX2                !
 ! A1    A(2,1,5)              107.9903         estimate D2E/DX2                !
 ! A2    A(1,2,3)              110.5753         estimate D2E/DX2                !
 ! A3    A(1,2,9)              124.2112         estimate D2E/DX2                !
 ! A4    A(3,2,9)              125.207          estimate D2E/DX2                !
 ! A5    A(2,3,4)              103.9079         estimate D2E/DX2                !
 ! A6    A(2,3,6)              121.406          estimate D2E/DX2                !
 ! A7    A(4,3,6)              134.6861         estimate D2E/DX2                !
 ! A8    A(3,4,5)              108.5628         estimate D2E/DX2                !
 ! A9    A(3,4,7)              129.9527         estimate D2E/DX2                !
 ! A10   A(5,4,7)              121.4845         estimate D2E/DX2                !
 ! A11   A(1,5,4)              108.9636         estimate D2E/DX2                !
 ! A12   A(2,9,10)             118.0094         estimate D2E/DX2                !
 ! A13   A(2,9,11)             115.9982         estimate D2E/DX2                !
 ! A14   A(10,9,11)            125.9915         estimate D2E/DX2                !
 ! A15   A(9,11,12)            119.4097         estimate D2E/DX2                !
 ! A16   A(8,12,11)            158.0181         estimate D2E/DX2                !
 ! A17   A(8,13,14)            108.7901         estimate D2E/DX2                !
 ! A18   A(12,13,14)           159.1851         estimate D2E/DX2                !
 ! A19   L(11,12,13,1,-1)      191.5414         estimate D2E/DX2                !
 ! A20   L(11,12,13,1,-2)      183.4997         estimate D2E/DX2                !
 ! D1    D(5,1,2,3)              0.1034         estimate D2E/DX2                !
 ! D2    D(5,1,2,9)            179.2214         estimate D2E/DX2                !
 ! D3    D(2,1,5,4)             -0.042          estimate D2E/DX2                !
 ! D4    D(1,2,3,4)             -0.1183         estimate D2E/DX2                !
 ! D5    D(1,2,3,6)            179.8457         estimate D2E/DX2                !
 ! D6    D(9,2,3,4)           -179.2256         estimate D2E/DX2                !
 ! D7    D(9,2,3,6)              0.7384         estimate D2E/DX2                !
 ! D8    D(1,2,9,10)          -177.3007         estimate D2E/DX2                !
 ! D9    D(1,2,9,11)             2.3748         estimate D2E/DX2                !
 ! D10   D(3,2,9,10)             1.6887         estimate D2E/DX2                !
 ! D11   D(3,2,9,11)          -178.6359         estimate D2E/DX2                !
 ! D12   D(2,3,4,5)              0.0906         estimate D2E/DX2                !
 ! D13   D(2,3,4,7)           -179.8851         estimate D2E/DX2                !
 ! D14   D(6,3,4,5)           -179.8662         estimate D2E/DX2                !
 ! D15   D(6,3,4,7)              0.1581         estimate D2E/DX2                !
 ! D16   D(3,4,5,1)             -0.0324         estimate D2E/DX2                !
 ! D17   D(7,4,5,1)            179.9458         estimate D2E/DX2                !
 ! D18   D(2,9,11,12)            3.1225         estimate D2E/DX2                !
 ! D19   D(10,9,11,12)        -177.2317         estimate D2E/DX2                !
 ! D20   D(9,11,12,8)            4.7385         estimate D2E/DX2                !
 ! D21   D(13,11,12,8)         172.1984         estimate D2E/DX2                !
 ! D22   D(9,11,13,14)         139.2946         estimate D2E/DX2                !
 ! D23   D(14,12,13,8)        -120.8788         estimate D2E/DX2                !
 --------------------------------------------------------------------------------
 Trust Radius=3.00D-01 FncErr=1.00D-07 GrdErr=1.00D-06 EigMax=2.50D+02 EigMin=1.00D-04
 Number of steps in this run=     68 maximum allowed number of steps=    100.
 GradGradGradGradGradGradGradGradGradGradGradGradGradGradGradGradGradGrad

                          Input orientation:                          
 ---------------------------------------------------------------------
 Center     Atomic      Atomic             Coordinates (Angstroms)
 Number     Number       Type             X           Y           Z
 ---------------------------------------------------------------------
      1          7           0        0.241977    1.032531    0.047563
      2          7           0        0.485602   -0.289802   -0.000973
      3          6           0        1.821538   -0.527667   -0.039900
      4          6           0        2.379259    0.722504   -0.015176
      5          7           0        1.374125    1.646131    0.038773
      6          1           0        2.212402   -1.531336   -0.079073
      7          1           0        3.415568    1.018602   -0.032438
      8          1           0       -1.603232    1.782139   -0.174351
      9          6           0       -0.544214   -1.308638    0.008540
     10          8           0       -0.200072   -2.456908    0.011185
     11          8           0       -1.773934   -0.877734    0.020089
     12          1           0       -1.950927    0.109858   -0.025803
     13          8           0       -2.534066    1.566511   -0.013416
     14          1           0       -3.075364    2.321150   -0.266466
 ---------------------------------------------------------------------
                    Distance matrix (angstroms):
                    1          2          3          4          5
     1  N    0.000000
     2  N    1.345464   0.000000
     3  C    2.221909   1.357505   0.000000
     4  C    2.160562   2.147301   1.369157   0.000000
     5  N    1.287766   2.130467   2.220758   1.366123   0.000000
     6  H    3.236051   2.128226   1.077804   2.260911   3.288296
     7  H    3.174630   3.208989   2.220796   1.077919   2.136903
     8  H    2.003985   2.947241   4.133078   4.124124   2.988072
     9  C    2.469958   1.448668   2.491795   3.559887   3.523010
    10  O    3.517515   2.273026   2.794904   4.094179   4.394745
    11  O    2.777366   2.334868   3.612972   4.450957   4.034913
    12  H    2.380239   2.469214   3.825981   4.373324   3.663369
    13  O    2.827591   3.544637   4.832967   4.985290   3.909351
    14  H    3.572661   4.423577   5.669809   5.689616   4.510740
                    6          7          8          9         10
     6  H    0.000000
     7  H    2.819923   0.000000
     8  H    5.054430   5.078532   0.000000
     9  C    2.766984   4.593212   3.272289   0.000000
    10  O    2.585510   5.015369   4.469094   1.198735   0.000000
    11  O    4.040780   5.525376   2.672428   1.303082   2.229554
    12  H    4.475451   5.442897   1.714492   1.998037   3.107274
    13  O    5.668327   5.974840   0.968942   3.496638   4.651455
    14  H    6.545016   6.624470   1.570411   4.433701   5.583389
                   11         12         13         14
    11  O    0.000000
    12  H    1.004376   0.000000
    13  O    2.559933   1.569090   0.000000
    14  H    3.465356   2.492406   0.962558   0.000000
 Stoichiometry    C3H5N3O3
 Framework group  C1[X(C3H5N3O3)]
 Deg. of freedom    36
 Full point group                 C1      NOp   1
 Largest Abelian subgroup         C1      NOp   1
 Largest concise Abelian subgroup C1      NOp   1
                         Standard orientation:                         
 ---------------------------------------------------------------------
 Center     Atomic      Atomic             Coordinates (Angstroms)
 Number     Number       Type             X           Y           Z
 ---------------------------------------------------------------------
      1          7           0        0.246773   -1.038609   -0.053220
      2          7           0        0.492101    0.283138    0.002198
      3          6           0        1.828233    0.518915    0.046677
      4          6           0        2.384268   -0.731924    0.018077
      5          7           0        1.378017   -1.653858   -0.043467
      6          1           0        2.220381    1.521835    0.091761
      7          1           0        3.420095   -1.029577    0.037440
      8          1           0       -1.600225   -1.786593    0.159089
      9          6           0       -0.536238    1.303476   -0.006077
     10          8           0       -0.190468    2.451254   -0.002302
     11          8           0       -1.766520    0.874385   -0.023709
     12          1           0       -1.945060   -0.113153    0.017058
     13          8           0       -2.530210   -1.568901   -0.003963
     14          1           0       -3.073417   -2.323918    0.243812
 ---------------------------------------------------------------------
 Rotational constants (GHZ):           2.0774479           1.5335449           0.8828691
 Standard basis: 6-31+G(d,p) (6D, 7F)
 There are   196 symmetry adapted cartesian basis functions of A   symmetry.
 There are   196 symmetry adapted basis functions of A   symmetry.
   196 basis functions,   323 primitive gaussians,   196 cartesian basis functions
    34 alpha electrons       34 beta electrons
       nuclear repulsion energy       455.9475443667 Hartrees.
 NAtoms=   14 NActive=   14 NUniq=   14 SFac= 1.00D+00 NAtFMM=   60 NAOKFM=F Big=F
 Integral buffers will be    131072 words long.
 Raffenetti 2 integral format.
 Two-electron integral symmetry is turned on.
 One-electron integrals computed using PRISM.
 NBasis=   196 RedAO= T EigKep=  1.95D-05  NBF=   196
 NBsUse=   196 1.00D-06 EigRej= -1.00D+00 NBFU=   196
 ExpMin= 4.38D-02 ExpMax= 5.48D+03 ExpMxC= 8.25D+02 IAcc=3 IRadAn=         5 AccDes= 0.00D+00
 Harris functional with IExCor= 1009 and IRadAn=       5 diagonalized for initial guess.
 HarFok:  IExCor= 1009 AccDes= 0.00D+00 IRadAn=         5 IDoV= 1 UseB2=F ITyADJ=14
 ICtDFT=  3500011 ScaDFX=  1.000000  1.000000  1.000000  1.000000
 FoFCou: FMM=F IPFlag=           0 FMFlag=      100000 FMFlg1=           0
         NFxFlg=           0 DoJE=T BraDBF=F KetDBF=T FulRan=T
         wScrn=  0.000000 ICntrl=       500 IOpCl=  0 I1Cent=   200000004 NGrid=           0
         NMat0=    1 NMatS0=      1 NMatT0=    0 NMatD0=    1 NMtDS0=    0 NMtDT0=    0
 Petite list used in FoFCou.
 Requested convergence on RMS density matrix=1.00D-08 within 128 cycles.
 Requested convergence on MAX density matrix=1.00D-06.
 Requested convergence on             energy=1.00D-06.
 No special actions if energy rises.
 SCF Done:  E(RM062X) =  -507.060770526     A.U. after   14 cycles
            NFock= 14  Conv=0.58D-08     -V/T= 2.0081

 **********************************************************************

            Population analysis using the SCF Density.

 **********************************************************************

 Orbital symmetries:
       Occupied  (A) (A) (A) (A) (A) (A) (A) (A) (A) (A) (A) (A)
                 (A) (A) (A) (A) (A) (A) (A) (A) (A) (A) (A) (A)
                 (A) (A) (A) (A) (A) (A) (A) (A) (A) (A)
       Virtual   (A) (A) (A) (A) (A) (A) (A) (A) (A) (A) (A) (A)
                 (A) (A) (A) (A) (A) (A) (A) (A) (A) (A) (A) (A)
                 (A) (A) (A) (A) (A) (A) (A) (A) (A) (A) (A) (A)
                 (A) (A) (A) (A) (A) (A) (A) (A) (A) (A) (A) (A)
                 (A) (A) (A) (A) (A) (A) (A) (A) (A) (A) (A) (A)
                 (A) (A) (A) (A) (A) (A) (A) (A) (A) (A) (A) (A)
                 (A) (A) (A) (A) (A) (A) (A) (A) (A) (A) (A) (A)
                 (A) (A) (A) (A) (A) (A) (A) (A) (A) (A) (A) (A)
                 (A) (A) (A) (A) (A) (A) (A) (A) (A) (A) (A) (A)
                 (A) (A) (A) (A) (A) (A) (A) (A) (A) (A) (A) (A)
                 (A) (A) (A) (A) (A) (A) (A) (A) (A) (A) (A) (A)
                 (A) (A) (A) (A) (A) (A) (A) (A) (A) (A) (A) (A)
                 (A) (A) (A) (A) (A) (A) (A) (A) (A) (A) (A) (A)
                 (A) (A) (A) (A) (A) (A)
 The electronic state is 1-A.
 Alpha  occ. eigenvalues --  -19.70620 -19.68129 -19.66142 -14.89271 -14.86913
 Alpha  occ. eigenvalues --  -14.82629 -10.75174 -10.62871 -10.60507  -1.28395
 Alpha  occ. eigenvalues --   -1.24353  -1.18219  -1.16560  -1.05151  -0.94154
 Alpha  occ. eigenvalues --   -0.80410  -0.75012  -0.73655  -0.68901  -0.64719
 Alpha  occ. eigenvalues --   -0.61118  -0.57867  -0.56583  -0.54649  -0.54277
 Alpha  occ. eigenvalues --   -0.51689  -0.47593  -0.45613  -0.43763  -0.41767
 Alpha  occ. eigenvalues --   -0.40669  -0.39047  -0.37283  -0.35468
 Alpha virt. eigenvalues --   -0.02953   0.01105   0.02646   0.03597   0.03861
 Alpha virt. eigenvalues --    0.04838   0.04938   0.06026   0.07102   0.08623
 Alpha virt. eigenvalues --    0.08784   0.09801   0.10824   0.11993   0.12282
 Alpha virt. eigenvalues --    0.13936   0.15406   0.15685   0.18183   0.19342
 Alpha virt. eigenvalues --    0.19477   0.20158   0.20995   0.21726   0.22232
 Alpha virt. eigenvalues --    0.23152   0.24136   0.24280   0.24739   0.25708
 Alpha virt. eigenvalues --    0.26251   0.26779   0.27118   0.28952   0.29481
 Alpha virt. eigenvalues --    0.29888   0.31681   0.32032   0.32533   0.34347
 Alpha virt. eigenvalues --    0.35240   0.36455   0.37604   0.38335   0.40265
 Alpha virt. eigenvalues --    0.42486   0.43121   0.47309   0.48879   0.49502
 Alpha virt. eigenvalues --    0.50668   0.62885   0.70184   0.70618   0.74091
 Alpha virt. eigenvalues --    0.77760   0.80654   0.83372   0.86904   0.88740
 Alpha virt. eigenvalues --    0.92281   0.93377   0.94421   0.97024   0.98239
 Alpha virt. eigenvalues --    0.99778   1.00877   1.03545   1.05552   1.07530
 Alpha virt. eigenvalues --    1.09395   1.14213   1.16558   1.17948   1.18637
 Alpha virt. eigenvalues --    1.21618   1.22996   1.23818   1.24746   1.28169
 Alpha virt. eigenvalues --    1.31286   1.31800   1.32722   1.34682   1.35545
 Alpha virt. eigenvalues --    1.37486   1.38866   1.41097   1.42282   1.44260
 Alpha virt. eigenvalues --    1.44937   1.49050   1.51236   1.54225   1.54618
 Alpha virt. eigenvalues --    1.55547   1.59922   1.60465   1.65350   1.66270
 Alpha virt. eigenvalues --    1.69575   1.74712   1.79274   1.81201   1.84501
 Alpha virt. eigenvalues --    1.89489   1.90931   1.92397   1.96471   1.97492
 Alpha virt. eigenvalues --    2.02364   2.05083   2.08559   2.12738   2.17638
 Alpha virt. eigenvalues --    2.21112   2.22098   2.23317   2.28349   2.29459
 Alpha virt. eigenvalues --    2.34213   2.37301   2.39599   2.42071   2.43167
 Alpha virt. eigenvalues --    2.51796   2.52328   2.53113   2.55924   2.57911
 Alpha virt. eigenvalues --    2.59483   2.63118   2.67241   2.71147   2.72128
 Alpha virt. eigenvalues --    2.73814   2.76091   2.78172   2.82888   2.88304
 Alpha virt. eigenvalues --    2.93912   2.97197   2.99912   3.07456   3.09473
 Alpha virt. eigenvalues --    3.17188   3.21267   3.30333   3.34534   3.44042
 Alpha virt. eigenvalues --    3.59523   3.73279   3.83194   4.00719   4.19562
 Alpha virt. eigenvalues --    4.23730   4.31971   4.40330   4.47519   4.52358
 Alpha virt. eigenvalues --    4.71590   4.82416
          Condensed to atoms (all electrons):
               1          2          3          4          5          6
     1  N    8.045965  -0.296130  -0.560793   0.599209  -0.657781  -0.003240
     2  N   -0.296130   7.396047   0.396428  -0.269947   0.156527  -0.040832
     3  C   -0.560793   0.396428   5.967481  -0.318041   0.278855   0.422583
     4  C    0.599209  -0.269947  -0.318041   5.987559  -0.109647  -0.033997
     5  N   -0.657781   0.156527   0.278855  -0.109647   7.551452  -0.002146
     6  H   -0.003240  -0.040832   0.422583  -0.033997  -0.002146   0.429238
     7  H    0.023289  -0.022041  -0.003028   0.379582  -0.052232   0.000554
     8  H    0.030066   0.016930   0.002088   0.001679  -0.028575  -0.000001
     9  C   -0.053141   0.062700  -0.104515  -0.054841   0.102327  -0.004946
    10  O    0.006075  -0.107061  -0.080797   0.060080  -0.004709  -0.001151
    11  O   -0.028804  -0.094469   0.023129   0.023026  -0.034735  -0.000536
    12  H   -0.000255  -0.000771   0.008804  -0.013723   0.031303   0.000003
    13  O    0.034760  -0.022424  -0.007925   0.004577  -0.030335   0.000020
    14  H   -0.001423   0.001246   0.000207  -0.000017  -0.000068   0.000000
               7          8          9         10         11         12
     1  N    0.023289   0.030066  -0.053141   0.006075  -0.028804  -0.000255
     2  N   -0.022041   0.016930   0.062700  -0.107061  -0.094469  -0.000771
     3  C   -0.003028   0.002088  -0.104515  -0.080797   0.023129   0.008804
     4  C    0.379582   0.001679  -0.054841   0.060080   0.023026  -0.013723
     5  N   -0.052232  -0.028575   0.102327  -0.004709  -0.034735   0.031303
     6  H    0.000554  -0.000001  -0.004946  -0.001151  -0.000536   0.000003
     7  H    0.483833   0.000000  -0.000895  -0.000219   0.000000  -0.000000
     8  H    0.000000   0.314467  -0.002339   0.000133   0.000217  -0.002477
     9  C   -0.000895  -0.002339   4.567159   0.526590   0.201443   0.003098
    10  O   -0.000219   0.000133   0.526590   8.111180  -0.087277   0.006608
    11  O    0.000000   0.000217   0.201443  -0.087277   8.354913   0.178048
    12  H   -0.000000  -0.002477   0.003098   0.006608   0.178048   0.284397
    13  O    0.000009   0.264007   0.001003  -0.001615  -0.025451   0.018465
    14  H   -0.000000  -0.013227  -0.000455   0.000020   0.003042  -0.001069
              13         14
     1  N    0.034760  -0.001423
     2  N   -0.022424   0.001246
     3  C   -0.007925   0.000207
     4  C    0.004577  -0.000017
     5  N   -0.030335  -0.000068
     6  H    0.000020   0.000000
     7  H    0.000009  -0.000000
     8  H    0.264007  -0.013227
     9  C    0.001003  -0.000455
    10  O   -0.001615   0.000020
    11  O   -0.025451   0.003042
    12  H    0.018465  -0.001069
    13  O    8.251280   0.283451
    14  H    0.283451   0.310861
 Mulliken charges:
               1
     1  N   -0.137795
     2  N   -0.176202
     3  C   -0.024478
     4  C   -0.255499
     5  N   -0.200237
     6  H    0.234450
     7  H    0.191148
     8  H    0.417030
     9  C    0.756812
    10  O   -0.427857
    11  O   -0.512547
    12  H    0.487568
    13  O   -0.769824
    14  H    0.417433
 Sum of Mulliken charges =  -0.00000
 Mulliken charges with hydrogens summed into heavy atoms:
               1
     1  N   -0.137795
     2  N   -0.176202
     3  C    0.209972
     4  C   -0.064352
     5  N   -0.200237
     9  C    0.756812
    10  O   -0.427857
    11  O   -0.024979
    13  O    0.064639
 Electronic spatial extent (au):  <R**2>=           1215.8762
 Charge=             -0.0000 electrons
 Dipole moment (field-independent basis, Debye):
    X=              1.3914    Y=             -2.5261    Z=              0.9657  Tot=              3.0413
 Quadrupole moment (field-independent basis, Debye-Ang):
   XX=            -42.8232   YY=            -57.9708   ZZ=            -52.9114
   XY=             11.1732   XZ=             -1.8905   YZ=             -1.9390
 Traceless Quadrupole moment (field-independent basis, Debye-Ang):
   XX=              8.4119   YY=             -6.7356   ZZ=             -1.6763
   XY=             11.1732   XZ=             -1.8905   YZ=             -1.9390
 Octapole moment (field-independent basis, Debye-Ang**2):
  XXX=             -0.8173  YYY=            -29.3936  ZZZ=              0.1626  XYY=            -23.9660
  XXY=            -21.6617  XXZ=              6.5703  XZZ=             -7.1332  YZZ=              2.5258
  YYZ=              4.9574  XYZ=              4.9765
 Hexadecapole moment (field-independent basis, Debye-Ang**3):
 XXXX=           -703.6161 YYYY=           -654.2885 ZZZZ=            -51.2687 XXXY=             81.9267
 XXXZ=            -15.2916 YYYX=            104.7952 YYYZ=            -11.3707 ZZZX=             -1.5590
 ZZZY=             -1.3799 XXYY=           -176.4746 XXZZ=           -161.7907 YYZZ=           -111.7069
 XXYZ=            -13.7911 YYXZ=            -10.8775 ZZXY=              3.3340
 N-N= 4.559475443667D+02 E-N=-2.097675082014D+03  KE= 5.029721084081D+02
 Calling FoFJK, ICntrl=      2127 FMM=F ISym2X=0 I1Cent= 0 IOpClX= 0 NMat=1 NMatS=1 NMatT=0.
 ***** Axes restored to original set *****
 -------------------------------------------------------------------
 Center     Atomic                   Forces (Hartrees/Bohr)
 Number     Number              X              Y              Z
 -------------------------------------------------------------------
      1        7          -0.000839297   -0.001666210   -0.002066014
      2        7           0.000688256   -0.000732781   -0.000210729
      3        6          -0.000810516    0.000020797    0.000244086
      4        6          -0.000878916    0.000627679    0.000306022
      5        7          -0.000500071    0.000911495   -0.000498615
      6        1          -0.000044268   -0.000061061    0.000160827
      7        1          -0.000088901    0.000106220    0.000117213
      8        1           0.004137578    0.011199618    0.002771663
      9        6           0.000684807   -0.001465029    0.000638090
     10        8          -0.000363741    0.000893699   -0.000250621
     11        8           0.000574063    0.005125543   -0.001272705
     12        1          -0.004641477   -0.015917051    0.001869411
     13        8           0.003256092    0.004851550   -0.000735561
     14        1          -0.001173609   -0.003894469   -0.001073066
 -------------------------------------------------------------------
 Cartesian Forces:  Max     0.015917051 RMS     0.003536921

 GradGradGradGradGradGradGradGradGradGradGradGradGradGradGradGradGradGrad
 Berny optimization.
 FormGI is forming the generalized inverse of G from B-inverse, IUseBI=4.
 Internal  Forces:  Max     0.010249213 RMS     0.003000695
 Search for a local minimum.
 Step number   1 out of a maximum of   68
 All quantities printed in internal units (Hartrees-Bohrs-Radians)
 Mixed Optimization -- RFO/linear search
 Second derivative matrix not updated -- first step.
 ITU=  0
     Eigenvalues ---    0.00426   0.00801   0.00964   0.01046   0.01720
     Eigenvalues ---    0.01762   0.02220   0.02331   0.02394   0.02433
     Eigenvalues ---    0.02912   0.05304   0.07591   0.10912   0.15349
     Eigenvalues ---    0.15998   0.16000   0.16000   0.22738   0.24718
     Eigenvalues ---    0.24994   0.24998   0.25000   0.36247   0.36261
     Eigenvalues ---    0.38420   0.46181   0.46903   0.48088   0.49984
     Eigenvalues ---    0.52538   0.54597   0.54927   0.66344   0.67589
     Eigenvalues ---    1.05461
 RFO step:  Lambda=-7.85349934D-03 EMin= 4.26165660D-03
 Linear search not attempted -- first point.
 Iteration  1 RMS(Cart)=  0.14498906 RMS(Int)=  0.02635047
 Iteration  2 RMS(Cart)=  0.04299195 RMS(Int)=  0.00494077
 Iteration  3 RMS(Cart)=  0.00188085 RMS(Int)=  0.00439447
 Iteration  4 RMS(Cart)=  0.00008516 RMS(Int)=  0.00439441
 Iteration  5 RMS(Cart)=  0.00000085 RMS(Int)=  0.00439441
 Variable       Old X    -DE/DX   Delta X   Delta X   Delta X     New X
                                 (Linear)    (Quad)   (Total)
    R1        2.54256  -0.00104   0.00000  -0.00207  -0.00197   2.54059
    R2        2.43353  -0.00081   0.00000  -0.00121  -0.00122   2.43231
    R3        2.56531  -0.00145   0.00000  -0.00272  -0.00272   2.56260
    R4        2.73759  -0.00230   0.00000  -0.00586  -0.00586   2.73172
    R5        2.58733   0.00106   0.00000   0.00228   0.00228   2.58961
    R6        2.03675   0.00003   0.00000   0.00009   0.00009   2.03685
    R7        2.58160  -0.00005   0.00000   0.00008   0.00008   2.58167
    R8        2.03697  -0.00006   0.00000  -0.00016  -0.00016   2.03681
    R9        3.23992   0.01025   0.00000   0.21227   0.21021   3.45013
   R10        1.83103   0.00129   0.00000   0.00023   0.00418   1.83522
   R11        2.26528  -0.00096   0.00000  -0.00090  -0.00090   2.26438
   R12        2.46247  -0.00157   0.00000  -0.00234  -0.00243   2.46004
   R13        1.89800  -0.00396   0.00000  -0.00850  -0.00881   1.88919
   R14        2.96515   0.00059   0.00000   0.01181   0.01195   2.97710
   R15        1.81897  -0.00211   0.00000  -0.00379  -0.00379   1.81518
    A1        1.88479   0.00083   0.00000   0.00226   0.00226   1.88704
    A2        1.92990   0.00067   0.00000   0.00226   0.00219   1.93209
    A3        2.16789  -0.00544   0.00000  -0.02072  -0.02095   2.14694
    A4        2.18527   0.00477   0.00000   0.01887   0.01880   2.20407
    A5        1.81353  -0.00098   0.00000  -0.00384  -0.00385   1.80969
    A6        2.11893   0.00042   0.00000   0.00153   0.00153   2.12046
    A7        2.35072   0.00055   0.00000   0.00231   0.00230   2.35302
    A8        1.89478   0.00060   0.00000   0.00350   0.00349   1.89827
    A9        2.26810  -0.00016   0.00000  -0.00094  -0.00095   2.26716
   A10        2.12031  -0.00043   0.00000  -0.00256  -0.00256   2.11774
   A11        1.90177  -0.00112   0.00000  -0.00415  -0.00416   1.89762
   A12        2.05965   0.00460   0.00000   0.01791   0.01750   2.07715
   A13        2.02455  -0.00896   0.00000  -0.03464  -0.03542   1.98913
   A14        2.19897   0.00437   0.00000   0.01703   0.01669   2.21566
   A15        2.08409  -0.00837   0.00000  -0.05039  -0.05067   2.03342
   A16        2.75794  -0.00154   0.00000  -0.03400  -0.02283   2.73511
   A17        1.89875  -0.00154   0.00000  -0.01398  -0.01412   1.88463
   A18        2.77830  -0.00527   0.00000  -0.03965  -0.04218   2.73613
   A19        3.34303  -0.00210   0.00000  -0.03562  -0.05002   3.29301
   A20        3.20267  -0.00197   0.00000  -0.11210  -0.09315   3.10952
    D1        0.00180  -0.00019   0.00000  -0.00832  -0.00841  -0.00661
    D2        3.12800   0.00056   0.00000   0.01982   0.01950  -3.13568
    D3       -0.00073  -0.00002   0.00000   0.00028   0.00027  -0.00046
    D4       -0.00207   0.00032   0.00000   0.01255   0.01264   0.01058
    D5        3.13890   0.00015   0.00000   0.00689   0.00704  -3.13725
    D6       -3.12808  -0.00033   0.00000  -0.01551  -0.01596   3.13915
    D7        0.01289  -0.00051   0.00000  -0.02117  -0.02157  -0.00868
    D8       -3.09448  -0.00277   0.00000  -0.13508  -0.13570   3.05300
    D9        0.04145  -0.00138   0.00000  -0.07994  -0.08009  -0.03864
   D10        0.02947  -0.00196   0.00000  -0.10305  -0.10354  -0.07406
   D11       -3.11778  -0.00057   0.00000  -0.04792  -0.04792   3.11748
   D12        0.00158  -0.00033   0.00000  -0.01210  -0.01222  -0.01064
   D13       -3.13959  -0.00016   0.00000  -0.00539  -0.00538   3.13822
   D14       -3.13926  -0.00012   0.00000  -0.00531  -0.00548   3.13845
   D15        0.00276   0.00005   0.00000   0.00140   0.00136   0.00412
   D16       -0.00057   0.00023   0.00000   0.00769   0.00778   0.00721
   D17        3.14065   0.00007   0.00000   0.00166   0.00163  -3.14091
   D18        0.05450  -0.00542   0.00000  -0.15499  -0.15672  -0.10223
   D19       -3.09328  -0.00390   0.00000  -0.09485  -0.09588   3.09403
   D20        0.08270  -0.00169   0.00000  -0.23307  -0.24619  -0.16349
   D21        3.00543  -0.00056   0.00000   0.03659   0.04276   3.04819
   D22        2.43115  -0.00343   0.00000  -0.12521  -0.11509   2.31606
   D23       -2.10973  -0.00433   0.00000  -0.26408  -0.25494  -2.36467
         Item               Value     Threshold  Converged?
 Maximum Force            0.010249     0.000450     NO 
 RMS     Force            0.003001     0.000300     NO 
 Maximum Displacement     0.711757     0.001800     NO 
 RMS     Displacement     0.182911     0.001200     NO 
 Predicted change in Energy=-4.975584D-03
 GradGradGradGradGradGradGradGradGradGradGradGradGradGradGradGradGradGrad

                          Input orientation:                          
 ---------------------------------------------------------------------
 Center     Atomic      Atomic             Coordinates (Angstroms)
 Number     Number       Type             X           Y           Z
 ---------------------------------------------------------------------
      1          7           0        0.119795    0.977666   -0.158065
      2          7           0        0.429203   -0.325883   -0.046286
      3          6           0        1.772870   -0.495440    0.022504
      4          6           0        2.264535    0.782164   -0.039827
      5          7           0        1.216682    1.651101   -0.155394
      6          1           0        2.212943   -1.475359    0.111160
      7          1           0        3.283488    1.132740   -0.016161
      8          1           0       -1.425263    1.796546    0.202294
      9          6           0       -0.567426   -1.372723   -0.023575
     10          8           0       -0.209137   -2.516119   -0.013944
     11          8           0       -1.793120   -0.937199   -0.075219
     12          1           0       -1.916601    0.053952   -0.032747
     13          8           0       -2.347563    1.568907    0.000591
     14          1           0       -2.791744    2.366988   -0.296779
 ---------------------------------------------------------------------
                    Distance matrix (angstroms):
                    1          2          3          4          5
     1  N    0.000000
     2  N    1.344421   0.000000
     3  C    2.221554   1.356068   0.000000
     4  C    2.156875   2.143887   1.370361   0.000000
     5  N    1.287122   2.130843   2.224551   1.366163   0.000000
     6  H    3.235904   2.127865   1.077852   2.263154   3.292162
     7  H    3.170668   3.205531   2.221358   1.077836   2.135362
     8  H    1.785393   2.829407   3.938727   3.834345   2.670013
     9  C    2.452486   1.445565   2.499746   3.558623   3.513392
    10  O    3.512193   2.281590   2.830693   4.122910   4.406664
    11  O    2.707917   2.305052   3.594577   4.407042   3.970470
    12  H    2.239612   2.376396   3.730560   4.244083   3.519004
    13  O    2.542163   3.361973   4.608684   4.678893   3.568603
    14  H    3.229012   4.205806   5.397326   5.305059   4.074306
                    6          7          8          9         10
     6  H    0.000000
     7  H    2.822137   0.000000
     8  H    4.893895   4.760325   0.000000
     9  C    2.785523   4.594228   3.291074   0.000000
    10  O    2.639186   5.051000   4.486067   1.198256   0.000000
    11  O    4.046343   5.482708   2.772308   1.301797   2.237353
    12  H    4.405976   5.310836   1.825730   1.963608   3.085620
    13  O    5.484340   5.647943   0.971154   3.438409   4.610913
    14  H    6.322731   6.205688   1.562610   4.359779   5.531238
                   11         12         13         14
    11  O    0.000000
    12  H    0.999715   0.000000
    13  O    2.567824   1.575414   0.000000
    14  H    3.458900   2.487112   0.960551   0.000000
 Stoichiometry    C3H5N3O3
 Framework group  C1[X(C3H5N3O3)]
 Deg. of freedom    36
 Full point group                 C1      NOp   1
 Largest Abelian subgroup         C1      NOp   1
 Largest concise Abelian subgroup C1      NOp   1
                         Standard orientation:                         
 ---------------------------------------------------------------------
 Center     Atomic      Atomic             Coordinates (Angstroms)
 Number     Number       Type             X           Y           Z
 ---------------------------------------------------------------------
      1          7           0        0.259189   -0.980963    0.086958
      2          7           0        0.427443    0.350097    0.000713
      3          6           0        1.745190    0.663462   -0.064601
      4          6           0        2.370562   -0.555308   -0.027200
      5          7           0        1.421696   -1.533246    0.071246
      6          1           0        2.077956    1.686306   -0.134039
      7          1           0        3.421070   -0.794553   -0.057601
      8          1           0       -1.190326   -1.952975   -0.289508
      9          6           0       -0.675293    1.284777   -0.001642
     10          8           0       -0.441139    2.459863    0.011116
     11          8           0       -1.847382    0.719945    0.041344
     12          1           0       -1.864427   -0.277709   -0.020505
     13          8           0       -2.131256   -1.829084   -0.083495
     14          1           0       -2.487108   -2.675661    0.198170
 ---------------------------------------------------------------------
 Rotational constants (GHZ):           2.0338999           1.6762477           0.9206613
 Standard basis: 6-31+G(d,p) (6D, 7F)
 There are   196 symmetry adapted cartesian basis functions of A   symmetry.
 There are   196 symmetry adapted basis functions of A   symmetry.
   196 basis functions,   323 primitive gaussians,   196 cartesian basis functions
    34 alpha electrons       34 beta electrons
       nuclear repulsion energy       460.6939007475 Hartrees.
 NAtoms=   14 NActive=   14 NUniq=   14 SFac= 1.00D+00 NAtFMM=   60 NAOKFM=F Big=F
 Integral buffers will be    131072 words long.
 Raffenetti 2 integral format.
 Two-electron integral symmetry is turned on.
 One-electron integrals computed using PRISM.
 NBasis=   196 RedAO= T EigKep=  1.88D-05  NBF=   196
 NBsUse=   196 1.00D-06 EigRej= -1.00D+00 NBFU=   196
 Initial guess from the checkpoint file:  "/home/gau/soft/scratch/Gau-77714.chk"
 B after Tr=     0.000000   -0.000000    0.000000
         Rot=    0.998693    0.000038    0.000226   -0.051105 Ang=   5.86 deg.
 ExpMin= 4.38D-02 ExpMax= 5.48D+03 ExpMxC= 8.25D+02 IAcc=3 IRadAn=         5 AccDes= 0.00D+00
 Harris functional with IExCor= 1009 and IRadAn=       5 diagonalized for initial guess.
 HarFok:  IExCor= 1009 AccDes= 0.00D+00 IRadAn=         5 IDoV= 1 UseB2=F ITyADJ=14
 ICtDFT=  3500011 ScaDFX=  1.000000  1.000000  1.000000  1.000000
 FoFCou: FMM=F IPFlag=           0 FMFlag=      100000 FMFlg1=           0
         NFxFlg=           0 DoJE=T BraDBF=F KetDBF=T FulRan=T
         wScrn=  0.000000 ICntrl=       500 IOpCl=  0 I1Cent=   200000004 NGrid=           0
         NMat0=    1 NMatS0=      1 NMatT0=    0 NMatD0=    1 NMtDS0=    0 NMtDT0=    0
 Petite list used in FoFCou.
 Requested convergence on RMS density matrix=1.00D-08 within 128 cycles.
 Requested convergence on MAX density matrix=1.00D-06.
 Requested convergence on             energy=1.00D-06.
 No special actions if energy rises.
 SCF Done:  E(RM062X) =  -507.057915005     A.U. after   14 cycles
            NFock= 14  Conv=0.40D-08     -V/T= 2.0079
 Calling FoFJK, ICntrl=      2127 FMM=F ISym2X=0 I1Cent= 0 IOpClX= 0 NMat=1 NMatS=1 NMatT=0.
 ***** Axes restored to original set *****
 -------------------------------------------------------------------
 Center     Atomic                   Forces (Hartrees/Bohr)
 Number     Number              X              Y              Z
 -------------------------------------------------------------------
      1        7           0.015759512   -0.004316664    0.003239570
      2        7           0.003453166   -0.000645556    0.001568509
      3        6          -0.001554053    0.001568799    0.000687915
      4        6           0.001358504    0.001505672   -0.001763249
      5        7           0.003112413   -0.001226585    0.001233217
      6        1           0.000105468   -0.000104486   -0.000230387
      7        1           0.000171256   -0.000085792   -0.000170456
      8        1          -0.001000427    0.003449856   -0.004718780
      9        6          -0.001481907   -0.001606233   -0.007404649
     10        8           0.000475351    0.001686330    0.002777014
     11        8          -0.000053962   -0.001362028    0.004317088
     12        1          -0.008370841   -0.005807460   -0.006243317
     13        8          -0.007349689    0.009651399    0.008336624
     14        1          -0.004624793   -0.002707253   -0.001629100
 -------------------------------------------------------------------
 Cartesian Forces:  Max     0.015759512 RMS     0.004457691

 GradGradGradGradGradGradGradGradGradGradGradGradGradGradGradGradGradGrad
 Berny optimization.
 Using GEDIIS/GDIIS optimizer.
 FormGI is forming the generalized inverse of G from B-inverse, IUseBI=4.
 Internal  Forces:  Max     0.083269413 RMS     0.016627720
 Search for a local minimum.
 Step number   2 out of a maximum of   68
 All quantities printed in internal units (Hartrees-Bohrs-Radians)
 Mixed Optimization -- RFO/linear search
 Update second derivatives using D2CorX and points    2    1
 DE=  2.86D-03 DEPred=-4.98D-03 R=-5.74D-01
 Trust test=-5.74D-01 RLast= 5.27D-01 DXMaxT set to 1.50D-01
 ITU= -1  0
 Use linear search instead of GDIIS.
     Eigenvalues ---    0.00389   0.00852   0.00962   0.01036   0.01711
     Eigenvalues ---    0.01827   0.02218   0.02333   0.02394   0.02433
     Eigenvalues ---    0.02517   0.04418   0.08211   0.10809   0.15518
     Eigenvalues ---    0.15999   0.16000   0.19975   0.22774   0.24669
     Eigenvalues ---    0.24937   0.24981   0.36247   0.36261   0.38159
     Eigenvalues ---    0.46072   0.46633   0.48079   0.49718   0.52510
     Eigenvalues ---    0.54437   0.54866   0.63988   0.67568   1.05381
     Eigenvalues ---    1.10341
 RFO step:  Lambda=-7.02983556D-03 EMin= 3.89015329D-03
 Quartic linear search produced a step of -0.61807.
 Maximum step size (   0.150) exceeded in Quadratic search.
    -- Step size scaled by   0.488
 Iteration  1 RMS(Cart)=  0.12868418 RMS(Int)=  0.00545690
 Iteration  2 RMS(Cart)=  0.00890954 RMS(Int)=  0.00214877
 Iteration  3 RMS(Cart)=  0.00009347 RMS(Int)=  0.00214836
 Iteration  4 RMS(Cart)=  0.00000083 RMS(Int)=  0.00214836
 Variable       Old X    -DE/DX   Delta X   Delta X   Delta X     New X
                                 (Linear)    (Quad)   (Total)
    R1        2.54059  -0.00519   0.00122  -0.00269  -0.00151   2.53907
    R2        2.43231   0.00191   0.00075  -0.00043   0.00032   2.43263
    R3        2.56260   0.00295   0.00168  -0.00104   0.00064   2.56324
    R4        2.73172   0.01297   0.00362   0.00088   0.00451   2.73624
    R5        2.58961  -0.00110  -0.00141   0.00122  -0.00019   2.58942
    R6        2.03685   0.00012  -0.00006   0.00011   0.00005   2.03690
    R7        2.58167  -0.00492  -0.00005  -0.00133  -0.00138   2.58030
    R8        2.03681   0.00013   0.00010  -0.00005   0.00004   2.03686
    R9        3.45013   0.00361  -0.12992   0.13131   0.00248   3.45261
   R10        1.83522   0.00203  -0.00258   0.00459   0.00007   1.83528
   R11        2.26438  -0.00145   0.00056  -0.00081  -0.00025   2.26412
   R12        2.46004   0.02120   0.00150   0.00301   0.00454   2.46458
   R13        1.88919   0.00678   0.00544  -0.00372   0.00185   1.89104
   R14        2.97710   0.00761  -0.00739   0.02070   0.01316   2.99026
   R15        1.81518   0.00039   0.00234  -0.00246  -0.00012   1.81506
    A1        1.88704   0.00534  -0.00140   0.00459   0.00319   1.89023
    A2        1.93209  -0.00763  -0.00135  -0.00294  -0.00425   1.92785
    A3        2.14694   0.02633   0.01295   0.00079   0.01387   2.16081
    A4        2.20407  -0.01870  -0.01162   0.00196  -0.00960   2.19447
    A5        1.80969   0.00568   0.00238   0.00103   0.00340   1.81309
    A6        2.12046  -0.00279  -0.00094  -0.00073  -0.00167   2.11879
    A7        2.35302  -0.00289  -0.00142  -0.00030  -0.00171   2.35130
    A8        1.89827  -0.00291  -0.00216   0.00040  -0.00174   1.89652
    A9        2.26716   0.00133   0.00058   0.00023   0.00081   2.26797
   A10        2.11774   0.00158   0.00158  -0.00064   0.00094   2.11869
   A11        1.89762  -0.00047   0.00257  -0.00313  -0.00055   1.89706
   A12        2.07715  -0.03251  -0.01082  -0.00658  -0.01726   2.05990
   A13        1.98913   0.06337   0.02189   0.01234   0.03452   2.02365
   A14        2.21566  -0.03057  -0.01032  -0.00603  -0.01623   2.19943
   A15        2.03342   0.08327   0.03132   0.03903   0.07047   2.10389
   A16        2.73511   0.02009   0.01411   0.01972   0.02857   2.76368
   A17        1.88463   0.00494   0.00872  -0.00880   0.00020   1.88483
   A18        2.73613  -0.00659   0.02607  -0.03441  -0.00705   2.72908
   A19        3.29301   0.02057   0.03092  -0.00732   0.03113   3.32413
   A20        3.10952   0.00125   0.05757  -0.02921   0.01846   3.12798
    D1       -0.00661   0.00041   0.00520  -0.00311   0.00215  -0.00446
    D2       -3.13568   0.00027  -0.01205   0.01242   0.00054  -3.13514
    D3       -0.00046   0.00025  -0.00017   0.00093   0.00076   0.00030
    D4        0.01058  -0.00085  -0.00782   0.00386  -0.00402   0.00656
    D5       -3.13725  -0.00019  -0.00435   0.00361  -0.00083  -3.13808
    D6        3.13915  -0.00029   0.00986  -0.01230  -0.00217   3.13698
    D7       -0.00868   0.00036   0.01333  -0.01255   0.00102  -0.00766
    D8        3.05300   0.00436   0.08387  -0.05549   0.02880   3.08180
    D9       -0.03864  -0.00062   0.04950  -0.04997  -0.00039  -0.03903
   D10       -0.07406   0.00403   0.06399  -0.03744   0.02687  -0.04719
   D11        3.11748  -0.00095   0.02962  -0.03191  -0.00232   3.11516
   D12       -0.01064   0.00095   0.00755  -0.00325   0.00438  -0.00626
   D13        3.13822   0.00041   0.00332  -0.00131   0.00201   3.14023
   D14        3.13845   0.00016   0.00339  -0.00295   0.00054   3.13899
   D15        0.00412  -0.00039  -0.00084  -0.00100  -0.00182   0.00230
   D16        0.00721  -0.00080  -0.00481   0.00152  -0.00333   0.00388
   D17       -3.14091  -0.00031  -0.00101  -0.00022  -0.00121   3.14107
   D18       -0.10223   0.00693   0.09687  -0.06895   0.02900  -0.07322
   D19        3.09403   0.00121   0.05926  -0.06295  -0.00300   3.09103
   D20       -0.16349   0.00256   0.15216  -0.09374   0.06444  -0.09905
   D21        3.04819  -0.00004  -0.02643   0.00351  -0.02636   3.02183
   D22        2.31606   0.00814   0.07113   0.00099   0.06812   2.38418
   D23       -2.36467   0.00635   0.15757  -0.12146   0.03261  -2.33206
         Item               Value     Threshold  Converged?
 Maximum Force            0.083269     0.000450     NO 
 RMS     Force            0.016628     0.000300     NO 
 Maximum Displacement     0.549454     0.001800     NO 
 RMS     Displacement     0.136191     0.001200     NO 
 Predicted change in Energy=-4.418630D-03
 GradGradGradGradGradGradGradGradGradGradGradGradGradGradGradGradGradGrad

                          Input orientation:                          
 ---------------------------------------------------------------------
 Center     Atomic      Atomic             Coordinates (Angstroms)
 Number     Number       Type             X           Y           Z
 ---------------------------------------------------------------------
      1          7           0        0.246997    1.012143   -0.129697
      2          7           0        0.494403   -0.305608   -0.042314
      3          6           0        1.830150   -0.534426    0.014766
      4          6           0        2.380868    0.719343   -0.034142
      5          7           0        1.372999    1.636023   -0.125307
      6          1           0        2.226078   -1.534522    0.084592
      7          1           0        3.415134    1.022145   -0.014613
      8          1           0       -1.630146    1.888795    0.119413
      9          6           0       -0.538703   -1.320030   -0.027871
     10          8           0       -0.199289   -2.468928   -0.009708
     11          8           0       -1.767329   -0.883732   -0.060431
     12          1           0       -1.959383    0.097893   -0.030089
     13          8           0       -2.540614    1.569125    0.009545
     14          1           0       -3.082502    2.309119   -0.275591
 ---------------------------------------------------------------------
                    Distance matrix (angstroms):
                    1          2          3          4          5
     1  N    0.000000
     2  N    1.343620   0.000000
     3  C    2.217909   1.356406   0.000000
     4  C    2.155984   2.146938   1.370262   0.000000
     5  N    1.287294   2.132780   2.222489   1.365435   0.000000
     6  H    3.232365   2.127213   1.077880   2.262291   3.290008
     7  H    3.170243   3.208484   2.221700   1.077858   2.135279
     8  H    2.086681   3.058639   4.225707   4.180841   3.023683
     9  C    2.463073   1.447953   2.496088   3.561317   3.521697
    10  O    3.511613   2.272053   2.803840   4.101570   4.397280
    11  O    2.767065   2.334521   3.615180   4.447255   4.026789
    12  H    2.390374   2.486771   3.842187   4.384518   3.671468
    13  O    2.846118   3.567722   4.850622   4.994499   3.916507
    14  H    3.576170   4.436831   5.683679   5.695094   4.508562
                    6          7          8          9         10
     6  H    0.000000
     7  H    2.821390   0.000000
     8  H    5.156625   5.120927   0.000000
     9  C    2.775369   4.595519   3.392566   0.000000
    10  O    2.600848   5.025104   4.588439   1.198122   0.000000
    11  O    4.048687   5.521992   2.781739   1.304201   2.230285
    12  H    4.493998   5.453432   1.827041   2.007198   3.112382
    13  O    5.688551   5.980862   0.971191   3.515148   4.667767
    14  H    6.563866   6.629004   1.562702   4.438807   5.586891
                   11         12         13         14
    11  O    0.000000
    12  H    1.000696   0.000000
    13  O    2.572814   1.582379   0.000000
    14  H    3.459808   2.492225   0.960488   0.000000
 Stoichiometry    C3H5N3O3
 Framework group  C1[X(C3H5N3O3)]
 Deg. of freedom    36
 Full point group                 C1      NOp   1
 Largest Abelian subgroup         C1      NOp   1
 Largest concise Abelian subgroup C1      NOp   1
                         Standard orientation:                         
 ---------------------------------------------------------------------
 Center     Atomic      Atomic             Coordinates (Angstroms)
 Number     Number       Type             X           Y           Z
 ---------------------------------------------------------------------
      1          7           0        0.237303   -1.029826    0.068931
      2          7           0        0.501952    0.285802    0.002627
      3          6           0        1.840518    0.497905   -0.052969
      4          6           0        2.374709   -0.763642   -0.025439
      5          7           0        1.354964   -1.668331    0.052469
      6          1           0        2.249509    1.493704   -0.107147
      7          1           0        3.404859   -1.079684   -0.051648
      8          1           0       -1.651613   -1.877490   -0.191271
      9          6           0       -0.517694    1.313847    0.006469
     10          8           0       -0.163172    2.458317    0.006468
     11          8           0       -1.751923    0.893298    0.033985
     12          1           0       -1.956962   -0.085085   -0.012034
     13          8           0       -2.557619   -1.547689   -0.074669
     14          1           0       -3.108807   -2.285036    0.199278
 ---------------------------------------------------------------------
 Rotational constants (GHZ):           2.0654019           1.5297392           0.8798878
 Standard basis: 6-31+G(d,p) (6D, 7F)
 There are   196 symmetry adapted cartesian basis functions of A   symmetry.
 There are   196 symmetry adapted basis functions of A   symmetry.
   196 basis functions,   323 primitive gaussians,   196 cartesian basis functions
    34 alpha electrons       34 beta electrons
       nuclear repulsion energy       455.3923133233 Hartrees.
 NAtoms=   14 NActive=   14 NUniq=   14 SFac= 1.00D+00 NAtFMM=   60 NAOKFM=F Big=F
 Integral buffers will be    131072 words long.
 Raffenetti 2 integral format.
 Two-electron integral symmetry is turned on.
 One-electron integrals computed using PRISM.
 NBasis=   196 RedAO= T EigKep=  1.97D-05  NBF=   196
 NBsUse=   196 1.00D-06 EigRej= -1.00D+00 NBFU=   196
 Lowest energy guess from the checkpoint file:  "/home/gau/soft/scratch/Gau-77714.chk"
 B after Tr=     0.000000   -0.000000   -0.000000
         Rot=    0.999983    0.000047   -0.000009    0.005826 Ang=   0.67 deg.
 B after Tr=     0.000000   -0.000000   -0.000000
         Rot=    0.998373   -0.000183   -0.001256    0.057007 Ang=  -6.54 deg.
 Requested convergence on RMS density matrix=1.00D-08 within 128 cycles.
 Requested convergence on MAX density matrix=1.00D-06.
 Requested convergence on             energy=1.00D-06.
 No special actions if energy rises.
 SCF Done:  E(RM062X) =  -507.062899234     A.U. after   13 cycles
            NFock= 13  Conv=0.58D-08     -V/T= 2.0081
 Calling FoFJK, ICntrl=      2127 FMM=F ISym2X=0 I1Cent= 0 IOpClX= 0 NMat=1 NMatS=1 NMatT=0.
 ***** Axes restored to original set *****
 -------------------------------------------------------------------
 Center     Atomic                   Forces (Hartrees/Bohr)
 Number     Number              X              Y              Z
 -------------------------------------------------------------------
      1        7          -0.004520507    0.001468773    0.002153300
      2        7           0.000194202    0.001171650    0.000386177
      3        6           0.000747892   -0.000123696    0.000501356
      4        6           0.000750201   -0.000548499   -0.000881649
      5        7          -0.000154599   -0.001072992    0.000603619
      6        1           0.000132939    0.000054658   -0.000110531
      7        1           0.000114326   -0.000154896   -0.000047023
      8        1          -0.000096271    0.004372450   -0.002244850
      9        6          -0.000364486    0.001014188   -0.002672970
     10        8          -0.000368256   -0.000150031    0.000974572
     11        8           0.000204514    0.000026568    0.002186701
     12        1          -0.001204625   -0.009261627   -0.004698254
     13        8           0.007449379    0.005461380    0.005783857
     14        1          -0.002884710   -0.002257928   -0.001934306
 -------------------------------------------------------------------
 Cartesian Forces:  Max     0.009261627 RMS     0.002745165

 GradGradGradGradGradGradGradGradGradGradGradGradGradGradGradGradGradGrad
 Berny optimization.
 Using GEDIIS/GDIIS optimizer.
 FormGI is forming the generalized inverse of G from B-inverse, IUseBI=4.
 Internal  Forces:  Max     0.012106263 RMS     0.002872095
 Search for a local minimum.
 Step number   3 out of a maximum of   68
 All quantities printed in internal units (Hartrees-Bohrs-Radians)
 Mixed Optimization -- RFO/linear search
 Update second derivatives using D2CorX and points    2    1    3
 DE= -2.13D-03 DEPred=-4.42D-03 R= 4.82D-01
 Trust test= 4.82D-01 RLast= 4.40D-01 DXMaxT set to 1.50D-01
 ITU=  0 -1  0
 Use linear search instead of GDIIS.
     Eigenvalues ---    0.00374   0.00913   0.00973   0.01388   0.01717
     Eigenvalues ---    0.01930   0.02208   0.02329   0.02393   0.02431
     Eigenvalues ---    0.02941   0.05969   0.08247   0.10809   0.15426
     Eigenvalues ---    0.16000   0.16007   0.20523   0.22781   0.24892
     Eigenvalues ---    0.24980   0.25099   0.36247   0.36261   0.38206
     Eigenvalues ---    0.46150   0.46589   0.48069   0.49834   0.52574
     Eigenvalues ---    0.54429   0.54921   0.64321   0.67600   1.05416
     Eigenvalues ---    1.56422
 RFO step:  Lambda=-3.34185340D-03 EMin= 3.74030087D-03
 Quartic linear search produced a step of -0.19582.
 Maximum step size (   0.150) exceeded in Quadratic search.
    -- Step size scaled by   0.502
 Iteration  1 RMS(Cart)=  0.03567267 RMS(Int)=  0.00382469
 Iteration  2 RMS(Cart)=  0.00175960 RMS(Int)=  0.00059275
 Iteration  3 RMS(Cart)=  0.00002590 RMS(Int)=  0.00059254
 Iteration  4 RMS(Cart)=  0.00000004 RMS(Int)=  0.00059254
 Variable       Old X    -DE/DX   Delta X   Delta X   Delta X     New X
                                 (Linear)    (Quad)   (Total)
    R1        2.53907   0.00073   0.00068  -0.00165  -0.00098   2.53809
    R2        2.43263   0.00046   0.00017  -0.00011   0.00007   2.43270
    R3        2.56324   0.00049   0.00041  -0.00055  -0.00014   2.56309
    R4        2.73624  -0.00142   0.00026  -0.00073  -0.00046   2.73577
    R5        2.58942  -0.00070  -0.00041   0.00048   0.00007   2.58949
    R6        2.03690  -0.00001  -0.00003   0.00008   0.00005   2.03695
    R7        2.58030   0.00106   0.00025  -0.00031  -0.00005   2.58025
    R8        2.03686   0.00007   0.00002   0.00002   0.00004   2.03690
    R9        3.45261   0.00564  -0.04165   0.13639   0.09491   3.54752
   R10        1.83528  -0.00240  -0.00083   0.00071  -0.00026   1.83502
   R11        2.26412   0.00005   0.00023  -0.00062  -0.00040   2.26373
   R12        2.46458  -0.00381  -0.00041   0.00027  -0.00014   2.46445
   R13        1.89104  -0.00240   0.00136  -0.00475  -0.00338   1.88766
   R14        2.99026   0.00109  -0.00492   0.02511   0.02007   3.01033
   R15        1.81506   0.00046   0.00077  -0.00167  -0.00091   1.81415
    A1        1.89023  -0.00248  -0.00107   0.00029  -0.00079   1.88944
    A2        1.92785   0.00193   0.00040   0.00054   0.00094   1.92879
    A3        2.16081  -0.00359   0.00139  -0.00473  -0.00331   2.15750
    A4        2.19447   0.00167  -0.00180   0.00420   0.00241   2.19688
    A5        1.81309  -0.00069   0.00009  -0.00042  -0.00034   1.81275
    A6        2.11879   0.00049   0.00003   0.00036   0.00038   2.11917
    A7        2.35130   0.00020  -0.00011   0.00008  -0.00004   2.35126
    A8        1.89652  -0.00028  -0.00034  -0.00007  -0.00042   1.89610
    A9        2.26797  -0.00004   0.00003   0.00001   0.00004   2.26800
   A10        2.11869   0.00032   0.00032   0.00008   0.00040   2.11908
   A11        1.89706   0.00152   0.00092  -0.00028   0.00064   1.89770
   A12        2.05990   0.00434  -0.00005   0.00159   0.00131   2.06121
   A13        2.02365  -0.00765   0.00018  -0.00155  -0.00158   2.02207
   A14        2.19943   0.00335  -0.00009   0.00064   0.00032   2.19975
   A15        2.10389  -0.01211  -0.00388   0.00281  -0.00104   2.10285
   A16        2.76368  -0.00226  -0.00112  -0.00215  -0.00344   2.76024
   A17        1.88483   0.00079   0.00272  -0.01170  -0.00873   1.87610
   A18        2.72908  -0.00654   0.00964  -0.04490  -0.03506   2.69401
   A19        3.32413  -0.00387   0.00370  -0.02387  -0.01956   3.30457
   A20        3.12798   0.00214   0.01463   0.01493   0.02532   3.15330
    D1       -0.00446   0.00044   0.00123   0.00480   0.00605   0.00159
    D2       -3.13514  -0.00029  -0.00393   0.00382  -0.00009  -3.13523
    D3        0.00030  -0.00002  -0.00020  -0.00041  -0.00062  -0.00032
    D4        0.00656  -0.00065  -0.00169  -0.00698  -0.00870  -0.00214
    D5       -3.13808  -0.00027  -0.00122  -0.00217  -0.00341  -3.14149
    D6        3.13698   0.00006   0.00355  -0.00605  -0.00243   3.13455
    D7       -0.00766   0.00043   0.00402  -0.00123   0.00286  -0.00480
    D8        3.08180   0.00313   0.02093   0.02823   0.04936   3.13116
    D9       -0.03903   0.00088   0.01576  -0.00555   0.01025  -0.02878
   D10       -0.04719   0.00230   0.01501   0.02713   0.04227  -0.00492
   D11        3.11516   0.00005   0.00984  -0.00664   0.00317   3.11833
   D12       -0.00626   0.00063   0.00154   0.00661   0.00816   0.00190
   D13        3.14023   0.00025   0.00066   0.00252   0.00318  -3.13977
   D14        3.13899   0.00018   0.00097   0.00082   0.00181   3.14081
   D15        0.00230  -0.00020   0.00009  -0.00326  -0.00317  -0.00086
   D16        0.00388  -0.00039  -0.00087  -0.00403  -0.00491  -0.00103
   D17        3.14107  -0.00005  -0.00008  -0.00036  -0.00043   3.14063
   D18       -0.07322   0.00571   0.02501   0.01719   0.04264  -0.03059
   D19        3.09103   0.00326   0.01936  -0.01969  -0.00003   3.09100
   D20       -0.09905   0.00452   0.03559   0.04026   0.07673  -0.02233
   D21        3.02183  -0.00091  -0.00321  -0.01669  -0.02066   3.00117
   D22        2.38418   0.00072   0.00920   0.10289   0.11192   2.49610
   D23       -2.33206  -0.00031   0.04354  -0.09164  -0.04819  -2.38026
         Item               Value     Threshold  Converged?
 Maximum Force            0.012106     0.000450     NO 
 RMS     Force            0.002872     0.000300     NO 
 Maximum Displacement     0.186764     0.001800     NO 
 RMS     Displacement     0.036083     0.001200     NO 
 Predicted change in Energy=-1.463755D-03
 GradGradGradGradGradGradGradGradGradGradGradGradGradGradGradGradGradGrad

                          Input orientation:                          
 ---------------------------------------------------------------------
 Center     Atomic      Atomic             Coordinates (Angstroms)
 Number     Number       Type             X           Y           Z
 ---------------------------------------------------------------------
      1          7           0        0.235557    1.005708   -0.085310
      2          7           0        0.491393   -0.311854   -0.035313
      3          6           0        1.828660   -0.535200    0.002988
      4          6           0        2.372580    0.722108   -0.029400
      5          7           0        1.358593    1.634993   -0.082435
      6          1           0        2.230461   -1.534510    0.045605
      7          1           0        3.405550    1.029801   -0.018406
      8          1           0       -1.604953    1.930365    0.020581
      9          6           0       -0.539001   -1.328774   -0.030788
     10          8           0       -0.198590   -2.476745    0.004997
     11          8           0       -1.768120   -0.893106   -0.045275
     12          1           0       -1.958391    0.087426   -0.032202
     13          8           0       -2.510892    1.580842    0.013592
     14          1           0       -3.094184    2.296288   -0.250080
 ---------------------------------------------------------------------
                    Distance matrix (angstroms):
                    1          2          3          4          5
     1  N    0.000000
     2  N    1.343101   0.000000
     3  C    2.218146   1.356331   0.000000
     4  C    2.156483   2.146619   1.370300   0.000000
     5  N    1.287330   2.131776   2.222161   1.365408   0.000000
     6  H    3.232567   2.127391   1.077905   2.262333   3.289726
     7  H    3.170790   3.208213   2.221772   1.077879   2.135507
     8  H    2.062446   3.070072   4.227177   4.157301   2.980011
     9  C    2.460228   1.447709   2.497342   3.561379   3.519580
    10  O    3.510572   2.272544   2.807017   4.104237   4.397596
    11  O    2.760764   2.333100   3.614866   4.444611   4.021070
    12  H    2.378964   2.482111   3.838053   4.377229   3.660583
    13  O    2.807765   3.549423   4.827987   4.958585   3.871055
    14  H    3.574902   4.439020   5.684696   5.693176   4.504736
                    6          7          8          9         10
     6  H    0.000000
     7  H    2.821458   0.000000
     8  H    5.168790   5.090940   0.000000
     9  C    2.778144   4.595924   3.429414   0.000000
    10  O    2.605714   5.028542   4.626091   1.197913   0.000000
    11  O    4.050717   5.519525   2.828949   1.304128   2.230216
    12  H    4.492572   5.446110   1.877267   2.005066   3.110185
    13  O    5.673347   5.942133   0.971051   3.515137   4.670206
    14  H    6.566147   6.626025   1.557231   4.440510   5.588504
                   11         12         13         14
    11  O    0.000000
    12  H    0.998908   0.000000
    13  O    2.583717   1.592999   0.000000
    14  H    3.460148   2.493305   0.960009   0.000000
 Stoichiometry    C3H5N3O3
 Framework group  C1[X(C3H5N3O3)]
 Deg. of freedom    36
 Full point group                 C1      NOp   1
 Largest Abelian subgroup         C1      NOp   1
 Largest concise Abelian subgroup C1      NOp   1
                         Standard orientation:                         
 ---------------------------------------------------------------------
 Center     Atomic      Atomic             Coordinates (Angstroms)
 Number     Number       Type             X           Y           Z
 ---------------------------------------------------------------------
      1          7           0        0.226230   -1.024793    0.039788
      2          7           0        0.499189    0.289847    0.006078
      3          6           0        1.839229    0.496214   -0.030522
      4          6           0        2.366731   -0.768381   -0.014322
      5          7           0        1.340963   -1.668571    0.028115
      6          1           0        2.253996    1.490659   -0.060956
      7          1           0        3.395594   -1.089345   -0.030014
      8          1           0       -1.626249   -1.923994   -0.076158
      9          6           0       -0.517862    1.320082    0.015129
     10          8           0       -0.162537    2.463878   -0.006563
     11          8           0       -1.752547    0.900317    0.025170
     12          1           0       -1.955594   -0.077412   -0.000020
     13          8           0       -2.527549   -1.562812   -0.064051
     14          1           0       -3.119946   -2.273845    0.191124
 ---------------------------------------------------------------------
 Rotational constants (GHZ):           2.0532894           1.5471779           0.8828607
 Standard basis: 6-31+G(d,p) (6D, 7F)
 There are   196 symmetry adapted cartesian basis functions of A   symmetry.
 There are   196 symmetry adapted basis functions of A   symmetry.
   196 basis functions,   323 primitive gaussians,   196 cartesian basis functions
    34 alpha electrons       34 beta electrons
       nuclear repulsion energy       455.7319384872 Hartrees.
 NAtoms=   14 NActive=   14 NUniq=   14 SFac= 1.00D+00 NAtFMM=   60 NAOKFM=F Big=F
 Integral buffers will be    131072 words long.
 Raffenetti 2 integral format.
 Two-electron integral symmetry is turned on.
 One-electron integrals computed using PRISM.
 NBasis=   196 RedAO= T EigKep=  1.94D-05  NBF=   196
 NBsUse=   196 1.00D-06 EigRej= -1.00D+00 NBFU=   196
 Initial guess from the checkpoint file:  "/home/gau/soft/scratch/Gau-77714.chk"
 B after Tr=    -0.000000    0.000000    0.000000
         Rot=    1.000000    0.000173    0.000163   -0.000334 Ang=   0.05 deg.
 ExpMin= 4.38D-02 ExpMax= 5.48D+03 ExpMxC= 8.25D+02 IAcc=3 IRadAn=         5 AccDes= 0.00D+00
 Harris functional with IExCor= 1009 and IRadAn=       5 diagonalized for initial guess.
 HarFok:  IExCor= 1009 AccDes= 0.00D+00 IRadAn=         5 IDoV= 1 UseB2=F ITyADJ=14
 ICtDFT=  3500011 ScaDFX=  1.000000  1.000000  1.000000  1.000000
 FoFCou: FMM=F IPFlag=           0 FMFlag=      100000 FMFlg1=           0
         NFxFlg=           0 DoJE=T BraDBF=F KetDBF=T FulRan=T
         wScrn=  0.000000 ICntrl=       500 IOpCl=  0 I1Cent=   200000004 NGrid=           0
         NMat0=    1 NMatS0=      1 NMatT0=    0 NMatD0=    1 NMtDS0=    0 NMtDT0=    0
 Petite list used in FoFCou.
 Requested convergence on RMS density matrix=1.00D-08 within 128 cycles.
 Requested convergence on MAX density matrix=1.00D-06.
 Requested convergence on             energy=1.00D-06.
 No special actions if energy rises.
 SCF Done:  E(RM062X) =  -507.064352894     A.U. after   12 cycles
            NFock= 12  Conv=0.53D-08     -V/T= 2.0081
 Calling FoFJK, ICntrl=      2127 FMM=F ISym2X=0 I1Cent= 0 IOpClX= 0 NMat=1 NMatS=1 NMatT=0.
 ***** Axes restored to original set *****
 -------------------------------------------------------------------
 Center     Atomic                   Forces (Hartrees/Bohr)
 Number     Number              X              Y              Z
 -------------------------------------------------------------------
      1        7          -0.002532274    0.001541242    0.000295795
      2        7          -0.000563349    0.000962204   -0.000283892
      3        6           0.000765378   -0.000099283   -0.000513907
      4        6           0.000614030   -0.000545327    0.000047947
      5        7           0.000062514   -0.000706313    0.000214729
      6        1           0.000075253    0.000054888   -0.000060192
      7        1           0.000081713   -0.000131818    0.000074306
      8        1           0.000207511    0.001395200   -0.000183719
      9        6          -0.000622723    0.001485109    0.003544768
     10        8          -0.000117247   -0.000526133   -0.001551693
     11        8          -0.000049401   -0.001344981   -0.000173540
     12        1          -0.000884704   -0.006409601   -0.002763491
     13        8           0.007463870    0.006792943    0.002986317
     14        1          -0.004500572   -0.002468130   -0.001633428
 -------------------------------------------------------------------
 Cartesian Forces:  Max     0.007463870 RMS     0.002305982

 GradGradGradGradGradGradGradGradGradGradGradGradGradGradGradGradGradGrad
 Berny optimization.
 Using GEDIIS/GDIIS optimizer.
 FormGI is forming the generalized inverse of G from B-inverse, IUseBI=4.
 Internal  Forces:  Max     0.007800881 RMS     0.001809664
 Search for a local minimum.
 Step number   4 out of a maximum of   68
 All quantities printed in internal units (Hartrees-Bohrs-Radians)
 Mixed Optimization -- RFO/linear search
 Update second derivatives using D2CorX and points    2    1    3    4
 DE= -1.45D-03 DEPred=-1.46D-03 R= 9.93D-01
 TightC=F SS=  1.41D+00  RLast= 1.98D-01 DXNew= 2.5227D-01 5.9519D-01
 Trust test= 9.93D-01 RLast= 1.98D-01 DXMaxT set to 2.52D-01
 ITU=  1  0 -1  0
 Use linear search instead of GDIIS.
     Eigenvalues ---    0.00359   0.00921   0.00975   0.01319   0.01740
     Eigenvalues ---    0.01978   0.02217   0.02327   0.02395   0.02435
     Eigenvalues ---    0.03161   0.06193   0.08155   0.10995   0.15230
     Eigenvalues ---    0.16000   0.16001   0.20976   0.22773   0.24816
     Eigenvalues ---    0.25000   0.25366   0.36247   0.36261   0.38226
     Eigenvalues ---    0.46209   0.46614   0.48073   0.49624   0.52575
     Eigenvalues ---    0.54507   0.55153   0.64397   0.67591   1.05463
     Eigenvalues ---    1.56330
 RFO step:  Lambda=-2.43761110D-03 EMin= 3.59414387D-03
 Quartic linear search produced a step of  0.86826.
 Maximum step size (   0.252) exceeded in Quadratic search.
    -- Step size scaled by   0.959
 Iteration  1 RMS(Cart)=  0.05501339 RMS(Int)=  0.01986731
 Iteration  2 RMS(Cart)=  0.01431971 RMS(Int)=  0.00214291
 Iteration  3 RMS(Cart)=  0.00041101 RMS(Int)=  0.00210263
 Iteration  4 RMS(Cart)=  0.00000216 RMS(Int)=  0.00210263
 Iteration  5 RMS(Cart)=  0.00000001 RMS(Int)=  0.00210263
 Variable       Old X    -DE/DX   Delta X   Delta X   Delta X     New X
                                 (Linear)    (Quad)   (Total)
    R1        2.53809   0.00105  -0.00085  -0.00010  -0.00094   2.53715
    R2        2.43270   0.00053   0.00006   0.00097   0.00103   2.43373
    R3        2.56309   0.00067  -0.00012   0.00117   0.00104   2.56414
    R4        2.73577  -0.00031  -0.00040   0.00223   0.00182   2.73760
    R5        2.58949  -0.00069   0.00006  -0.00113  -0.00107   2.58842
    R6        2.03695  -0.00003   0.00004   0.00001   0.00005   2.03700
    R7        2.58025   0.00074  -0.00004  -0.00000  -0.00004   2.58021
    R8        2.03690   0.00004   0.00003   0.00012   0.00015   2.03705
    R9        3.54752   0.00346   0.08241   0.21562   0.29903   3.84655
   R10        1.83502  -0.00146  -0.00023  -0.00081  -0.00110   1.83393
   R11        2.26373   0.00042  -0.00034  -0.00021  -0.00056   2.26317
   R12        2.46445  -0.00277  -0.00012  -0.00114  -0.00126   2.46319
   R13        1.88766  -0.00114  -0.00294  -0.00612  -0.00910   1.87856
   R14        3.01033   0.00153   0.01743   0.05767   0.07391   3.08424
   R15        1.81415   0.00134  -0.00079   0.00163   0.00084   1.81500
    A1        1.88944  -0.00169  -0.00069  -0.00248  -0.00319   1.88625
    A2        1.92879   0.00093   0.00082   0.00030   0.00109   1.92988
    A3        2.15750  -0.00072  -0.00287   0.00488   0.00199   2.15949
    A4        2.19688  -0.00020   0.00210  -0.00523  -0.00313   2.19376
    A5        1.81275  -0.00015  -0.00030   0.00151   0.00118   1.81393
    A6        2.11917   0.00017   0.00033  -0.00018   0.00015   2.11932
    A7        2.35126  -0.00002  -0.00003  -0.00130  -0.00134   2.34993
    A8        1.89610  -0.00021  -0.00037  -0.00236  -0.00274   1.89336
    A9        2.26800  -0.00005   0.00003   0.00018   0.00022   2.26822
   A10        2.11908   0.00026   0.00035   0.00217   0.00252   2.12160
   A11        1.89770   0.00112   0.00055   0.00307   0.00362   1.90132
   A12        2.06121   0.00204   0.00114  -0.00280  -0.00386   2.05734
   A13        2.02207  -0.00350  -0.00137   0.01005   0.00647   2.02854
   A14        2.19975   0.00148   0.00028  -0.00464  -0.00661   2.19314
   A15        2.10285  -0.00780  -0.00091   0.00058  -0.00046   2.10239
   A16        2.76024  -0.00115  -0.00299  -0.00108  -0.00167   2.75856
   A17        1.87610   0.00293  -0.00758   0.01453   0.00931   1.88541
   A18        2.69401  -0.00642  -0.03044  -0.10450  -0.13333   2.56068
   A19        3.30457  -0.00227  -0.01699  -0.03943  -0.05893   3.24564
   A20        3.15330   0.00054   0.02199   0.00636   0.01534   3.16864
    D1        0.00159  -0.00010   0.00526  -0.01492  -0.00960  -0.00801
    D2       -3.13523  -0.00023  -0.00008  -0.00329  -0.00339  -3.13861
    D3       -0.00032   0.00007  -0.00054   0.00645   0.00589   0.00557
    D4       -0.00214   0.00009  -0.00755   0.01664   0.00905   0.00691
    D5       -3.14149   0.00001  -0.00296   0.00740   0.00440  -3.13709
    D6        3.13455   0.00022  -0.00211   0.00472   0.00270   3.13726
    D7       -0.00480   0.00014   0.00248  -0.00451  -0.00195  -0.00675
    D8        3.13116   0.00001   0.04285  -0.06801  -0.02479   3.10637
    D9       -0.02878   0.00127   0.00890   0.07696   0.08593   0.05715
   D10       -0.00492  -0.00014   0.03670  -0.05459  -0.01764  -0.02256
   D11        3.11833   0.00112   0.00275   0.09038   0.09308  -3.07178
   D12        0.00190  -0.00005   0.00709  -0.01246  -0.00534  -0.00343
   D13       -3.13977  -0.00009   0.00276  -0.00970  -0.00693   3.13649
   D14        3.14081   0.00004   0.00157  -0.00136   0.00024   3.14105
   D15       -0.00086   0.00000  -0.00275   0.00140  -0.00135  -0.00221
   D16       -0.00103  -0.00001  -0.00426   0.00403  -0.00024  -0.00127
   D17        3.14063   0.00002  -0.00038   0.00155   0.00119  -3.14136
   D18       -0.03059   0.00134   0.03702  -0.05994  -0.02194  -0.05252
   D19        3.09100   0.00272  -0.00002   0.09825   0.09860  -3.09359
   D20       -0.02233   0.00214   0.06662   0.06342   0.12701   0.10468
   D21        3.00117  -0.00052  -0.01794  -0.01845  -0.03655   2.96461
   D22        2.49610   0.00006   0.09717   0.15261   0.25393   2.75003
   D23       -2.38026  -0.00089  -0.04184  -0.14070  -0.17784  -2.55810
         Item               Value     Threshold  Converged?
 Maximum Force            0.007801     0.000450     NO 
 RMS     Force            0.001810     0.000300     NO 
 Maximum Displacement     0.243458     0.001800     NO 
 RMS     Displacement     0.063341     0.001200     NO 
 Predicted change in Energy=-1.870113D-03
 GradGradGradGradGradGradGradGradGradGradGradGradGradGradGradGradGradGrad

                          Input orientation:                          
 ---------------------------------------------------------------------
 Center     Atomic      Atomic             Coordinates (Angstroms)
 Number     Number       Type             X           Y           Z
 ---------------------------------------------------------------------
      1          7           0        0.232581    1.000762    0.003988
      2          7           0        0.491068   -0.316717    0.007558
      3          6           0        1.829169   -0.540182   -0.018560
      4          6           0        2.373268    0.716806   -0.029100
      5          7           0        1.356972    1.628501   -0.013669
      6          1           0        2.232047   -1.539980   -0.024259
      7          1           0        3.406447    1.023862   -0.045018
      8          1           0       -1.603334    2.059198   -0.092396
      9          6           0       -0.536276   -1.337990    0.022435
     10          8           0       -0.187906   -2.483274   -0.012964
     11          8           0       -1.768400   -0.916465   -0.034165
     12          1           0       -1.968102    0.057349   -0.039227
     13          8           0       -2.460870    1.612955   -0.006871
     14          1           0       -3.148003    2.242516   -0.239197
 ---------------------------------------------------------------------
                    Distance matrix (angstroms):
                    1          2          3          4          5
     1  N    0.000000
     2  N    1.342602   0.000000
     3  C    2.219034   1.356883   0.000000
     4  C    2.159692   2.147601   1.369735   0.000000
     5  N    1.287876   2.129346   2.219500   1.365388   0.000000
     6  H    3.233270   2.128002   1.077933   2.261206   3.287118
     7  H    3.174328   3.209260   2.221427   1.077959   2.137035
[...]
 ! A16   A(8,12,11)            159.9565         -DE/DX =    0.0                 !
 ! A17   A(8,13,14)            108.8111         -DE/DX =    0.0                 !
 ! A18   A(12,13,14)           122.5717         -DE/DX =    0.0                 !
 ! A19   L(11,12,13,1,-1)      188.8556         -DE/DX =    0.0                 !
 ! A20   L(11,12,13,1,-2)      180.4791         -DE/DX =    0.0                 !
 ! D1    D(5,1,2,3)             -0.0904         -DE/DX =    0.0                 !
 ! D2    D(5,1,2,9)           -179.2412         -DE/DX =    0.0                 !
 ! D3    D(2,1,5,4)              0.031          -DE/DX =    0.0                 !
 ! D4    D(1,2,3,4)              0.1091         -DE/DX =    0.0                 !
 ! D5    D(1,2,3,6)           -179.8575         -DE/DX =    0.0                 !
 ! D6    D(9,2,3,4)            179.2496         -DE/DX =    0.0                 !
 ! D7    D(9,2,3,6)             -0.717          -DE/DX =    0.0                 !
 ! D8    D(1,2,9,10)           177.3575         -DE/DX =    0.0                 !
 ! D9    D(1,2,9,11)            -2.3201         -DE/DX =    0.0                 !
 ! D10   D(3,2,9,10)            -1.6694         -DE/DX =    0.0                 !
 ! D11   D(3,2,9,11)           178.653          -DE/DX =    0.0                 !
 ! D12   D(2,3,4,5)             -0.0882         -DE/DX =    0.0                 !
 ! D13   D(2,3,4,7)            179.8929         -DE/DX =    0.0                 !
 ! D14   D(6,3,4,5)            179.8717         -DE/DX =    0.0                 !
 ! D15   D(6,3,4,7)             -0.1472         -DE/DX =    0.0                 !
 ! D16   D(3,4,5,1)              0.0378         -DE/DX =    0.0                 !
 ! D17   D(7,4,5,1)           -179.9452         -DE/DX =    0.0                 !
 ! D18   D(2,9,11,12)           -3.0634         -DE/DX =    0.0                 !
 ! D19   D(10,9,11,12)         177.2883         -DE/DX =    0.0                 !
 ! D20   D(9,11,12,8)           13.3732         -DE/DX =    0.0                 !
 ! D21   D(13,11,12,8)        -174.097          -DE/DX =    0.0                 !
 ! D22   D(9,11,13,14)         132.3437         -DE/DX =    0.0                 !
 ! D23   D(14,12,13,8)        -118.476          -DE/DX =    0.0                 !
 --------------------------------------------------------------------------------
 GradGradGradGradGradGradGradGradGradGradGradGradGradGradGradGradGradGrad


 ----------------------------------------------------------------------

 Electric dipole moment (input orientation):
 (Debye = 10**-18 statcoulomb cm , SI units = C m)
                  (au)            (Debye)         (10**-30 SI)
   Tot        0.107868D+01      0.274174D+01      0.914546D+01
   x          0.331208D+00      0.841846D+00      0.280810D+01
   y          0.932465D+00      0.237009D+01      0.790577D+01
   z         -0.429381D+00     -0.109138D+01     -0.364045D+01

 Dipole polarizability, Alpha (input orientation).
 (esu units = cm**3 , SI units = C**2 m**2 J**-1)
 Alpha(0;0):
               (au)            (10**-24 esu)      (10**-40 SI)
   iso        0.671416D+02      0.994937D+01      0.110702D+02
   aniso      0.401489D+02      0.594945D+01      0.661966D+01
   xx         0.806440D+02      0.119502D+02      0.132964D+02
   yx         0.379890D+00      0.562939D-01      0.626354D-01
   yy         0.803935D+02      0.119131D+02      0.132551D+02
   zx         0.451705D+00      0.669358D-01      0.744761D-01
   zy        -0.328952D+00     -0.487456D-01     -0.542368D-01
   zz         0.403875D+02      0.598481D+01      0.665900D+01

 ----------------------------------------------------------------------

 Dipole orientation:
     7          0.03478426         -0.72780797          1.86869540
     7          0.94139147          0.47364406         -0.18050871
     6          3.39103012          1.14535789          0.17855409
     6          3.93002208          0.28327079          2.55774564
     7          1.81880756         -0.84935841          3.51928560
     1          4.44217041          2.13359160         -1.25911085
     1          5.65892285          0.39492833          3.62904178
     1         -3.58133254         -2.41759544          2.45643240
     6         -0.52548226          0.99879627         -2.43150498
     8          0.46783752          2.16474250         -4.10048511
     8         -2.83770265          0.15213104         -2.43502523
     1         -3.45743730         -0.87349564         -0.96310984
     8         -4.83068664         -2.58414429          1.12818592
     1         -6.46737505         -2.17439810          1.80774405

 Electric dipole moment (dipole orientation):
 (Debye = 10**-18 statcoulomb cm , SI units = C m)
                  (au)            (Debye)         (10**-30 SI)
   Tot        0.107868D+01      0.274174D+01      0.914546D+01
   x          0.000000D+00      0.000000D+00      0.000000D+00
   y          0.000000D+00      0.000000D+00      0.000000D+00
   z          0.107868D+01      0.274174D+01      0.914546D+01

 Dipole polarizability, Alpha (dipole orientation).
 (esu units = cm**3 , SI units = C**2 m**2 J**-1)
 Alpha(0;0):
               (au)            (10**-24 esu)      (10**-40 SI)
   iso        0.671416D+02      0.994937D+01      0.110702D+02
   aniso      0.401489D+02      0.594945D+01      0.661966D+01
   xx         0.770021D+02      0.114105D+02      0.126959D+02
   yx         0.101396D+02      0.150254D+01      0.167180D+01
   yy         0.500271D+02      0.741325D+01      0.824835D+01
   zx         0.500824D+01      0.742145D+00      0.825748D+00
   zy        -0.137127D+02     -0.203201D+01     -0.226091D+01
   zz         0.743957D+02      0.110243D+02      0.122662D+02

 ----------------------------------------------------------------------
 Unable to Open any file for archive entry.
 1\1\GINC-NODE01\Freq\RM062X\6-31+G(d,p)\C3H5N3O3\GAU\07-Dec-2023\0\\#N
  Geom=AllCheck Guess=TCheck SCRF=Check GenChk RM062X/6-31+G(d,p) Freq\
 \test\\0,1\N,0.2476765654,1.0306130912,-0.0550457909\N,0.4828248515,-0
 .2938236268,-0.0256833953\C,1.8175281028,-0.5411408787,-0.0105664659\C
 ,2.3834834971,0.705417657,-0.0297949264\N,1.3840587146,1.6363761492,-0
 .0572575999\H,2.2019456944,-1.5478302137,0.010998557\H,3.4219672988,0.
 9942769327,-0.0256181244\H,-1.611117656,2.0790134598,0.006580024\C,-0.
 554053842,-1.305521895,-0.0300939613\O,-0.2179008555,-2.4559922698,-0.
 0504923661\O,-1.7807494195,-0.866273336,-0.0177450639\H,-1.9504633892,
 0.1219530163,0.0406765219\O,-2.4602137492,1.637956407,0.159556311\H,-3
 .1163242231,2.0123167768,-0.4369593698\\Version=ES64L-G16RevC.01\State
 =1-A\HF=-507.0671011\RMSD=4.264e-09\RMSF=5.241e-06\ZeroPoint=0.0994599
 \Thermal=0.1084676\ETot=-506.9586335\HTot=-506.9576893\GTot=-507.00241
 64\Dipole=0.3312077,0.9324651,-0.4293812\DipoleDeriv=-0.4832522,0.3686
 615,-0.0103699,0.4220381,0.392144,-0.0075838,-0.0073958,-0.0040765,-0.
 1076811,-0.736161,-0.7160808,0.0107878,-0.7594661,-0.8724175,0.0000126
 ,0.0047723,0.0072986,0.0107899,0.2191465,0.4147393,-0.0061581,0.017493
 1,0.1089163,-0.0032556,-0.0006534,-0.0010031,-0.0316468,0.1462075,0.08
 00459,0.0016774,0.0779628,-0.2627033,0.0038924,0.0013034,0.0037668,-0.
 087651,-0.1502197,-0.5445015,0.0100767,-0.130321,-0.2575315,-0.0007438
 ,0.0014027,-0.0020324,-0.2228825,0.1405245,-0.0157999,-0.0000873,0.007
 094,0.1345183,0.0012985,0.0003742,0.0004097,0.1910443,0.0339061,-0.001
 8806,-0.0011134,-0.0230538,0.0999096,0.0013929,-0.0004744,0.0018523,0.
 1751791,0.5793452,-0.1542641,0.0018241,-0.1405729,0.3623995,0.0501111,
 -0.0094942,0.0564208,0.2929203,2.3643896,0.0464727,-0.0229072,0.291100
 4,2.273902,0.0189356,-0.0180782,0.0179941,0.4621589,-0.6993844,0.11730
 09,0.0052184,-0.0197467,-1.4126017,-0.0107839,0.0073087,-0.0177854,-0.
 3952833,-1.4540832,0.4536698,0.0184089,0.5112763,-1.0507914,-0.0117082
 ,0.0178563,-0.0121328,-0.3848994,0.559644,-0.2910636,-0.0196785,-0.524
 4798,1.0694052,0.0191714,-0.029659,0.020904,0.3180382,-0.8879813,0.267
 3008,0.0337937,0.2683294,-0.8862976,-0.1085833,0.0582877,-0.1122186,-0
 .5235174,0.3679183,-0.0246005,-0.0214724,0.0023462,0.3011481,0.047844,
 -0.0255504,0.0406027,0.3034307\Polar=80.6439697,0.3798902,80.393482,0.
 4517051,-0.3289515,40.3874838\Quadrupole=7.3109487,-6.2432835,-1.06766
 52,-7.7290237,3.0649847,-2.0786679\PG=C01 [X(C3H5N3O3)]\NImag=0\\0.697
 80584,0.01328916,0.45429850,0.00399518,-0.00645695,0.11841848,-0.13167
 198,0.11115230,-0.00296071,0.79401170,0.03670725,-0.21823312,0.0039327
 3,0.05228408,0.68029673,-0.00135735,0.00362084,-0.07006105,0.00516143,
 -0.00664213,0.11281318,-0.06507726,0.06356868,-0.00213897,-0.31364530,
 0.04268208,-0.00286613,0.62843879,0.01339672,-0.06471480,0.00167542,0.
 05293763,-0.12718216,0.00109047,-0.08049229,0.94131476,-0.00081629,0.0
 0237600,0.01737707,-0.00301041,0.00099934,-0.06392135,0.00595436,-0.01
 573854,0.13126681,-0.12179185,-0.02155439,-0.00088401,-0.05778590,-0.0
 0437747,-0.00070020,-0.17424676,-0.13264234,0.00169738,0.88530400,0.06
 032659,0.01664369,0.00084357,-0.11024586,-0.01169349,-0.00023172,-0.09
 059019,-0.35139129,0.00432067,0.14694439,0.64193621,-0.00251601,-0.000
 06498,0.02403107,0.00186703,0.00051512,0.00880717,0.00074113,0.0042481
 4,-0.06904985,0.00413862,-0.00868658,0.13516684,-0.36021967,-0.1544347
 9,0.00085167,-0.06999628,-0.10030403,0.00154868,0.04602549,0.07764760,
 -0.00161088,-0.19052805,0.07962966,-0.00286797,0.58007321,-0.09514409,
 -0.16247716,0.00058339,-0.03843301,-0.12079052,0.00260277,-0.01309976,
 -0.07068357,0.00177219,0.08801812,-0.21542073,0.00378842,0.06179097,0.
 56693569,-0.00048246,0.00023991,-0.09393220,0.00004220,0.00177204,0.02
 756567,0.00054036,0.00250791,0.01856248,-0.00288536,0.00355697,-0.0722
 8423,0.00290668,-0.00863650,0.11539219,-0.00677298,0.00040949,-0.00012
 064,-0.00691533,0.03229824,-0.00066766,-0.09406988,0.09860070,-0.00232
 062,0.01366342,-0.00969372,0.00027678,-0.00053030,-0.00628300,0.000073
 77,0.09372935,-0.00360302,0.00126868,0.00004908,-0.00063545,0.00252722
 ,-0.00010115,0.11132965,-0.33901154,0.00671985,0.01042203,-0.00433291,
 0.00017767,0.00061810,-0.00318054,0.00017756,-0.11685883,0.34417114,-0
 .00007425,0.00012248,0.00617570,0.00005855,0.00015828,-0.00201112,-0.0
 0263160,0.00650542,-0.03154434,-0.00012117,0.00006394,0.00094629,-0.00
 005456,0.00013187,0.00653850,0.00269731,-0.00695026,0.02386944,-0.0019
 9920,0.00267194,-0.00013235,0.00055367,0.00105645,-0.00010042,0.000444
 21,0.00236651,-0.00004078,-0.34682267,-0.08513166,-0.00127572,-0.01570
 452,-0.00729008,0.00004896,-0.00038207,-0.00038003,0.00002592,0.363795
 04,0.00717008,-0.00266964,0.00024960,-0.00246271,-0.00678334,0.0002083
 7,-0.02329200,0.00329906,-0.00028003,-0.09074265,-0.08372053,0.0001882
 1,0.02279062,0.01234619,-0.00014814,0.00050330,-0.00010375,-0.00003688
 ,0.08698635,0.07647611,-0.00025219,0.00017559,0.00805640,-0.00003289,0
 .00033570,0.00680222,0.00048128,-0.00002142,-0.00027499,-0.00122779,0.
 00024275,-0.03122783,-0.00045231,-0.00046687,-0.00673897,0.00000813,-0
 .00003605,-0.00223390,0.00147801,-0.00020282,0.02451693,-0.00766043,0.
 00031670,-0.00039929,0.00098903,-0.00059329,-0.00007788,0.00286135,-0.
 00151743,0.00008842,0.00082239,-0.00254947,0.00013076,-0.00288177,-0.0
 0079283,-0.00007086,0.00032726,0.00017622,0.00003309,0.00013929,-0.000
 16350,0.00001711,0.41525475,-0.00058265,-0.00153934,-0.00004983,0.0005
 0677,-0.00137589,0.00002240,-0.00123093,0.00009021,-0.00000189,-0.0015
 2709,0.00103927,-0.00007104,-0.00038812,0.00114090,0.00005081,-0.00010
 138,-0.00008214,0.00001099,-0.00015153,0.00017377,-0.00000317,0.200904
 43,0.13670259,0.00065902,-0.00021023,-0.00364935,-0.00023187,-0.000181
 58,-0.00049543,0.00005216,0.00002091,0.00033470,-0.00010451,-0.0000254
 7,0.00045531,-0.00028315,0.00004857,-0.00055515,-0.00000255,0.00000201
 ,0.00022346,-0.00001132,0.00001290,0.00011880,-0.05383962,-0.05051553,
 0.03899655,0.01124001,-0.03141154,0.00107645,-0.16259956,-0.02209325,-
 0.00077600,-0.03628695,-0.02518849,0.00014184,-0.00977440,0.01560536,-
 0.00049266,0.02327081,0.01957175,-0.00038134,-0.00096991,0.00037555,-0
 .00000882,-0.00004009,-0.00016539,-0.00002350,0.00791729,0.00060035,0.
 00083640,0.70308914,-0.02344485,-0.03886770,0.00015520,-0.01865977,-0.
 11710753,-0.00001145,-0.02090591,0.01382905,-0.00041684,0.00703222,0.0
 1273396,-0.00022745,0.02107916,-0.00126984,0.00038083,0.00423141,0.000
 60671,0.00005825,0.00011431,0.00157552,-0.00002757,0.00285669,-0.00259
 749,-0.00023597,-0.25794758,1.02833620,0.00119134,0.00009801,-0.015677
 14,-0.00131509,0.00001879,-0.05200099,-0.00005529,-0.00032981,-0.00649
 562,-0.00004042,-0.00009122,0.00285702,-0.00027172,0.00052264,0.008122
 69,0.00005454,-0.00000914,-0.00109300,-0.00000708,0.00003625,0.0017843
 2,-0.00002639,0.00000063,0.00056290,-0.00612790,0.01506502,0.21249984,
 -0.00278217,0.00234806,-0.00033577,0.01567212,-0.03276697,-0.00025655,
 -0.00219031,-0.00056333,-0.00015069,0.00280153,0.00027126,-0.00003303,
 -0.00110861,-0.00569245,0.00023674,0.00106064,-0.00174867,0.00007089,0
 .00002134,-0.00002629,0.00000298,-0.00199381,-0.00011141,-0.00020657,-
 0.15141327,0.17683353,0.00321843,0.17680367,-0.01068070,0.01333996,-0.
 00067523,-0.01668076,-0.09173592,-0.00071751,0.01068881,-0.00070346,0.
 00002557,0.00089525,-0.00527780,0.00013127,-0.00877149,-0.00731173,0.0
 0023658,-0.00215177,-0.00158125,-0.00002964,-0.00019079,-0.00015794,0.
 00000222,-0.00064280,0.00095280,0.00019038,0.18321583,-0.74004558,-0.0
 1207768,-0.21692177,0.87159193,-0.00043816,0.00011504,0.00533522,0.000
 20881,-0.00110986,0.01864896,-0.00011557,0.00001089,0.00057039,0.00002
 412,0.00011216,0.00053631,0.00010550,-0.00026930,-0.00240132,0.0000247
 0,-0.00002116,-0.00076469,-0.00000245,-0.00000459,-0.00013283,0.000019
 38,0.00001061,-0.00011076,0.00303866,-0.01167170,-0.08438692,-0.004534
 60,0.01434970,0.03748886,0.00173108,0.01070414,-0.00023052,-0.06720065
 ,-0.00631276,0.00014727,0.01000192,-0.00640129,0.00023962,-0.00134208,
 -0.00612447,0.00007976,-0.00937049,-0.00384569,0.00000813,0.00106361,0
 .00032962,0.00005139,0.00008789,-0.00082186,0.00001507,-0.00617075,0.0
 0151272,-0.00044582,-0.36893923,0.07261305,0.00138979,-0.03446189,0.06
 024637,0.00167907,0.51470318,-0.00193566,-0.00318454,0.00005844,-0.021
 75453,0.01396358,0.00010389,-0.00295192,-0.00357780,0.00009046,-0.0033
 8093,0.00243431,-0.00011133,0.00289259,0.00336737,-0.00003683,-0.00132
 293,-0.00040600,-0.00004270,-0.00016582,-0.00009276,-0.00000470,0.0048
 2850,0.00012044,0.00071662,0.09844954,-0.15296066,-0.00372316,0.085609
 15,-0.04664244,-0.00117167,-0.18259826,0.58545484,0.00000004,0.0001458
 8,0.00080738,0.00013551,-0.00008872,0.01366030,0.00004927,0.00015548,0
 .00377880,0.00008102,-0.00008804,-0.00037229,-0.00003877,-0.00002128,0
 .00029636,-0.00002230,-0.00000934,-0.00000809,0.00001458,-0.00001126,-
 0.00076275,0.00007054,-0.00048109,-0.00077006,0.00365368,-0.00426773,-
 0.05631912,0.00226373,-0.00126736,0.01832083,-0.00783662,0.02807229,0.
 03288789,-0.00280334,0.00043796,0.00017809,-0.00020337,0.00166549,-0.0
 0012084,-0.00046060,0.00112152,-0.00008795,0.00116644,0.00019174,0.000
 09067,0.00152741,-0.00038914,-0.00019789,-0.00003654,0.00009980,-0.000
 00978,0.00010066,-0.00000779,0.00001923,0.00683223,-0.00807763,-0.0000
 8037,-0.01689086,0.03874655,0.00198152,-0.00166741,-0.00107030,0.00001
 023,-0.04073896,0.00811468,0.00015834,0.06528815,0.00039261,0.00637336
 ,-0.00024671,-0.01091370,-0.00401014,0.00004958,0.00593009,-0.00200110
 ,0.00014129,0.00048855,-0.00419754,0.00012059,-0.00534598,-0.00301011,
 -0.00004581,0.00063812,0.00018221,0.00001989,0.00007891,-0.00036443,0.
 00000793,-0.00797634,-0.00608709,-0.00177068,0.04099075,-0.00255679,0.
 00068538,-0.01445252,0.01252515,-0.00024689,0.03293741,-0.35468996,-0.
 01978179,-0.02980983,0.33019081,0.00011759,-0.00013091,-0.00069254,-0.
 00030421,-0.00000012,0.00016623,-0.00000237,-0.00012591,-0.00040826,-0
 .00012663,-0.00000157,0.00046055,-0.00014545,0.00000367,-0.00093573,0.
 00000626,-0.00000346,0.00003317,-0.00001560,0.00000099,0.00019318,0.00
 019710,0.00200758,0.00249481,0.00111383,0.00082172,-0.01006159,-0.0008
 8516,0.00043611,0.00711952,0.00278397,-0.02178145,-0.01711289,-0.00030
 930,0.01953828,0.03149302,-0.00879935,0.00207149,0.00037334,-0.0009605
 4,-0.00046600,0.00001442,-0.00180303,0.00068044,-0.00003838,-0.0013558
 2,0.00147412,-0.00007696,-0.00022604,0.00144319,0.00005283,-0.00013369
 ,-0.00014263,-0.00000574,-0.00018357,0.00021359,-0.00001289,-0.3980072
 9,-0.21197523,0.08139928,0.00297456,-0.00335678,0.00004292,-0.00121074
 ,0.00275092,-0.00002606,-0.00083798,0.01709106,0.00164808,-0.01042808,
 -0.01763692,-0.00244142,0.69185449,0.00421503,-0.00120140,-0.00019991,
 0.00324337,0.00232075,-0.00003199,-0.00156913,0.00067258,-0.00001113,0
 .00049788,0.00112502,-0.00003214,0.00255257,0.00043212,0.00001297,-0.0
 0025418,-0.00004571,-0.00000606,0.00004463,0.00001546,-0.00000875,-0.1
 7937473,-0.13619269,0.06660828,-0.02183284,-0.00115002,-0.00008727,0.0
 0702656,-0.00488504,-0.00019018,0.02724845,-0.03953678,-0.00061541,-0.
 01309479,0.02093952,-0.00680729,0.06622765,0.27002679,-0.00120176,0.00
 006295,0.00393500,0.00023107,0.00034061,0.00002908,-0.00011428,0.00007
 856,-0.00021900,0.00003486,0.00002667,-0.00034579,0.00016662,0.0000518
 6,0.00047590,-0.00002375,0.00000272,-0.00015608,-0.00000204,0.00000199
 ,-0.00011766,0.04467922,0.04978280,-0.04072316,-0.00162212,0.00024679,
 0.00009094,0.00040861,-0.00036934,-0.00016323,0.00162008,0.00104514,0.
 00609834,-0.00173613,-0.00323780,-0.01354934,0.15766415,-0.19396116,0.
 26109209,-0.00119872,0.00043080,0.00072753,-0.00024763,0.00022018,0.00
 005122,0.00000833,0.00005405,-0.00004562,-0.00011025,-0.00010776,-0.00
 006240,-0.00033119,0.00014602,0.00010824,-0.00003358,0.00001767,-0.000
 03122,-0.00001000,0.00001824,-0.00002023,-0.01842954,0.02062171,-0.027
 74109,-0.00157754,0.00080797,-0.00003464,0.00046892,-0.00068681,0.0000
 0637,0.00147436,-0.00287547,-0.00017709,-0.00168574,0.00467886,0.00001
 140,-0.27088292,0.10506952,-0.20010453,0.29255550,-0.00010648,0.000963
 52,0.00008119,-0.00033836,-0.00019618,0.00003763,-0.00006717,0.0000600
 5,0.00000304,-0.00007355,0.00012184,0.00002410,0.00024313,-0.00007804,
 -0.00006831,-0.00001544,-0.00001211,-0.00000557,-0.00000919,0.00000627
 ,0.00000716,-0.01547215,0.00765468,-0.01466020,-0.00017004,-0.00052583
 ,-0.00010845,0.00019484,-0.00006867,0.00008695,0.00051256,-0.00424960,
 -0.00174163,0.00207173,0.00670612,0.00604234,0.14162509,-0.11252061,0.
 14592821,-0.12839500,0.10213856,0.00117529,-0.00009363,-0.00012405,0.0
 0015058,-0.00005020,-0.00000286,0.00010566,-0.00007753,0.00002317,0.00
 011410,-0.00004215,0.00001943,0.00014567,-0.00011145,-0.00010620,0.000
 01602,0.00000166,0.00002465,0.00002029,-0.00001460,0.00001710,0.009178
 42,-0.00076328,0.00311740,-0.00042852,0.00013091,0.00011666,0.00020099
 ,-0.00023506,-0.00006035,0.00049882,-0.00321499,-0.00050470,0.00010417
 ,0.00476673,0.00079987,-0.23859356,0.13533004,-0.21644709,0.22731208,-
 0.13562646,0.21312697\\-0.00001395,-0.00000828,0.00000264,0.00000785,0
 .00001484,-0.00000646,0.00000403,-0.00000015,0.00000190,-0.00000098,0.
 00000222,0.00000223,0.00000371,-0.00000107,-0.00000164,0.00000032,0.00
 000051,0.00000107,-0.00000022,0.00000137,0.00000003,-0.00000065,0.0000
 0119,-0.00000225,-0.00000623,-0.00000712,0.00000251,0.00000200,0.00000
 513,0.00000533,0.00000581,0.00000499,-0.00000576,-0.00000813,-0.000010
 30,0.00000416,0.00000604,0.00000114,-0.00000155,0.00000040,-0.00000448
 ,-0.00000222\\\@
 The archive entry for this job was punched.


 I take a simple view of life: keep your eyes open and get on with it.
 -- Laurence Olivier
 Job cpu time:       0 days  0 hours 33 minutes 21.3 seconds.
 Elapsed time:       0 days  0 hours  0 minutes 43.1 seconds.
 File lengths (MBytes):  RWF=     66 Int=      0 D2E=      0 Chk=      4 Scr=      1
 Normal termination of Gaussian 16 at Thu Dec  7 07:55:58 2023.
