 Entering Gaussian System, Link 0=/opt/soft/g16b/g16/g16
 Initial command:
 /opt/soft/g16b/g16/l1.exe "/scratch/gongke2021/TS/Gau-428.inp" -scrdir="/scratch/gongke2021/TS/"
 Entering Link 1 = /opt/soft/g16b/g16/l1.exe PID=       429.
  
 Copyright (c) 1988,1990,1992,1993,1995,1998,2003,2009,2016,
            Gaussian, Inc.  All Rights Reserved.
  
 This is part of the Gaussian(R) 16 program.  It is based on
 the Gaussian(R) 09 system (copyright 2009, Gaussian, Inc.),
 the Gaussian(R) 03 system (copyright 2003, Gaussian, Inc.),
 the Gaussian(R) 98 system (copyright 1998, Gaussian, Inc.),
 the Gaussian(R) 94 system (copyright 1995, Gaussian, Inc.),
 the Gaussian 92(TM) system (copyright 1992, Gaussian, Inc.),
 the Gaussian 90(TM) system (copyright 1990, Gaussian, Inc.),
 the Gaussian 88(TM) system (copyright 1988, Gaussian, Inc.),
 the Gaussian 86(TM) system (copyright 1986, Carnegie Mellon
 University), and the Gaussian 82(TM) system (copyright 1983,
 Carnegie Mellon University). Gaussian is a federally registered
 trademark of Gaussian, Inc.
  
 This software contains proprietary and confidential information,
 including trade secrets, belonging to Gaussian, Inc.
  
 This software is provided under written license and may be
 used, copied, transmitted, or stored only in accord with that
 written license.
  
 The following legend is applicable only to US Government
 contracts under FAR:
  
                    RESTRICTED RIGHTS LEGEND
  
 Use, reproduction and disclosure by the US Government is
 subject to restrictions as set forth in subparagraphs (a)
 and (c) of the Commercial Computer Software - Restricted
 Rights clause in FAR 52.227-19.
  
 Gaussian, Inc.
 340 Quinnipiac St., Bldg. 40, Wallingford CT 06492
  
  
 ---------------------------------------------------------------
 Warning -- This program may not be used in any manner that
 competes with the business of Gaussian, Inc. or will provide
 assistance to any competitor of Gaussian, Inc.  The licensee
 of this program is prohibited from giving any competitor of
 Gaussian, Inc. access to this program.  By using this program,
 the user acknowledges that Gaussian, Inc. is engaged in the
 business of creating and licensing software in the field of
 computational chemistry and represents and warrants to the
 licensee that it is not a competitor of Gaussian, Inc. and that
 it will not use this program in any manner prohibited above.
 ---------------------------------------------------------------
  

 Cite this work as:
 Gaussian 16, Revision A.03,
 M. J. Frisch, G. W. Trucks, H. B. Schlegel, G. E. Scuseria, 
 M. A. Robb, J. R. Cheeseman, G. Scalmani, V. Barone, 
 G. A. Petersson, H. Nakatsuji, X. Li, M. Caricato, A. V. Marenich, 
 J. Bloino, B. G. Janesko, R. Gomperts, B. Mennucci, H. P. Hratchian, 
 J. V. Ortiz, A. F. Izmaylov, J. L. Sonnenberg, D. Williams-Young, 
 F. Ding, F. Lipparini, F. Egidi, J. Goings, B. Peng, A. Petrone, 
 T. Henderson, D. Ranasinghe, V. G. Zakrzewski, J. Gao, N. Rega, 
 G. Zheng, W. Liang, M. Hada, M. Ehara, K. Toyota, R. Fukuda, 
 J. Hasegawa, M. Ishida, T. Nakajima, Y. Honda, O. Kitao, H. Nakai, 
 T. Vreven, K. Throssell, J. A. Montgomery, Jr., J. E. Peralta, 
 F. Ogliaro, M. J. Bearpark, J. J. Heyd, E. N. Brothers, K. N. Kudin, 
 V. N. Staroverov, T. A. Keith, R. Kobayashi, J. Normand, 
 K. Raghavachari, A. P. Rendell, J. C. Burant, S. S. Iyengar, 
 J. Tomasi, M. Cossi, J. M. Millam, M. Klene, C. Adamo, R. Cammi, 
 J. W. Ochterski, R. L. Martin, K. Morokuma, O. Farkas, 
 J. B. Foresman, and D. J. Fox, Gaussian, Inc., Wallingford CT, 2016.
 
 ******************************************
 Gaussian 16:  ES64L-G16RevA.03 25-Dec-2016
                 4-Jun-2023 
 ******************************************
 %mem=10GB
 %nprocshared=20
 Will use up to   20 processors via shared memory.
 ----------------------------------------------------------------------
 # opt=(calcfc,ts,noeigentest) freq 6-31+g(d,p) integral=grid=ultrafine
  m062x
 ----------------------------------------------------------------------
 1/5=1,10=4,11=1,18=20,26=4,38=1/1,3;
 2/9=110,12=2,17=6,18=5,40=1/2;
 3/5=1,6=6,7=111,11=2,25=1,30=1,71=2,74=-55,75=-5,140=1/1,2,3;
 4//1;
 5/5=2,38=5/2;
 8/6=4,10=90,11=11/1;
 11/6=1,8=1,9=11,15=111,16=1/1,2,10;
 10/6=1,13=1/2;
 6/7=2,8=2,9=2,10=2,28=1/1;
 7/10=1,18=20,25=1/1,2,3,16;
 1/5=1,10=4,11=1,18=20,26=4/3(2);
 2/9=110/2;
 99//99;
 2/9=110/2;
 3/5=1,6=6,7=111,11=2,25=1,30=1,71=1,74=-55,75=-5/1,2,3;
 4/5=5,16=3,69=1/1;
 5/5=2,38=5/2;
 7//1,2,3,16;
 1/5=1,11=1,18=20,26=4/3(-5);
 2/9=110/2;
 6/7=2,8=2,9=2,10=2,19=2,28=1/1;
 99/9=1/99;
 ----
 test
 ----
 Symbolic Z-matrix:
 Charge = -1 Multiplicity = 2
 N                     0.28114  -0.98439  -0.06939 
 N                     0.81991   0.31213  -0.17903 
 C                     2.17316   0.18956   0.02684 
 C                     2.43302  -1.16162   0.07664 
 N                     1.31786  -1.90392  -0.0596 
 H                     2.79      1.06859   0.10327 
 H                     3.39328  -1.64541   0.19186 
 H                    -1.06534  -1.16845  -0.75773 
 C                     0.01173   1.51959  -0.05383 
 O                     0.66389   2.55918   0.04658 
 O                    -1.22953   1.30639  -0.09942 
 H                    -2.59234  -0.91543   0.12922 
 O                    -2.45288  -0.85342  -1.36846 
 H                    -2.12344   0.04956  -1.19307 
 H                    -1.73933   0.38578   0.77908 
 O                    -2.24432  -0.69308   1.58472 
 H                    -1.39297  -1.14898   1.52192 
 
 Add virtual bond connecting atoms H15        and O11        Dist= 2.59D+00.
 Add virtual bond connecting atoms O16        and H15        Dist= 2.72D+00.
 Add virtual bond connecting atoms O13        and H12        Dist= 2.84D+00.
 Add virtual bond connecting atoms O16        and H12        Dist= 2.86D+00.
 Add virtual bond connecting atoms H8         and N1         Dist= 2.88D+00.
 Add virtual bond connecting atoms H8         and O13        Dist= 2.93D+00.
 Add virtual bond connecting atoms H8         and H14        Dist= 3.16D+00.

 GradGradGradGradGradGradGradGradGradGradGradGradGradGradGradGradGradGrad
 Berny optimization.
 Initialization pass.
                           ----------------------------
                           !    Initial Parameters    !
                           ! (Angstroms and Degrees)  !
 --------------------------                            --------------------------
 ! Name  Definition              Value          Derivative Info.                !
 --------------------------------------------------------------------------------
 ! R1    R(1,2)                  1.4083         calculate D2E/DX2 analytically  !
 ! R2    R(1,5)                  1.3858         calculate D2E/DX2 analytically  !
 ! R3    R(1,8)                  1.5234         calculate D2E/DX2 analytically  !
 ! R4    R(2,3)                  1.3743         calculate D2E/DX2 analytically  !
 ! R5    R(2,9)                  1.4584         calculate D2E/DX2 analytically  !
 ! R6    R(3,4)                  1.3768         calculate D2E/DX2 analytically  !
 ! R7    R(3,6)                  1.0766         calculate D2E/DX2 analytically  !
 ! R8    R(4,5)                  1.3465         calculate D2E/DX2 analytically  !
 ! R9    R(4,7)                  1.0814         calculate D2E/DX2 analytically  !
 ! R10   R(8,13)                 1.5484         calculate D2E/DX2 analytically  !
 ! R11   R(8,14)                 1.6711         calculate D2E/DX2 analytically  !
 ! R12   R(9,10)                 1.2313         calculate D2E/DX2 analytically  !
 ! R13   R(9,11)                 1.2603         calculate D2E/DX2 analytically  !
 ! R14   R(11,15)                1.3708         calculate D2E/DX2 analytically  !
 ! R15   R(12,13)                1.5054         calculate D2E/DX2 analytically  !
 ! R16   R(12,16)                1.5129         calculate D2E/DX2 analytically  !
 ! R17   R(13,14)                0.9771         calculate D2E/DX2 analytically  !
 ! R18   R(15,16)                1.4381         calculate D2E/DX2 analytically  !
 ! R19   R(16,17)                0.9678         calculate D2E/DX2 analytically  !
 ! A1    A(2,1,5)              108.9793         calculate D2E/DX2 analytically  !
 ! A2    A(2,1,8)              114.469          calculate D2E/DX2 analytically  !
 ! A3    A(5,1,8)              125.7503         calculate D2E/DX2 analytically  !
 ! A4    A(1,2,3)              106.4357         calculate D2E/DX2 analytically  !
 ! A5    A(1,2,9)              122.9262         calculate D2E/DX2 analytically  !
 ! A6    A(3,2,9)              127.3492         calculate D2E/DX2 analytically  !
 ! A7    A(2,3,4)              106.1876         calculate D2E/DX2 analytically  !
 ! A8    A(2,3,6)              120.1321         calculate D2E/DX2 analytically  !
 ! A9    A(4,3,6)              133.6764         calculate D2E/DX2 analytically  !
 ! A10   A(3,4,5)              112.3979         calculate D2E/DX2 analytically  !
 ! A11   A(3,4,7)              127.6236         calculate D2E/DX2 analytically  !
 ! A12   A(5,4,7)              119.9708         calculate D2E/DX2 analytically  !
 ! A13   A(1,5,4)              104.7431         calculate D2E/DX2 analytically  !
 ! A14   A(1,8,13)             161.0314         calculate D2E/DX2 analytically  !
 ! A15   A(1,8,14)             126.1066         calculate D2E/DX2 analytically  !
 ! A16   A(2,9,10)             114.3633         calculate D2E/DX2 analytically  !
 ! A17   A(2,9,11)             113.7435         calculate D2E/DX2 analytically  !
 ! A18   A(10,9,11)            131.8701         calculate D2E/DX2 analytically  !
 ! A19   A(9,11,15)            117.175          calculate D2E/DX2 analytically  !
 ! A20   A(13,12,16)           158.389          calculate D2E/DX2 analytically  !
 ! A21   A(8,13,12)             71.4718         calculate D2E/DX2 analytically  !
 ! A22   A(12,13,14)            83.7261         calculate D2E/DX2 analytically  !
 ! A23   A(12,16,15)            69.6402         calculate D2E/DX2 analytically  !
 ! A24   A(12,16,17)            94.054          calculate D2E/DX2 analytically  !
 ! A25   A(15,16,17)            90.4666         calculate D2E/DX2 analytically  !
 ! A26   L(11,15,16,1,-1)      175.1386         calculate D2E/DX2 analytically  !
 ! A27   L(11,15,16,1,-2)      184.438          calculate D2E/DX2 analytically  !
 ! D1    D(5,1,2,3)            -11.4617         calculate D2E/DX2 analytically  !
 ! D2    D(5,1,2,9)           -172.2993         calculate D2E/DX2 analytically  !
 ! D3    D(8,1,2,3)           -158.1107         calculate D2E/DX2 analytically  !
 ! D4    D(8,1,2,9)             41.0517         calculate D2E/DX2 analytically  !
 ! D5    D(2,1,5,4)             10.4813         calculate D2E/DX2 analytically  !
 ! D6    D(8,1,5,4)            152.4153         calculate D2E/DX2 analytically  !
 ! D7    D(2,1,8,13)           -25.5603         calculate D2E/DX2 analytically  !
 ! D8    D(2,1,8,14)           -19.5073         calculate D2E/DX2 analytically  !
 ! D9    D(5,1,8,13)          -165.7249         calculate D2E/DX2 analytically  !
 ! D10   D(5,1,8,14)          -159.6719         calculate D2E/DX2 analytically  !
 ! D11   D(1,2,3,4)              7.6222         calculate D2E/DX2 analytically  !
 ! D12   D(1,2,3,6)           -172.9975         calculate D2E/DX2 analytically  !
 ! D13   D(9,2,3,4)            167.3434         calculate D2E/DX2 analytically  !
 ! D14   D(9,2,3,6)            -13.2763         calculate D2E/DX2 analytically  !
 ! D15   D(1,2,9,10)           168.5234         calculate D2E/DX2 analytically  !
 ! D16   D(1,2,9,11)           -13.0125         calculate D2E/DX2 analytically  !
 ! D17   D(3,2,9,10)            11.8544         calculate D2E/DX2 analytically  !
 ! D18   D(3,2,9,11)          -169.6815         calculate D2E/DX2 analytically  !
 ! D19   D(2,3,4,5)             -1.2241         calculate D2E/DX2 analytically  !
 ! D20   D(2,3,4,7)            177.7555         calculate D2E/DX2 analytically  !
 ! D21   D(6,3,4,5)            179.5169         calculate D2E/DX2 analytically  !
 ! D22   D(6,3,4,7)             -1.5035         calculate D2E/DX2 analytically  !
 ! D23   D(3,4,5,1)             -5.7719         calculate D2E/DX2 analytically  !
 ! D24   D(7,4,5,1)            175.1611         calculate D2E/DX2 analytically  !
 ! D25   D(1,8,13,12)          -78.3655         calculate D2E/DX2 analytically  !
 ! D26   D(2,9,11,15)           53.9852         calculate D2E/DX2 analytically  !
 ! D27   D(10,9,11,15)        -127.8938         calculate D2E/DX2 analytically  !
 ! D28   D(9,11,16,12)        -124.4366         calculate D2E/DX2 analytically  !
 ! D29   D(9,11,16,17)         -29.5115         calculate D2E/DX2 analytically  !
 ! D30   D(16,12,13,8)          41.8206         calculate D2E/DX2 analytically  !
 ! D31   D(16,12,13,14)        -39.0097         calculate D2E/DX2 analytically  !
 ! D32   D(13,12,16,15)         30.5664         calculate D2E/DX2 analytically  !
 ! D33   D(13,12,16,17)        -58.4255         calculate D2E/DX2 analytically  !
 --------------------------------------------------------------------------------
 Trust Radius=3.00D-01 FncErr=1.00D-07 GrdErr=1.00D-06 EigMax=2.50D+02 EigMin=1.00D-04
 Number of steps in this run=     89 maximum allowed number of steps=    102.
 Search for a saddle point of order  1.
 GradGradGradGradGradGradGradGradGradGradGradGradGradGradGradGradGradGrad

                          Input orientation:                          
 ---------------------------------------------------------------------
 Center     Atomic      Atomic             Coordinates (Angstroms)
 Number     Number       Type             X           Y           Z
 ---------------------------------------------------------------------
      1          7           0        0.281139   -0.984393   -0.069386
      2          7           0        0.819910    0.312133   -0.179029
      3          6           0        2.173164    0.189561    0.026844
      4          6           0        2.433016   -1.161624    0.076635
      5          7           0        1.317864   -1.903924   -0.059598
      6          1           0        2.789995    1.068587    0.103274
      7          1           0        3.393280   -1.645407    0.191860
      8          1           0       -1.065340   -1.168453   -0.757728
      9          6           0        0.011728    1.519594   -0.053825
     10          8           0        0.663894    2.559181    0.046582
     11          8           0       -1.229530    1.306392   -0.099420
     12          1           0       -2.592337   -0.915432    0.129224
     13          8           0       -2.452883   -0.853418   -1.368464
     14          1           0       -2.123443    0.049556   -1.193071
     15          1           0       -1.739329    0.385783    0.779081
     16          8           0       -2.244325   -0.693080    1.584715
     17          1           0       -1.392968   -1.148982    1.521920
 ---------------------------------------------------------------------
                    Distance matrix (angstroms):
                    1          2          3          4          5
     1  N    0.000000
     2  N    1.408288   0.000000
     3  C    2.228719   1.374301   0.000000
     4  C    2.164095   2.199872   1.376845   0.000000
     5  N    1.385796   2.274452   2.263115   1.346526   0.000000
     6  H    3.246367   2.129120   1.076573   2.258757   3.321072
     7  H    3.192274   3.254498   2.209756   1.081402   2.106517
     8  H    1.523384   2.466008   3.598286   3.596485   2.589974
     9  C    2.518487   1.458354   2.539154   3.615050   3.664219
    10  O    3.566072   2.263728   2.809517   4.120083   4.512013
    11  O    2.744216   2.279275   3.583515   4.419993   4.098406
    12  H    2.881157   3.639419   4.893005   5.031655   4.037629
    13  O    3.029791   3.672116   4.943177   5.104440   4.127375
    14  H    2.848462   3.124189   4.468627   4.882666   4.116241
    15  H    2.584487   2.733698   3.988981   4.505149   3.910572
    16  O    3.032966   3.675702   4.766574   4.936736   4.105983
    17  H    2.315595   3.150383   4.091973   4.089885   3.227963
                    6          7          8          9         10
     6  H    0.000000
     7  H    2.781648   0.000000
     8  H    4.539745   4.583503   0.000000
     9  C    2.819017   4.638155   2.980126   0.000000
    10  O    2.597189   5.014899   4.187173   1.231318   0.000000
    11  O    4.031652   5.492571   2.566162   1.260260   2.275050
    12  H    5.736419   6.030290   1.783935   3.569876   4.762647
    13  O    5.774763   6.102416   1.548393   3.665211   4.833476
    14  H    5.182741   5.935079   1.671123   2.831581   3.950216
    15  H    4.630088   5.551058   2.287290   2.246210   3.322002
    16  O    5.535568   5.884689   2.665150   3.559567   4.626099
    17  H    4.942403   4.992361   2.303153   3.402564   4.489741
                   11         12         13         14         15
    11  O    0.000000
    12  H    2.616491   0.000000
    13  O    2.787803   1.505445   0.000000
    14  H    1.890711   1.702800   0.977065   0.000000
    15  H    1.370832   1.686149   2.580064   2.037149   0.000000
    16  O    2.804284   1.512946   2.964873   2.877884   1.438059
    17  H    2.946916   1.852737   3.092749   3.056348   1.739908
                   16         17
    16  O    0.000000
    17  H    0.967780   0.000000
 Stoichiometry    C3H7N3O4(1-,2)
 Framework group  C1[X(C3H7N3O4)]
 Deg. of freedom    45
 Full point group                 C1      NOp   1
 Largest Abelian subgroup         C1      NOp   1
 Largest concise Abelian subgroup C1      NOp   1
                         Standard orientation:                         
 ---------------------------------------------------------------------
 Center     Atomic      Atomic             Coordinates (Angstroms)
 Number     Number       Type             X           Y           Z
 ---------------------------------------------------------------------
      1          7           0        0.287384   -0.988385   -0.077977
      2          7           0        0.821380    0.310787   -0.179345
      3          6           0        2.174913    0.192044    0.026939
      4          6           0        2.439789   -1.158434    0.068807
      5          7           0        1.327541   -1.904070   -0.072847
      6          1           0        2.788380    1.072897    0.109190
      7          1           0        3.401764   -1.639303    0.181933
      8          1           0       -1.057824   -1.173332   -0.768562
      9          6           0        0.008572    1.514436   -0.047555
     10          8           0        0.656752    2.555834    0.059671
     11          8           0       -1.231839    1.296866   -0.095492
     12          1           0       -2.586495   -0.931384    0.118597
     13          8           0       -2.446031   -0.859819   -1.378571
     14          1           0       -2.120125    0.043309   -1.197459
     15          1           0       -1.738911    0.369075    0.777011
     16          8           0       -2.240526   -0.716510    1.575697
     17          1           0       -1.387414   -1.168834    1.510882
 ---------------------------------------------------------------------
 Rotational constants (GHZ):           1.4655053           1.0452025           0.7472256
 Standard basis: 6-31+G(d,p) (6D, 7F)
 There are   225 symmetry adapted cartesian basis functions of A   symmetry.
 There are   225 symmetry adapted basis functions of A   symmetry.
   225 basis functions,   369 primitive gaussians,   225 cartesian basis functions
    40 alpha electrons       39 beta electrons
       nuclear repulsion energy       559.0601496120 Hartrees.
 NAtoms=   17 NActive=   17 NUniq=   17 SFac= 1.00D+00 NAtFMM=   60 NAOKFM=F Big=F
 Integral buffers will be    131072 words long.
 Raffenetti 2 integral format.
 Two-electron integral symmetry is turned on.
 One-electron integrals computed using PRISM.
 NBasis=   225 RedAO= T EigKep=  2.75D-05  NBF=   225
 NBsUse=   225 1.00D-06 EigRej= -1.00D+00 NBFU=   225
 ExpMin= 4.38D-02 ExpMax= 5.48D+03 ExpMxC= 8.25D+02 IAcc=3 IRadAn=         5 AccDes= 0.00D+00
 Harris functional with IExCor= 1009 and IRadAn=       5 diagonalized for initial guess.
 HarFok:  IExCor= 1009 AccDes= 0.00D+00 IRadAn=         5 IDoV= 1 UseB2=F ITyADJ=14
 ICtDFT=  3500011 ScaDFX=  1.000000  1.000000  1.000000  1.000000
 FoFCou: FMM=F IPFlag=           0 FMFlag=      100000 FMFlg1=           0
         NFxFlg=           0 DoJE=T BraDBF=F KetDBF=T FulRan=T
         wScrn=  0.000000 ICntrl=       500 IOpCl=  0 I1Cent=   200000004 NGrid=           0
         NMat0=    1 NMatS0=      1 NMatT0=    0 NMatD0=    1 NMtDS0=    0 NMtDT0=    0
 Petite list used in FoFCou.
 Initial guess <Sx>= 0.0000 <Sy>= 0.0000 <Sz>= 0.5000 <S**2>= 0.7500 S= 0.5000
 Requested convergence on RMS density matrix=1.00D-08 within 128 cycles.
 Requested convergence on MAX density matrix=1.00D-06.
 Requested convergence on             energy=1.00D-06.
 No special actions if energy rises.
 SCF Done:  E(UM062X) =  -583.352225647     A.U. after   19 cycles
            NFock= 19  Conv=0.96D-08     -V/T= 2.0097
 <Sx>= 0.0000 <Sy>= 0.0000 <Sz>= 0.5000 <S**2>= 0.7638 S= 0.5069
 <L.S>= 0.000000000000E+00
 Annihilation of the first spin contaminant:
 S**2 before annihilation     0.7638,   after     0.7501
 DoSCS=F DFT=T ScalE2(SS,OS)=  1.000000  1.000000
 Range of M.O.s used for correlation:     1   225
 NBasis=   225 NAE=    40 NBE=    39 NFC=     0 NFV=     0
 NROrb=    225 NOA=    40 NOB=    39 NVA=   185 NVB=   186

 **** Warning!!: The largest alpha MO coefficient is  0.44388971D+02


 **** Warning!!: The largest beta MO coefficient is  0.50284458D+02

 Symmetrizing basis deriv contribution to polar:
 IMax=3 JMax=2 DiffMx= 0.00D+00
 G2DrvN: will do    18 centers at a time, making    1 passes.
 Calling FoFCou, ICntrl=  3107 FMM=F I1Cent=   0 AccDes= 0.00D+00.
 End of G2Drv F.D. properties file   721 does not exist.
 End of G2Drv F.D. properties file   722 does not exist.
 End of G2Drv F.D. properties file   788 does not exist.
          IDoAtm=11111111111111111
          Differentiating once with respect to nuclear coordinates.
 Keep R1 and R2 ints in memory in canonical form, NReq=667498764.
          There are    54 degrees of freedom in the 1st order CPHF.  IDoFFX=6 NUNeed=     0.
     48 vectors produced by pass  0 Test12= 2.71D-14 1.85D-09 XBig12= 3.33D-01 8.56D-02.
 AX will form    48 AO Fock derivatives at one time.
     48 vectors produced by pass  1 Test12= 2.71D-14 1.85D-09 XBig12= 3.92D-02 4.21D-02.
     48 vectors produced by pass  2 Test12= 2.71D-14 1.85D-09 XBig12= 1.51D-03 6.39D-03.
     48 vectors produced by pass  3 Test12= 2.71D-14 1.85D-09 XBig12= 3.36D-05 5.71D-04.
     48 vectors produced by pass  4 Test12= 2.71D-14 1.85D-09 XBig12= 5.52D-07 8.10D-05.
     48 vectors produced by pass  5 Test12= 2.71D-14 1.85D-09 XBig12= 6.85D-09 7.63D-06.
     48 vectors produced by pass  6 Test12= 2.71D-14 1.85D-09 XBig12= 7.43D-11 6.44D-07.
     36 vectors produced by pass  7 Test12= 2.71D-14 1.85D-09 XBig12= 6.27D-13 5.68D-08.
      8 vectors produced by pass  8 Test12= 2.71D-14 1.85D-09 XBig12= 4.61D-15 5.16D-09.
 InvSVY:  IOpt=1 It=  1 EMax= 6.11D-16
 Solved reduced A of dimension   380 with    54 vectors.
 End of Minotr F.D. properties file   721 does not exist.
 End of Minotr F.D. properties file   722 does not exist.
 End of Minotr F.D. properties file   788 does not exist.

 **********************************************************************

            Population analysis using the SCF density.

 **********************************************************************

 Orbital symmetries:
 Alpha Orbitals:
       Occupied  (A) (A) (A) (A) (A) (A) (A) (A) (A) (A) (A) (A)
                 (A) (A) (A) (A) (A) (A) (A) (A) (A) (A) (A) (A)
                 (A) (A) (A) (A) (A) (A) (A) (A) (A) (A) (A) (A)
                 (A) (A) (A) (A)
       Virtual   (A) (A) (A) (A) (A) (A) (A) (A) (A) (A) (A) (A)
                 (A) (A) (A) (A) (A) (A) (A) (A) (A) (A) (A) (A)
                 (A) (A) (A) (A) (A) (A) (A) (A) (A) (A) (A) (A)
                 (A) (A) (A) (A) (A) (A) (A) (A) (A) (A) (A) (A)
                 (A) (A) (A) (A) (A) (A) (A) (A) (A) (A) (A) (A)
                 (A) (A) (A) (A) (A) (A) (A) (A) (A) (A) (A) (A)
                 (A) (A) (A) (A) (A) (A) (A) (A) (A) (A) (A) (A)
                 (A) (A) (A) (A) (A) (A) (A) (A) (A) (A) (A) (A)
                 (A) (A) (A) (A) (A) (A) (A) (A) (A) (A) (A) (A)
                 (A) (A) (A) (A) (A) (A) (A) (A) (A) (A) (A) (A)
                 (A) (A) (A) (A) (A) (A) (A) (A) (A) (A) (A) (A)
                 (A) (A) (A) (A) (A) (A) (A) (A) (A) (A) (A) (A)
                 (A) (A) (A) (A) (A) (A) (A) (A) (A) (A) (A) (A)
                 (A) (A) (A) (A) (A) (A) (A) (A) (A) (A) (A) (A)
                 (A) (A) (A) (A) (A) (A) (A) (A) (A) (A) (A) (A)
                 (A) (A) (A) (A) (A)
 Beta  Orbitals:
       Occupied  (A) (A) (A) (A) (A) (A) (A) (A) (A) (A) (A) (A)
                 (A) (A) (A) (A) (A) (A) (A) (A) (A) (A) (A) (A)
                 (A) (A) (A) (A) (A) (A) (A) (A) (A) (A) (A) (A)
                 (A) (A) (A)
       Virtual   (A) (A) (A) (A) (A) (A) (A) (A) (A) (A) (A) (A)
                 (A) (A) (A) (A) (A) (A) (A) (A) (A) (A) (A) (A)
                 (A) (A) (A) (A) (A) (A) (A) (A) (A) (A) (A) (A)
                 (A) (A) (A) (A) (A) (A) (A) (A) (A) (A) (A) (A)
                 (A) (A) (A) (A) (A) (A) (A) (A) (A) (A) (A) (A)
                 (A) (A) (A) (A) (A) (A) (A) (A) (A) (A) (A) (A)
                 (A) (A) (A) (A) (A) (A) (A) (A) (A) (A) (A) (A)
                 (A) (A) (A) (A) (A) (A) (A) (A) (A) (A) (A) (A)
                 (A) (A) (A) (A) (A) (A) (A) (A) (A) (A) (A) (A)
                 (A) (A) (A) (A) (A) (A) (A) (A) (A) (A) (A) (A)
                 (A) (A) (A) (A) (A) (A) (A) (A) (A) (A) (A) (A)
                 (A) (A) (A) (A) (A) (A) (A) (A) (A) (A) (A) (A)
                 (A) (A) (A) (A) (A) (A) (A) (A) (A) (A) (A) (A)
                 (A) (A) (A) (A) (A) (A) (A) (A) (A) (A) (A) (A)
                 (A) (A) (A) (A) (A) (A) (A) (A) (A) (A) (A) (A)
                 (A) (A) (A) (A) (A) (A)
 The electronic state is 2-A.
 Alpha  occ. eigenvalues --  -19.53859 -19.52910 -19.52686 -19.48386 -14.69757
 Alpha  occ. eigenvalues --  -14.69448 -14.64217 -10.56961 -10.44437 -10.44341
 Alpha  occ. eigenvalues --   -1.09057  -1.02933  -0.98951  -0.97026  -0.95012
 Alpha  occ. eigenvalues --   -0.85867  -0.75676  -0.62643  -0.55512  -0.52072
 Alpha  occ. eigenvalues --   -0.50783  -0.43964  -0.41710  -0.40537  -0.40107
 Alpha  occ. eigenvalues --   -0.38624  -0.37375  -0.37047  -0.36218  -0.33343
 Alpha  occ. eigenvalues --   -0.31936  -0.26281  -0.25281  -0.24869  -0.24300
 Alpha  occ. eigenvalues --   -0.24215  -0.23107  -0.20920  -0.19921  -0.03204
 Alpha virt. eigenvalues --    0.12617   0.14075   0.15419   0.16524   0.16815
 Alpha virt. eigenvalues --    0.17149   0.17777   0.19829   0.21017   0.21475
 Alpha virt. eigenvalues --    0.21849   0.22558   0.24063   0.24867   0.25114
 Alpha virt. eigenvalues --    0.26440   0.27684   0.28787   0.29378   0.29924
 Alpha virt. eigenvalues --    0.30123   0.31014   0.33000   0.33615   0.33897
 Alpha virt. eigenvalues --    0.33995   0.35293   0.36139   0.36710   0.37396
 Alpha virt. eigenvalues --    0.37685   0.38366   0.39234   0.39830   0.40129
 Alpha virt. eigenvalues --    0.41428   0.41740   0.42302   0.43099   0.44461
 Alpha virt. eigenvalues --    0.45125   0.45743   0.47059   0.47335   0.49643
 Alpha virt. eigenvalues --    0.50323   0.52080   0.52651   0.53705   0.54706
 Alpha virt. eigenvalues --    0.58063   0.60839   0.61629   0.63218   0.63905
 Alpha virt. eigenvalues --    0.69242   0.78538   0.85985   0.87717   0.91163
 Alpha virt. eigenvalues --    0.95774   0.96026   1.00555   1.02090   1.04293
 Alpha virt. eigenvalues --    1.07284   1.08429   1.10947   1.12498   1.13893
 Alpha virt. eigenvalues --    1.14880   1.16291   1.17086   1.20011   1.21505
 Alpha virt. eigenvalues --    1.22962   1.25257   1.26603   1.28428   1.29632
 Alpha virt. eigenvalues --    1.32674   1.34407   1.35368   1.37967   1.38861
 Alpha virt. eigenvalues --    1.40404   1.42145   1.43242   1.44154   1.46486
 Alpha virt. eigenvalues --    1.47962   1.48360   1.50013   1.50418   1.54062
 Alpha virt. eigenvalues --    1.54945   1.55892   1.56271   1.57806   1.60244
 Alpha virt. eigenvalues --    1.61269   1.62743   1.64680   1.65866   1.67736
 Alpha virt. eigenvalues --    1.70999   1.72225   1.74822   1.75792   1.78607
 Alpha virt. eigenvalues --    1.80717   1.81303   1.83617   1.87105   1.91775
 Alpha virt. eigenvalues --    1.94150   1.97452   1.98147   2.00926   2.01637
 Alpha virt. eigenvalues --    2.06467   2.07186   2.08154   2.10303   2.14288
 Alpha virt. eigenvalues --    2.16651   2.17324   2.20782   2.23273   2.27270
 Alpha virt. eigenvalues --    2.28579   2.30662   2.32249   2.34646   2.37903
 Alpha virt. eigenvalues --    2.39820   2.42153   2.43006   2.44793   2.46152
 Alpha virt. eigenvalues --    2.47417   2.51309   2.53835   2.56295   2.60456
 Alpha virt. eigenvalues --    2.61508   2.66947   2.67994   2.69848   2.70609
 Alpha virt. eigenvalues --    2.72702   2.76213   2.82109   2.83805   2.86877
 Alpha virt. eigenvalues --    2.87772   2.89868   2.95616   2.98661   3.01209
 Alpha virt. eigenvalues --    3.03868   3.05554   3.10487   3.20027   3.21976
 Alpha virt. eigenvalues --    3.27218   3.33834   3.37914   3.41409   3.46163
 Alpha virt. eigenvalues --    3.49820   3.62956   3.76819   3.80795   3.86907
 Alpha virt. eigenvalues --    4.16518   4.18363   4.33638   4.39487   4.44577
 Alpha virt. eigenvalues --    4.48940   4.60738   4.71845   4.83020   4.87246
  Beta  occ. eigenvalues --  -19.53833 -19.52899 -19.52655 -19.48248 -14.69492
  Beta  occ. eigenvalues --  -14.68996 -14.63757 -10.56933 -10.44526 -10.44172
  Beta  occ. eigenvalues --   -1.08714  -1.01931  -0.98673  -0.96907  -0.94906
  Beta  occ. eigenvalues --   -0.84581  -0.74758  -0.61479  -0.54986  -0.51580
  Beta  occ. eigenvalues --   -0.50303  -0.42853  -0.41347  -0.40168  -0.39819
  Beta  occ. eigenvalues --   -0.38250  -0.37044  -0.36016  -0.35602  -0.32872
  Beta  occ. eigenvalues --   -0.31331  -0.25849  -0.24545  -0.24247  -0.23560
  Beta  occ. eigenvalues --   -0.23388  -0.20606  -0.19536  -0.16941
  Beta virt. eigenvalues --    0.11981   0.12366   0.13899   0.14660   0.16030
  Beta virt. eigenvalues --    0.16707   0.16992   0.18081   0.18962   0.20243
  Beta virt. eigenvalues --    0.21003   0.22389   0.22799   0.24166   0.24553
  Beta virt. eigenvalues --    0.25022   0.26087   0.27479   0.28202   0.29364
  Beta virt. eigenvalues --    0.29838   0.30132   0.31151   0.32795   0.33487
  Beta virt. eigenvalues --    0.33750   0.34098   0.35137   0.36397   0.36680
  Beta virt. eigenvalues --    0.37087   0.37572   0.38203   0.39233   0.39935
  Beta virt. eigenvalues --    0.40181   0.41328   0.41735   0.42176   0.42900
  Beta virt. eigenvalues --    0.44494   0.44891   0.45492   0.47059   0.47070
  Beta virt. eigenvalues --    0.49439   0.50115   0.51802   0.52645   0.53564
  Beta virt. eigenvalues --    0.54758   0.57946   0.60880   0.61747   0.63259
  Beta virt. eigenvalues --    0.64115   0.69281   0.78741   0.85991   0.87344
  Beta virt. eigenvalues --    0.92129   0.95871   0.96216   1.00632   1.02285
  Beta virt. eigenvalues --    1.04463   1.07665   1.08624   1.11780   1.12622
  Beta virt. eigenvalues --    1.14423   1.16560   1.17055   1.17532   1.20468
  Beta virt. eigenvalues --    1.22007   1.23249   1.25618   1.26689   1.28215
  Beta virt. eigenvalues --    1.29805   1.32786   1.34550   1.35441   1.38108
  Beta virt. eigenvalues --    1.38959   1.40560   1.42411   1.43370   1.44318
  Beta virt. eigenvalues --    1.46901   1.48311   1.48529   1.50165   1.50544
  Beta virt. eigenvalues --    1.54150   1.55540   1.56049   1.56533   1.57922
  Beta virt. eigenvalues --    1.60403   1.61573   1.63181   1.65233   1.66140
  Beta virt. eigenvalues --    1.68442   1.71302   1.72532   1.75289   1.75853
  Beta virt. eigenvalues --    1.78678   1.80896   1.81384   1.83776   1.87164
  Beta virt. eigenvalues --    1.92014   1.94245   1.97695   1.98320   2.01203
  Beta virt. eigenvalues --    2.01829   2.06669   2.07587   2.08304   2.10399
  Beta virt. eigenvalues --    2.14678   2.16917   2.17604   2.20926   2.23799
  Beta virt. eigenvalues --    2.27775   2.28654   2.30850   2.32660   2.34793
  Beta virt. eigenvalues --    2.38362   2.40417   2.42338   2.43388   2.45147
  Beta virt. eigenvalues --    2.46377   2.47909   2.51617   2.54115   2.56385
  Beta virt. eigenvalues --    2.60786   2.61819   2.67250   2.68151   2.70273
  Beta virt. eigenvalues --    2.70904   2.73244   2.76639   2.82373   2.83983
  Beta virt. eigenvalues --    2.87011   2.88454   2.90101   2.95938   2.99068
  Beta virt. eigenvalues --    3.01697   3.04437   3.05853   3.10899   3.20188
  Beta virt. eigenvalues --    3.22333   3.27436   3.33988   3.38084   3.41705
  Beta virt. eigenvalues --    3.46384   3.49925   3.62959   3.76864   3.80825
  Beta virt. eigenvalues --    3.87409   4.16829   4.18437   4.33662   4.39531
  Beta virt. eigenvalues --    4.44730   4.49013   4.60493   4.72450   4.83440
  Beta virt. eigenvalues --    4.87657
          Condensed to atoms (all electrons):
               1          2          3          4          5          6
     1  N   11.446479  -0.753367  -1.044308   1.130952  -3.449956   0.001223
     2  N   -0.753367   8.486928   0.135199  -0.100357  -0.304395  -0.046978
     3  C   -1.044308   0.135199   7.199129  -1.100957   0.770015   0.457409
     4  C    1.130952  -0.100357  -1.100957   6.687250  -0.771570  -0.066513
     5  N   -3.449956  -0.304395   0.770015  -0.771570  10.953956   0.000887
     6  H    0.001223  -0.046978   0.457409  -0.066513   0.000887   0.488125
     7  H   -0.001026  -0.011120   0.007792   0.357157  -0.042435   0.000513
     8  H   -0.001642   0.052601   0.035155  -0.024135   0.093650  -0.000013
     9  C    0.042690   0.051486  -0.282224   0.004280   0.154035  -0.010158
    10  O    0.010192  -0.146508  -0.060050   0.059634   0.006206  -0.003218
    11  O   -0.027889  -0.196745   0.083501  -0.007836   0.010516  -0.000762
    12  H    0.017769  -0.002152  -0.000069  -0.003869   0.030463   0.000000
    13  O   -0.067912   0.015434  -0.002294   0.006379  -0.031478   0.000016
    14  H    0.010608  -0.006688   0.003252  -0.000429   0.004240   0.000000
    15  H    0.115213  -0.086437  -0.012327   0.000627   0.027700  -0.000006
    16  O   -0.020995   0.018325  -0.012125   0.011774  -0.037790   0.000012
    17  H    0.026636  -0.023900   0.000080  -0.002261   0.035749  -0.000002
               7          8          9         10         11         12
     1  N   -0.001026  -0.001642   0.042690   0.010192  -0.027889   0.017769
     2  N   -0.011120   0.052601   0.051486  -0.146508  -0.196745  -0.002152
     3  C    0.007792   0.035155  -0.282224  -0.060050   0.083501  -0.000069
     4  C    0.357157  -0.024135   0.004280   0.059634  -0.007836  -0.003869
     5  N   -0.042435   0.093650   0.154035   0.006206   0.010516   0.030463
     6  H    0.000513  -0.000013  -0.010158  -0.003218  -0.000762   0.000000
     7  H    0.558673  -0.000014  -0.000922  -0.000137   0.000000   0.000000
     8  H   -0.000014   0.437327  -0.020039   0.000490   0.010190   0.000715
     9  C   -0.000922  -0.020039   4.679881   0.492983   0.116644  -0.005817
    10  O   -0.000137   0.000490   0.492983   8.314917  -0.097744   0.000904
    11  O    0.000000   0.010190   0.116644  -0.097744   8.758472   0.011917
    12  H    0.000000   0.000715  -0.005817   0.000904   0.011917   0.450875
    13  O    0.000013   0.079036   0.005651  -0.001312   0.003875   0.106211
    14  H   -0.000000  -0.007969  -0.007089   0.000713   0.025288  -0.009804
    15  H    0.000001  -0.010485   0.021704   0.000006   0.056188   0.003274
    16  O    0.000012   0.001354   0.017680  -0.002538  -0.049705   0.078586
    17  H    0.000000  -0.005774   0.006077   0.000186  -0.005598  -0.010216
              13         14         15         16         17
     1  N   -0.067912   0.010608   0.115213  -0.020995   0.026636
     2  N    0.015434  -0.006688  -0.086437   0.018325  -0.023900
     3  C   -0.002294   0.003252  -0.012327  -0.012125   0.000080
     4  C    0.006379  -0.000429   0.000627   0.011774  -0.002261
     5  N   -0.031478   0.004240   0.027700  -0.037790   0.035749
     6  H    0.000016   0.000000  -0.000006   0.000012  -0.000002
     7  H    0.000013  -0.000000   0.000001   0.000012   0.000000
     8  H    0.079036  -0.007969  -0.010485   0.001354  -0.005774
     9  C    0.005651  -0.007089   0.021704   0.017680   0.006077
    10  O   -0.001312   0.000713   0.000006  -0.002538   0.000186
    11  O    0.003875   0.025288   0.056188  -0.049705  -0.005598
    12  H    0.106211  -0.009804   0.003274   0.078586  -0.010216
    13  O    8.450390   0.200502  -0.004892  -0.055087  -0.000626
    14  H    0.200502   0.356568  -0.002487  -0.000905   0.000342
    15  H   -0.004892  -0.002487   0.388311   0.112068  -0.011731
    16  O   -0.055087  -0.000905   0.112068   8.408653   0.238759
    17  H   -0.000626   0.000342  -0.011731   0.238759   0.324172
          Atomic-Atomic Spin Densities.
               1          2          3          4          5          6
     1  N    0.552549  -0.241674   0.182778  -0.027405  -0.208024  -0.000275
     2  N   -0.241674   0.448944  -0.257102   0.012030   0.066502   0.002770
     3  C    0.182778  -0.257102   0.385895   0.105686  -0.104897  -0.008862
     4  C   -0.027405   0.012030   0.105686  -0.244269  -0.002459   0.005859
     5  N   -0.208024   0.066502  -0.104897  -0.002459   0.614674  -0.000407
     6  H   -0.000275   0.002770  -0.008862   0.005859  -0.000407  -0.013471
     7  H    0.003714  -0.000217  -0.002268   0.004662  -0.004763   0.000023
     8  H    0.006437   0.010531  -0.001226   0.002038  -0.024200   0.000003
     9  C   -0.032850   0.085149  -0.007758  -0.005760   0.002366   0.001094
    10  O    0.006795  -0.027438   0.018694  -0.001404  -0.001139   0.000183
    11  O    0.018980  -0.027297   0.005732  -0.001351   0.002897   0.000116
    12  H    0.000935  -0.000659   0.000097   0.000009   0.000190  -0.000000
    13  O   -0.000008  -0.001832  -0.001059   0.000183   0.006625  -0.000002
    14  H   -0.000389   0.000610   0.000202  -0.000010  -0.000705   0.000000
    15  H    0.009386  -0.008409   0.002568  -0.000578   0.000569  -0.000001
    16  O   -0.033006   0.021200  -0.005738   0.000682   0.000007   0.000001
    17  H    0.013528  -0.005197   0.001447  -0.000152  -0.001069  -0.000000
               7          8          9         10         11         12
     1  N    0.003714   0.006437  -0.032850   0.006795   0.018980   0.000935
     2  N   -0.000217   0.010531   0.085149  -0.027438  -0.027297  -0.000659
     3  C   -0.002268  -0.001226  -0.007758   0.018694   0.005732   0.000097
     4  C    0.004662   0.002038  -0.005760  -0.001404  -0.001351   0.000009
     5  N   -0.004763  -0.024200   0.002366  -0.001139   0.002897   0.000190
     6  H    0.000023   0.000003   0.001094   0.000183   0.000116  -0.000000
     7  H    0.003578   0.000002  -0.000107   0.000005   0.000003   0.000000
     8  H    0.000002   0.048936  -0.001199   0.000056  -0.000366  -0.000573
     9  C   -0.000107  -0.001199   0.055103  -0.038950  -0.009249   0.000104
    10  O    0.000005   0.000056  -0.038950   0.105366   0.006505  -0.000002
    11  O    0.000003  -0.000366  -0.009249   0.006505   0.007727  -0.000052
    12  H    0.000000  -0.000573   0.000104  -0.000002  -0.000052  -0.000435
    13  O   -0.000000  -0.016188   0.001053  -0.000035  -0.000853   0.000304
    14  H    0.000000   0.001894  -0.000540   0.000035   0.001307  -0.000127
    15  H   -0.000000  -0.002041  -0.003002   0.000397   0.005990   0.000344
    16  O    0.000001   0.006990   0.002238  -0.000503  -0.004800  -0.000724
    17  H   -0.000000  -0.001683  -0.000519   0.000065   0.001213   0.000171
              13         14         15         16         17
     1  N   -0.000008  -0.000389   0.009386  -0.033006   0.013528
     2  N   -0.001832   0.000610  -0.008409   0.021200  -0.005197
     3  C   -0.001059   0.000202   0.002568  -0.005738   0.001447
     4  C    0.000183  -0.000010  -0.000578   0.000682  -0.000152
     5  N    0.006625  -0.000705   0.000569   0.000007  -0.001069
     6  H   -0.000002   0.000000  -0.000001   0.000001  -0.000000
     7  H   -0.000000   0.000000  -0.000000   0.000001  -0.000000
     8  H   -0.016188   0.001894  -0.002041   0.006990  -0.001683
     9  C    0.001053  -0.000540  -0.003002   0.002238  -0.000519
    10  O   -0.000035   0.000035   0.000397  -0.000503   0.000065
    11  O   -0.000853   0.001307   0.005990  -0.004800   0.001213
    12  H    0.000304  -0.000127   0.000344  -0.000724   0.000171
    13  O    0.021346  -0.001302   0.001065  -0.002571   0.000519
    14  H   -0.001302   0.000361  -0.000555   0.000669  -0.000073
    15  H    0.001065  -0.000555   0.005321  -0.007243   0.001058
    16  O   -0.002571   0.000669  -0.007243   0.030918  -0.005649
    17  H    0.000519  -0.000073   0.001058  -0.005649  -0.000079
 Mulliken charges and spin densities:
               1          2
     1  N   -0.434666   0.251472
     2  N   -0.081328   0.077910
     3  C   -0.177177   0.314189
     4  C   -0.180125  -0.152240
     5  N   -0.449792   0.346166
     6  H    0.179466  -0.012970
     7  H    0.131493   0.004631
     8  H    0.359554   0.029410
     9  C    0.733139   0.047174
    10  O   -0.574722   0.068630
    11  O   -0.690313   0.006502
    12  H    0.331214  -0.000417
    13  O   -0.703906   0.007247
    14  H    0.433859   0.001378
    15  H    0.403272   0.004868
    16  O   -0.708076   0.002470
    17  H    0.428108   0.003581
 Sum of Mulliken charges =  -1.00000   1.00000
 Mulliken charges and spin densities with hydrogens summed into heavy atoms:
               1          2
     1  N   -0.075112   0.280881
     2  N   -0.081328   0.077910
     3  C    0.002289   0.301220
     4  C   -0.048632  -0.147610
     5  N   -0.449792   0.346166
     9  C    0.733139   0.047174
    10  O   -0.574722   0.068630
    11  O   -0.287041   0.011370
    13  O    0.061168   0.008208
    16  O   -0.279968   0.006051
 APT charges:
               1
     1  N   -0.590722
     2  N   -0.162702
     3  C   -0.614266
     4  C   -0.416283
     5  N   -0.379669
     6  H    0.584517
     7  H    0.746078
     8  H    0.398560
     9  C    0.217463
    10  O   -0.262129
    11  O   -0.582387
    12  H    0.362792
    13  O   -0.566060
    14  H    0.225308
    15  H    0.391150
    16  O   -0.587262
    17  H    0.235611
 Sum of APT charges =  -1.00000
 APT charges with hydrogens summed into heavy atoms:
               1
     1  N   -0.192162
     2  N   -0.162702
     3  C   -0.029749
     4  C    0.329795
     5  N   -0.379669
     9  C    0.217463
    10  O   -0.262129
    11  O   -0.191237
    13  O    0.022039
    16  O   -0.351650
 Electronic spatial extent (au):  <R**2>=           1609.0313
 Charge=             -1.0000 electrons
 Dipole moment (field-independent basis, Debye):
    X=              2.7246    Y=             -0.4769    Z=              0.5370  Tot=              2.8176
 Quadrupole moment (field-independent basis, Debye-Ang):
   XX=            -79.5819   YY=            -87.6718   ZZ=            -72.3712
   XY=             -2.7733   XZ=              0.1020   YZ=             -2.7136
 Traceless Quadrupole moment (field-independent basis, Debye-Ang):
   XX=              0.2930   YY=             -7.7968   ZZ=              7.5038
   XY=             -2.7733   XZ=              0.1020   YZ=             -2.7136
 Octapole moment (field-independent basis, Debye-Ang**2):
  XXX=             34.6433  YYY=            -15.9497  ZZZ=             -1.6000  XYY=            -15.5722
  XXY=             14.8932  XXZ=              3.8804  XZZ=             12.7394  YZZ=             11.6202
  YYZ=              3.1340  XYZ=              2.4782
 Hexadecapole moment (field-independent basis, Debye-Ang**3):
 XXXX=          -1213.3891 YYYY=           -906.9143 ZZZZ=           -280.2521 XXXY=            -42.2535
 XXXZ=              1.5138 YYYX=             15.5255 YYYZ=            -11.2902 ZZZX=              5.3962
 ZZZY=             -7.7886 XXYY=           -333.3216 XXZZ=           -311.9546 YYZZ=           -169.6618
 XXYZ=            -10.2922 YYXZ=             -4.0983 ZZXY=            -17.0801
 N-N= 5.590601496120D+02 E-N=-2.497111565152D+03  KE= 5.777733111701D+02
  Exact polarizability:   0.000   0.000   0.000   0.000   0.000   0.000
 Approx polarizability: 133.778   4.275 136.602   7.099  -2.220  96.571
                          Isotropic Fermi Contact Couplings
        Atom                 a.u.       MegaHertz       Gauss      10(-4) cm-1
     1  N(14)              0.08846      28.58081      10.19834       9.53353
     2  N(14)              0.02694       8.70486       3.10611       2.90363
     3  C(13)              0.03754      42.20559      15.06001      14.07827
     4  C(13)             -0.03269     -36.75192     -13.11400     -12.25912
     5  N(14)              0.08416      27.19151       9.70261       9.07011
     6  H(1)              -0.00410     -18.32823      -6.53997      -6.11364
     7  H(1)               0.00107       4.79828       1.71215       1.60054
     8  H(1)               0.01173      52.45290      18.71650      17.49640
     9  C(13)              0.00633       7.12040       2.54074       2.37511
    10  O(17)              0.01593      -9.65879      -3.44650      -3.22183
    11  O(17)              0.00013      -0.08126      -0.02900      -0.02711
    12  H(1)              -0.00019      -0.84041      -0.29988      -0.28033
    13  O(17)              0.01387      -8.40575      -2.99938      -2.80386
    14  H(1)              -0.00018      -0.82540      -0.29452      -0.27532
    15  H(1)               0.00199       8.91286       3.18033       2.97301
    16  O(17)              0.01042      -6.31428      -2.25309      -2.10622
    17  H(1)              -0.00072      -3.24010      -1.15615      -1.08078
 --------------------------------------------------------
       Center         ----  Spin Dipole Couplings  ----
                      3XX-RR        3YY-RR        3ZZ-RR
 --------------------------------------------------------
     1   Atom       -0.297688     -0.320447      0.618135
     2   Atom       -0.215010     -0.196378      0.411388
     3   Atom       -0.112563     -0.124800      0.237363
     4   Atom        0.057445      0.055716     -0.113161
     5   Atom       -0.345250     -0.361194      0.706444
     6   Atom       -0.004697      0.007233     -0.002536
     7   Atom        0.003279      0.003020     -0.006299
     8   Atom        0.019422     -0.010624     -0.008797
     9   Atom       -0.035555     -0.012911      0.048465
    10   Atom       -0.129394     -0.124834      0.254227
    11   Atom       -0.013109     -0.021102      0.034212
    12   Atom        0.005300     -0.003490     -0.001810
    13   Atom        0.049091     -0.025634     -0.023457
    14   Atom        0.002765      0.001393     -0.004158
    15   Atom        0.005253     -0.000817     -0.004436
    16   Atom        0.029325     -0.018154     -0.011171
    17   Atom        0.007935     -0.005566     -0.002369
 --------------------------------------------------------
                        XY            XZ            YZ
 --------------------------------------------------------
     1   Atom       -0.001439     -0.184905      0.002229
     2   Atom        0.003333     -0.062317     -0.079350
     3   Atom        0.005932     -0.048523      0.001834
     4   Atom        0.008276      0.020046      0.001217
     5   Atom        0.005320     -0.144675     -0.009199
     6   Atom        0.019503     -0.000482      0.003754
     7   Atom        0.003359      0.000951      0.000477
     8   Atom        0.004331      0.008288      0.001885
     9   Atom       -0.010485      0.016268     -0.033939
    10   Atom       -0.005787      0.020996     -0.060541
    11   Atom       -0.002107      0.022582      0.000936
    12   Atom        0.000530     -0.000544      0.000163
    13   Atom       -0.005900      0.010070      0.001109
    14   Atom       -0.001358      0.003555      0.000207
    15   Atom       -0.002608     -0.003833      0.000257
    16   Atom        0.016167     -0.021972     -0.006068
    17   Atom       -0.001711     -0.009050     -0.001367
 --------------------------------------------------------


 ---------------------------------------------------------------------------------
              Anisotropic Spin Dipole Couplings in Principal Axis System
 ---------------------------------------------------------------------------------

       Atom             a.u.   MegaHertz   Gauss  10(-4) cm-1        Axes

              Baa    -0.3337   -12.869    -4.592    -4.293  0.9790  0.0744  0.1900
     1 N(14)  Bbb    -0.3204   -12.356    -4.409    -4.122 -0.0726  0.9972 -0.0167
              Bcc     0.6541    25.226     9.001     8.414 -0.1907  0.0025  0.9816
 
              Baa    -0.2224    -8.577    -3.060    -2.861  0.9556  0.2658  0.1272
     2 N(14)  Bbb    -0.2052    -7.915    -2.824    -2.640 -0.2785  0.9557  0.0948
              Bcc     0.4276    16.492     5.885     5.501 -0.0964 -0.1261  0.9873
 
              Baa    -0.1287   -17.274    -6.164    -5.762 -0.5342  0.8420 -0.0750
     3 C(13)  Bbb    -0.1152   -15.464    -5.518    -5.158  0.8345  0.5394  0.1120
              Bcc     0.2440    32.738    11.682    10.920 -0.1348  0.0028  0.9909
 
              Baa    -0.1155   -15.497    -5.530    -5.169 -0.1151 -0.0015  0.9934
     4 C(13)  Bbb     0.0491     6.594     2.353     2.200 -0.6143  0.7860 -0.0700
              Bcc     0.0663     8.903     3.177     2.970  0.7806  0.6183  0.0914
 
              Baa    -0.3674   -14.171    -5.057    -4.727  0.8292 -0.5486  0.1070
     5 N(14)  Bbb    -0.3586   -13.832    -4.935    -4.614  0.5427  0.8360  0.0809
              Bcc     0.7261    28.003     9.992     9.341 -0.1339 -0.0090  0.9910
 
              Baa    -0.0195   -10.423    -3.719    -3.477  0.7882 -0.5959  0.1539
     6 H(1)   Bbb    -0.0024    -1.299    -0.463    -0.433 -0.1901  0.0022  0.9818
              Bcc     0.0220    11.722     4.183     3.910  0.5853  0.8031  0.1115
 
              Baa    -0.0064    -3.412    -1.218    -1.138 -0.0917 -0.0177  0.9956
     7 H(1)   Bbb    -0.0002    -0.105    -0.037    -0.035 -0.6869  0.7250 -0.0504
              Bcc     0.0066     3.517     1.255     1.173  0.7209  0.6885  0.0787
 
              Baa    -0.0119    -6.326    -2.257    -2.110  0.0669  0.7580 -0.6488
     8 H(1)   Bbb    -0.0105    -5.593    -1.996    -1.866 -0.2902  0.6369  0.7142
              Bcc     0.0223    11.919     4.253     3.976  0.9546  0.1404  0.2626
 
              Baa    -0.0398    -5.346    -1.908    -1.783  0.9546  0.2910 -0.0640
     9 C(13)  Bbb    -0.0273    -3.658    -1.305    -1.220 -0.2349  0.8672  0.4391
              Bcc     0.0671     9.004     3.213     3.003  0.1833 -0.4042  0.8961
 
              Baa    -0.1355     9.806     3.499     3.271  0.4485  0.8865  0.1135
    10 O(17)  Bbb    -0.1293     9.359     3.339     3.122  0.8921 -0.4363 -0.1177
              Bcc     0.2648   -19.164    -6.838    -6.393  0.0548 -0.1541  0.9865
 
              Baa    -0.0240     1.736     0.619     0.579  0.7256  0.6233 -0.2915
    11 O(17)  Bbb    -0.0193     1.394     0.497     0.465 -0.5790  0.7820  0.2308
              Bcc     0.0433    -3.130    -1.117    -1.044  0.3718  0.0013  0.9283
 
              Baa    -0.0035    -1.891    -0.675    -0.631 -0.0665  0.9913 -0.1138
    12 H(1)   Bbb    -0.0018    -0.975    -0.348    -0.325  0.0668  0.1183  0.9907
              Bcc     0.0054     2.866     1.023     0.956  0.9955  0.0582 -0.0741
 
              Baa    -0.0274     1.985     0.708     0.662  0.1378  0.8069 -0.5744
    13 O(17)  Bbb    -0.0235     1.697     0.606     0.566 -0.0645  0.5860  0.8077
              Bcc     0.0509    -3.682    -1.314    -1.228  0.9884 -0.0743  0.1328
 
              Baa    -0.0057    -3.059    -1.091    -1.020 -0.3978 -0.1023  0.9118
    14 H(1)   Bbb     0.0010     0.557     0.199     0.186  0.2741  0.9351  0.2246
              Bcc     0.0047     2.501     0.892     0.834  0.8756 -0.3392  0.3439
 
              Baa    -0.0059    -3.123    -1.114    -1.042  0.3514  0.1347  0.9265
    15 H(1)   Bbb    -0.0015    -0.815    -0.291    -0.272  0.2354  0.9451 -0.2267
              Bcc     0.0074     3.938     1.405     1.314  0.9061 -0.2977 -0.3004
 
              Baa    -0.0233     1.685     0.601     0.562 -0.3667  0.9060 -0.2113
    16 O(17)  Bbb    -0.0205     1.482     0.529     0.494  0.2904  0.3273  0.8992
              Bcc     0.0438    -3.166    -1.130    -1.056  0.8838  0.2684 -0.3832
 
              Baa    -0.0089    -4.745    -1.693    -1.583  0.4437  0.5260  0.7256
    17 H(1)   Bbb    -0.0043    -2.314    -0.826    -0.772 -0.2314  0.8494 -0.4743
              Bcc     0.0132     7.059     2.519     2.355  0.8658 -0.0426 -0.4986
 

 ---------------------------------------------------------------------------------

 Calling FoFJK, ICntrl=    100147 FMM=F ISym2X=0 I1Cent= 0 IOpClX= 1 NMat=1 NMatS=1 NMatT=0.
 ***** Axes restored to original set *****
 -------------------------------------------------------------------
 Center     Atomic                   Forces (Hartrees/Bohr)
 Number     Number              X              Y              Z
 -------------------------------------------------------------------
      1        7          -0.051350068   -0.012499299   -0.022098860
      2        7          -0.023123232    0.004635008    0.005214579
      3        6           0.010568123    0.003730038    0.000653660
      4        6          -0.000652997    0.002266741   -0.003173585
      5        7          -0.015912377    0.011939475    0.001340581
      6        1           0.000925842   -0.000483435   -0.000830544
      7        1           0.000524155    0.000130030   -0.000441212
      8        1           0.030109039    0.007465019   -0.003255017
      9        6           0.079259458   -0.019017305    0.004549160
     10        8          -0.017014871   -0.000491616   -0.003324837
     11        8          -0.065081105   -0.026395831    0.029727257
     12        1           0.005233125   -0.000744977   -0.009949812
     13        8           0.038958380   -0.008964824    0.094578189
     14        1          -0.007813686    0.006301444   -0.018376631
     15        1           0.004714317    0.001193464    0.009634526
     16        8           0.004260629    0.037309484   -0.090016697
     17        1           0.006395269   -0.006373417    0.005769243
 -------------------------------------------------------------------
 Cartesian Forces:  Max     0.094578189 RMS     0.027658047
 FormGI is forming the generalized inverse of G from B-inverse, IUseBI=4.

 GradGradGradGradGradGradGradGradGradGradGradGradGradGradGradGradGradGrad
 Berny optimization.
 Internal  Forces:  Max     0.060292811 RMS     0.016153352
 Search for a saddle point.
 Step number   1 out of a maximum of   89
 All quantities printed in internal units (Hartrees-Bohrs-Radians)
 Swapping is turned off.
 Second derivative matrix not updated -- analytic derivatives used.
 ITU=  0
     Eigenvalues ---   -0.09599  -0.04793  -0.03121  -0.00298   0.00219
     Eigenvalues ---    0.00263   0.00515   0.00767   0.00887   0.01755
     Eigenvalues ---    0.01962   0.02192   0.02317   0.02450   0.03159
     Eigenvalues ---    0.03462   0.04088   0.04554   0.04737   0.04887
     Eigenvalues ---    0.05785   0.07238   0.07602   0.08235   0.09269
     Eigenvalues ---    0.09593   0.10753   0.13962   0.15940   0.17123
     Eigenvalues ---    0.20280   0.24080   0.26326   0.28632   0.31700
     Eigenvalues ---    0.34203   0.37886   0.39153   0.40531   0.45041
     Eigenvalues ---    0.45748   0.51751   0.53263   0.63088   0.80698
 Eigenvectors required to have negative eigenvalues:
                          R16       R15       R18       R14       R10
   1                   -0.48295   0.47775   0.42005  -0.38951  -0.30842
                          R3        D31       R11       R5        D30
   1                    0.28847  -0.08799  -0.05549  -0.04977   0.04453
 RFO step:  Lambda0=4.721496605D-04 Lambda=-1.18513474D-01.
 Linear search not attempted -- option 19 set.
 Maximum step size (   0.300) exceeded in Quadratic search.
    -- Step size scaled by   0.243
 Iteration  1 RMS(Cart)=  0.03811972 RMS(Int)=  0.00287366
 Iteration  2 RMS(Cart)=  0.00405316 RMS(Int)=  0.00016163
 Iteration  3 RMS(Cart)=  0.00000626 RMS(Int)=  0.00016115
 Iteration  4 RMS(Cart)=  0.00000000 RMS(Int)=  0.00016115
 Variable       Old X    -DE/DX   Delta X   Delta X   Delta X     New X
                                 (Linear)    (Quad)   (Total)
    R1        2.66128  -0.00163   0.00000   0.00032   0.00003   2.66131
    R2        2.61878  -0.01677   0.00000  -0.00856  -0.00857   2.61020
    R3        2.87878  -0.06029   0.00000  -0.22218  -0.22230   2.65648
    R4        2.59705   0.00644   0.00000   0.00434   0.00432   2.60137
    R5        2.75589  -0.02251   0.00000  -0.01812  -0.01823   2.73766
    R6        2.60186  -0.00335   0.00000  -0.00047  -0.00040   2.60147
    R7        2.03443   0.00008   0.00000  -0.00022  -0.00022   2.03421
    R8        2.54457   0.00304   0.00000  -0.00052  -0.00045   2.54411
    R9        2.04355   0.00036   0.00000  -0.00015  -0.00015   2.04340
   R10        2.92604  -0.04013   0.00000   0.03797   0.03792   2.96395
   R11        3.15796   0.00663   0.00000   0.03304   0.03307   3.19104
   R12        2.32685  -0.00970   0.00000  -0.00499  -0.00499   2.32187
   R13        2.38155   0.04022   0.00000   0.01679   0.01691   2.39845
   R14        2.59050  -0.04871   0.00000  -0.11207  -0.11195   2.47855
   R15        2.84488  -0.05487   0.00000  -0.02391  -0.02388   2.82099
   R16        2.85905  -0.04554   0.00000  -0.13513  -0.13504   2.72402
   R17        1.84638  -0.00254   0.00000  -0.00630  -0.00638   1.84001
   R18        2.71754  -0.05154   0.00000  -0.01361  -0.01347   2.70407
   R19        1.82884   0.00826   0.00000   0.00121   0.00121   1.83005
    A1        1.90205  -0.00173   0.00000   0.00261   0.00273   1.90477
    A2        1.99786   0.00983   0.00000   0.02342   0.02324   2.02110
    A3        2.19476  -0.00833   0.00000  -0.02015  -0.02004   2.17471
    A4        1.85765   0.00391   0.00000  -0.00179  -0.00173   1.85593
    A5        2.14547  -0.00163   0.00000   0.00169   0.00124   2.14671
    A6        2.22266  -0.00186   0.00000  -0.00084  -0.00049   2.22217
    A7        1.85332  -0.00697   0.00000  -0.00226  -0.00233   1.85099
    A8        2.09670   0.00441   0.00000   0.00119   0.00123   2.09793
    A9        2.33309   0.00255   0.00000   0.00107   0.00110   2.33420
   A10        1.96171  -0.00006   0.00000   0.00090   0.00090   1.96262
   A11        2.22745  -0.00029   0.00000  -0.00040  -0.00040   2.22705
   A12        2.09389   0.00036   0.00000  -0.00048  -0.00048   2.09341
   A13        1.82811   0.00534   0.00000   0.00090   0.00081   1.82892
   A14        2.81053   0.00242   0.00000   0.02719   0.02709   2.83762
   A15        2.20098   0.00219   0.00000   0.03673   0.03653   2.23751
   A16        1.99602   0.01905   0.00000   0.01471   0.01484   2.01085
   A17        1.98520  -0.00558   0.00000  -0.00352  -0.00381   1.98139
   A18        2.30157  -0.01359   0.00000  -0.01143  -0.01131   2.29026
   A19        2.04509  -0.00749   0.00000  -0.00152  -0.00147   2.04362
   A20        2.76441  -0.00848   0.00000  -0.00675  -0.00674   2.75767
   A21        1.24742   0.00663   0.00000   0.01368   0.01379   1.26121
   A22        1.46130   0.01910   0.00000   0.01400   0.01365   1.47494
   A23        1.21545   0.01760   0.00000   0.04020   0.04055   1.25600
   A24        1.64155  -0.00012   0.00000   0.00303   0.00283   1.64438
   A25        1.57894   0.00594   0.00000   0.01486   0.01490   1.59384
   A26        3.05675  -0.00222   0.00000   0.00007  -0.00007   3.05668
   A27        3.21905   0.00879   0.00000   0.00237   0.00243   3.22148
    D1       -0.20004   0.00176   0.00000   0.00107   0.00110  -0.19895
    D2       -3.00719   0.00081   0.00000   0.00397   0.00400  -3.00319
    D3       -2.75955   0.00544   0.00000   0.00125   0.00099  -2.75856
    D4        0.71649   0.00449   0.00000   0.00415   0.00389   0.72038
    D5        0.18293  -0.00267   0.00000  -0.00225  -0.00229   0.18064
    D6        2.66015   0.00116   0.00000   0.01724   0.01705   2.67720
    D7       -0.44611  -0.00367   0.00000   0.02212   0.02218  -0.42393
    D8       -0.34047   0.00750   0.00000   0.03027   0.03048  -0.30999
    D9       -2.89245  -0.00352   0.00000   0.00950   0.00964  -2.88281
   D10       -2.78680   0.00765   0.00000   0.01765   0.01794  -2.76886
   D11        0.13303  -0.00064   0.00000   0.00026   0.00023   0.13326
   D12       -3.01938  -0.00137   0.00000  -0.00022  -0.00018  -3.01956
   D13        2.92069   0.00050   0.00000  -0.00218  -0.00241   2.91828
   D14       -0.23171  -0.00022   0.00000  -0.00266  -0.00282  -0.23454
   D15        2.94129   0.00315   0.00000   0.00149   0.00134   2.94263
   D16       -0.22711  -0.00083   0.00000  -0.00688  -0.00699  -0.23410
   D17        0.20690   0.00087   0.00000   0.00504   0.00500   0.21190
   D18       -2.96150  -0.00312   0.00000  -0.00333  -0.00333  -2.96483
   D19       -0.02137  -0.00133   0.00000  -0.00235  -0.00233  -0.02370
   D20        3.10242  -0.00027   0.00000  -0.00034  -0.00030   3.10212
   D21        3.13316  -0.00047   0.00000  -0.00177  -0.00184   3.13132
   D22       -0.02624   0.00059   0.00000   0.00023   0.00020  -0.02604
   D23       -0.10074   0.00220   0.00000   0.00293   0.00297  -0.09777
   D24        3.05714   0.00124   0.00000   0.00110   0.00111   3.05824
   D25       -1.36774   0.00396   0.00000  -0.00224  -0.00189  -1.36962
   D26        0.94222   0.00201   0.00000   0.00501   0.00465   0.94687
   D27       -2.23217  -0.00218   0.00000  -0.00467  -0.00483  -2.23699
   D28       -2.17183   0.01247   0.00000   0.03609   0.03569  -2.13614
   D29       -0.51507   0.00884   0.00000   0.02980   0.03000  -0.48507
   D30        0.72991   0.00648   0.00000  -0.01297  -0.01280   0.71711
   D31       -0.68085  -0.01245   0.00000  -0.01055  -0.01065  -0.69150
   D32        0.53348   0.00250   0.00000   0.00370   0.00368   0.53717
   D33       -1.01972  -0.00526   0.00000  -0.01418  -0.01421  -1.03393
         Item               Value     Threshold  Converged?
 Maximum Force            0.060293     0.000450     NO 
 RMS     Force            0.016153     0.000300     NO 
 Maximum Displacement     0.145744     0.001800     NO 
 RMS     Displacement     0.040254     0.001200     NO 
 Predicted change in Energy=-3.068639D-02
 GradGradGradGradGradGradGradGradGradGradGradGradGradGradGradGradGradGrad

                          Input orientation:                          
 ---------------------------------------------------------------------
 Center     Atomic      Atomic             Coordinates (Angstroms)
 Number     Number       Type             X           Y           Z
 ---------------------------------------------------------------------
      1          7           0        0.256530   -0.975973   -0.080887
      2          7           0        0.801558    0.319149   -0.175336
      3          6           0        2.156671    0.184611    0.026063
      4          6           0        2.404414   -1.169198    0.056875
      5          7           0        1.282811   -1.900428   -0.083815
      6          1           0        2.780596    1.057545    0.112456
      7          1           0        3.360690   -1.662687    0.163014
      8          1           0       -0.988216   -1.163101   -0.706768
      9          6           0        0.007181    1.521938   -0.030354
     10          8           0        0.649698    2.563363    0.080354
     11          8           0       -1.243545    1.312237   -0.081297
     12          1           0       -2.559477   -0.923669    0.150928
     13          8           0       -2.402332   -0.903074   -1.333440
     14          1           0       -2.098709    0.011632   -1.194888
     15          1           0       -1.734182    0.422058    0.747636
     16          8           0       -2.241893   -0.661477    1.532334
     17          1           0       -1.387960   -1.116852    1.496738
 ---------------------------------------------------------------------
                    Distance matrix (angstroms):
                    1          2          3          4          5
     1  N    0.000000
     2  N    1.408303   0.000000
     3  C    2.229110   1.376588   0.000000
     4  C    2.160954   2.199602   1.376636   0.000000
     5  N    1.381259   2.272994   2.263425   1.346286   0.000000
     6  H    3.247074   2.131817   1.076457   2.258979   3.321368
     7  H    3.188554   3.254429   2.209282   1.081323   2.105951
     8  H    1.405750   2.383857   3.499097   3.477518   2.467647
     9  C    2.510835   1.448709   2.532179   3.605073   3.652763
    10  O    3.564756   2.263833   2.816447   4.124512   4.511454
    11  O    2.736079   2.275415   3.583927   4.414094   4.087015
    12  H    2.826017   3.598278   4.846228   4.970850   3.971441
    13  O    2.940025   3.619384   4.880145   5.010849   4.017033
    14  H    2.786308   3.089595   4.430451   4.820725   4.040437
    15  H    2.569801   2.700453   3.964314   4.487452   3.897114
    16  O    2.990570   3.624963   4.725684   4.901320   4.070685
    17  H    2.283220   3.106754   4.052296   4.056852   3.200806
                    6          7          8          9         10
     6  H    0.000000
     7  H    2.781857   0.000000
     8  H    4.450431   4.463081   0.000000
     9  C    2.815650   4.628742   2.942412   0.000000
    10  O    2.609452   5.021534   4.145945   1.228678   0.000000
    11  O    4.036845   5.487152   2.565873   1.269207   2.275043
    12  H    5.695881   5.966128   1.806055   3.549872   4.739534
    13  O    5.726900   6.002400   1.568457   3.658479   4.830102
    14  H    5.158556   5.869606   1.688625   2.841116   3.961227
    15  H    4.603316   5.535853   2.276946   2.201670   3.273124
    16  O    5.495133   5.853751   2.614749   3.502518   4.568276
    17  H    4.901132   4.962503   2.239949   3.352856   4.438714
                   11         12         13         14         15
    11  O    0.000000
    12  H    2.604780   0.000000
    13  O    2.796113   1.492805   0.000000
    14  H    1.913887   1.702444   0.973689   0.000000
    15  H    1.311592   1.687647   2.556027   2.018596   0.000000
    16  O    2.737892   1.441488   2.880412   2.812706   1.430933
    17  H    2.900262   1.794708   3.014060   3.003912   1.746214
                   16         17
    16  O    0.000000
    17  H    0.968418   0.000000
 Stoichiometry    C3H7N3O4(1-,2)
 Framework group  C1[X(C3H7N3O4)]
 Deg. of freedom    45
 Full point group                 C1      NOp   1
 Largest Abelian subgroup         C1      NOp   1
 Largest concise Abelian subgroup C1      NOp   1
                         Standard orientation:                         
 ---------------------------------------------------------------------
 Center     Atomic      Atomic             Coordinates (Angstroms)
 Number     Number       Type             X           Y           Z
 ---------------------------------------------------------------------
      1          7           0        0.270219   -0.982064   -0.062492
      2          7           0        0.810825    0.312949   -0.180831
      3          6           0        2.165235    0.188008    0.031204
      4          6           0        2.417980   -1.163872    0.091753
      5          7           0        1.300036   -1.902311   -0.040131
      6          1           0        2.785289    1.065017    0.102951
      7          1           0        3.375499   -1.651250    0.213739
      8          1           0       -0.970092   -1.187144   -0.691543
      9          6           0        0.011004    1.515352   -0.065644
     10          8           0        0.648861    2.561396    0.026997
     11          8           0       -1.238588    1.299687   -0.119455
     12          1           0       -2.547284   -0.936069    0.151818
     13          8           0       -2.381479   -0.945857   -1.331718
     14          1           0       -2.082186   -0.027264   -1.210559
     15          1           0       -1.730682    0.425080    0.725044
     16          8           0       -2.238849   -0.643830    1.529262
     17          1           0       -1.382982   -1.096468    1.508155
 ---------------------------------------------------------------------
 Rotational constants (GHZ):           1.4788493           1.0749829           0.7557223
 Standard basis: 6-31+G(d,p) (6D, 7F)
 There are   225 symmetry adapted cartesian basis functions of A   symmetry.
 There are   225 symmetry adapted basis functions of A   symmetry.
   225 basis functions,   369 primitive gaussians,   225 cartesian basis functions
    40 alpha electrons       39 beta electrons
       nuclear repulsion energy       562.4256103772 Hartrees.
 NAtoms=   17 NActive=   17 NUniq=   17 SFac= 1.00D+00 NAtFMM=   60 NAOKFM=F Big=F
 Integral buffers will be    131072 words long.
 Raffenetti 2 integral format.
 Two-electron integral symmetry is turned on.
 One-electron integrals computed using PRISM.
 NBasis=   225 RedAO= T EigKep=  2.72D-05  NBF=   225
 NBsUse=   225 1.00D-06 EigRej= -1.00D+00 NBFU=   225
 Initial guess from the checkpoint file:  "/scratch/gongke2021/TS/Gau-429.chk"
 B after Tr=    -0.000000    0.000000   -0.000000
         Rot=    0.999928    0.011624    0.002912   -0.000514 Ang=   1.37 deg.
 Initial guess <Sx>= 0.0000 <Sy>= 0.0000 <Sz>= 0.5000 <S**2>= 0.7638 S= 0.5069
 ExpMin= 4.38D-02 ExpMax= 5.48D+03 ExpMxC= 8.25D+02 IAcc=2 IRadAn=         4 AccDes= 0.00D+00
 Harris functional with IExCor= 1009 and IRadAn=       4 diagonalized for initial guess.
 HarFok:  IExCor= 1009 AccDes= 0.00D+00 IRadAn=         4 IDoV= 1 UseB2=F ITyADJ=14
 ICtDFT=  3500011 ScaDFX=  1.000000  1.000000  1.000000  1.000000
 FoFCou: FMM=F IPFlag=           0 FMFlag=      100000 FMFlg1=           0
         NFxFlg=           0 DoJE=T BraDBF=F KetDBF=T FulRan=T
         wScrn=  0.000000 ICntrl=       500 IOpCl=  0 I1Cent=   200000004 NGrid=           0
         NMat0=    1 NMatS0=      1 NMatT0=    0 NMatD0=    1 NMtDS0=    0 NMtDT0=    0
 Petite list used in FoFCou.
 Requested convergence on RMS density matrix=1.00D-08 within 128 cycles.
 Requested convergence on MAX density matrix=1.00D-06.
 Requested convergence on             energy=1.00D-06.
 No special actions if energy rises.
 SCF Done:  E(UM062X) =  -583.382652530     A.U. after   16 cycles
            NFock= 16  Conv=0.89D-08     -V/T= 2.0095
 <Sx>= 0.0000 <Sy>= 0.0000 <Sz>= 0.5000 <S**2>= 0.7643 S= 0.5071
 <L.S>= 0.000000000000E+00
 Annihilation of the first spin contaminant:
 S**2 before annihilation     0.7643,   after     0.7501
 Calling FoFJK, ICntrl=      2127 FMM=F ISym2X=0 I1Cent= 0 IOpClX= 1 NMat=1 NMatS=1 NMatT=0.
 ***** Axes restored to original set *****
 -------------------------------------------------------------------
 Center     Atomic                   Forces (Hartrees/Bohr)
 Number     Number              X              Y              Z
 -------------------------------------------------------------------
      1        7          -0.052007953   -0.012685028   -0.022513406
      2        7          -0.020028536    0.004553164    0.004996846
      3        6           0.008809529    0.002956607    0.000546053
      4        6          -0.000609426    0.001603583   -0.002601095
      5        7          -0.013106613    0.010036282    0.001345111
      6        1           0.000720563   -0.000397588   -0.000777916
      7        1           0.000417601    0.000121627   -0.000431558
      8        1           0.037466795    0.006972424    0.000107794
      9        6           0.065962181   -0.018557410    0.003133524
     10        8          -0.014343028   -0.000052651   -0.003021887
     11        8          -0.056391162   -0.023980593    0.029983379
     12        1           0.005470385   -0.000228581   -0.005558035
     13        8           0.031112370   -0.005284510    0.085390376
     14        1          -0.007910891    0.005463266   -0.018144311
     15        1           0.006278640    0.005883594    0.004976862
     16        8           0.003516991    0.029027759   -0.084320867
     17        1           0.004642554   -0.005431945    0.006889128
 -------------------------------------------------------------------
 Cartesian Forces:  Max     0.085390376 RMS     0.025107808

 GradGradGradGradGradGradGradGradGradGradGradGradGradGradGradGradGradGrad
 Berny optimization.
 FormGI is forming the generalized inverse of G from B-inverse, IUseBI=4.
 Internal  Forces:  Max     0.060434661 RMS     0.014742976
 Search for a saddle point.
 Step number   2 out of a maximum of   89
 All quantities printed in internal units (Hartrees-Bohrs-Radians)
 Swapping is turned off.
 Update second derivatives using D2CorX and points    1    2
 ITU=  0  0
     Eigenvalues ---   -0.09601  -0.04665  -0.03083  -0.00260   0.00225
     Eigenvalues ---    0.00297   0.00534   0.00769   0.00888   0.01926
     Eigenvalues ---    0.02009   0.02197   0.02426   0.02489   0.03167
     Eigenvalues ---    0.03510   0.04175   0.04631   0.04743   0.04888
     Eigenvalues ---    0.05790   0.07293   0.07608   0.08266   0.09268
     Eigenvalues ---    0.09592   0.10753   0.13982   0.15978   0.17153
     Eigenvalues ---    0.20300   0.24082   0.26327   0.28635   0.31697
     Eigenvalues ---    0.34205   0.37886   0.39153   0.40530   0.45039
     Eigenvalues ---    0.45748   0.51751   0.53263   0.63087   0.80698
 Eigenvectors required to have negative eigenvalues:
                          R16       R15       R18       R14       R10
   1                    0.48433  -0.47754  -0.42098   0.39062   0.30703
                          R3        D31       R11       R5        D30
   1                   -0.28527   0.08792   0.05491   0.04969  -0.04417
 RFO step:  Lambda0=2.364928977D-04 Lambda=-1.06333191D-01.
 Linear search not attempted -- option 19 set.
 Maximum step size (   0.300) exceeded in Quadratic search.
    -- Step size scaled by   0.248
 Iteration  1 RMS(Cart)=  0.03677669 RMS(Int)=  0.00297405
 Iteration  2 RMS(Cart)=  0.00393560 RMS(Int)=  0.00017812
 Iteration  3 RMS(Cart)=  0.00001177 RMS(Int)=  0.00017711
 Iteration  4 RMS(Cart)=  0.00000000 RMS(Int)=  0.00017711
 Variable       Old X    -DE/DX   Delta X   Delta X   Delta X     New X
                                 (Linear)    (Quad)   (Total)
    R1        2.66131  -0.00148   0.00000  -0.00109  -0.00141   2.65990
    R2        2.61020  -0.01395   0.00000  -0.00807  -0.00808   2.60212
    R3        2.65648  -0.06043   0.00000  -0.22071  -0.22082   2.43567
    R4        2.60137   0.00541   0.00000   0.00367   0.00365   2.60502
    R5        2.73766  -0.01907   0.00000  -0.01533  -0.01546   2.72220
    R6        2.60147  -0.00263   0.00000  -0.00028  -0.00021   2.60126
    R7        2.03421   0.00003   0.00000  -0.00023  -0.00023   2.03398
    R8        2.54411   0.00227   0.00000  -0.00055  -0.00047   2.54364
    R9        2.04340   0.00027   0.00000  -0.00023  -0.00023   2.04318
   R10        2.96395  -0.03255   0.00000   0.05939   0.05934   3.02329
   R11        3.19104   0.00726   0.00000   0.03931   0.03936   3.23040
   R12        2.32187  -0.00782   0.00000  -0.00464  -0.00464   2.31723
   R13        2.39845   0.03268   0.00000   0.01458   0.01469   2.41314
   R14        2.47855  -0.04666   0.00000  -0.11067  -0.11053   2.36802
   R15        2.82099  -0.04939   0.00000  -0.02432  -0.02430   2.79670
   R16        2.72402  -0.04438   0.00000  -0.12947  -0.12938   2.59464
   R17        1.84001  -0.00230   0.00000  -0.00648  -0.00659   1.83342
   R18        2.70407  -0.04267   0.00000  -0.00199  -0.00183   2.70225
   R19        1.83005   0.00640   0.00000   0.00018   0.00018   1.83022
    A1        1.90477  -0.00123   0.00000   0.00348   0.00359   1.90836
    A2        2.02110   0.00935   0.00000   0.02225   0.02204   2.04315
    A3        2.17471  -0.00785   0.00000  -0.01905  -0.01894   2.15577
    A4        1.85593   0.00306   0.00000  -0.00208  -0.00200   1.85393
    A5        2.14671  -0.00125   0.00000   0.00153   0.00101   2.14772
    A6        2.22217  -0.00148   0.00000  -0.00024   0.00015   2.22232
    A7        1.85099  -0.00569   0.00000  -0.00183  -0.00192   1.84907
    A8        2.09793   0.00357   0.00000   0.00085   0.00089   2.09882
    A9        2.33420   0.00211   0.00000   0.00098   0.00102   2.33522
   A10        1.96262  -0.00009   0.00000   0.00071   0.00071   1.96332
   A11        2.22705  -0.00022   0.00000  -0.00023  -0.00023   2.22682
   A12        2.09341   0.00032   0.00000  -0.00045  -0.00045   2.09296
   A13        1.82892   0.00444   0.00000   0.00018   0.00008   1.82899
   A14        2.83762   0.00298   0.00000   0.02924   0.02914   2.86676
   A15        2.23751   0.00324   0.00000   0.04065   0.04041   2.27792
   A16        2.01085   0.01619   0.00000   0.01284   0.01301   2.02387
   A17        1.98139  -0.00455   0.00000  -0.00298  -0.00336   1.97803
   A18        2.29026  -0.01178   0.00000  -0.01018  -0.01001   2.28024
   A19        2.04362  -0.00573   0.00000   0.00138   0.00135   2.04497
   A20        2.75767  -0.00713   0.00000  -0.00268  -0.00270   2.75497
   A21        1.26121   0.00769   0.00000   0.01320   0.01333   1.27454
   A22        1.47494   0.01673   0.00000   0.01326   0.01289   1.48783
   A23        1.25600   0.01754   0.00000   0.04001   0.04032   1.29632
   A24        1.64438   0.00010   0.00000   0.00554   0.00529   1.64967
   A25        1.59384   0.00619   0.00000   0.01677   0.01677   1.61061
   A26        3.05668  -0.00156   0.00000   0.00222   0.00205   3.05872
   A27        3.22148   0.00761   0.00000   0.00265   0.00270   3.22418
    D1       -0.19895   0.00179   0.00000   0.00145   0.00148  -0.19746
    D2       -3.00319   0.00108   0.00000   0.00382   0.00385  -2.99934
    D3       -2.75856   0.00457   0.00000  -0.00031  -0.00056  -2.75912
    D4        0.72038   0.00386   0.00000   0.00207   0.00181   0.72219
    D5        0.18064  -0.00258   0.00000  -0.00260  -0.00264   0.17800
    D6        2.67720   0.00172   0.00000   0.01739   0.01716   2.69436
    D7       -0.42393  -0.00252   0.00000   0.03044   0.03053  -0.39340
    D8       -0.30999   0.00846   0.00000   0.03615   0.03637  -0.27361
    D9       -2.88281  -0.00314   0.00000   0.01660   0.01677  -2.86604
   D10       -2.76886   0.00784   0.00000   0.02231   0.02261  -2.74626
   D11        0.13326  -0.00067   0.00000  -0.00002  -0.00006   0.13321
   D12       -3.01956  -0.00124   0.00000  -0.00063  -0.00058  -3.02014
   D13        2.91828   0.00020   0.00000  -0.00211  -0.00237   2.91591
   D14       -0.23454  -0.00037   0.00000  -0.00271  -0.00289  -0.23743
   D15        2.94263   0.00268   0.00000   0.00071   0.00057   2.94320
   D16       -0.23410  -0.00126   0.00000  -0.00791  -0.00799  -0.24209
   D17        0.21190   0.00092   0.00000   0.00385   0.00382   0.21572
   D18       -2.96483  -0.00302   0.00000  -0.00477  -0.00474  -2.96958
   D19       -0.02370  -0.00122   0.00000  -0.00228  -0.00226  -0.02596
[...]
   yx         0.794279D+01      0.117700D+01      0.130959D+01
   yy         0.106216D+03      0.157396D+02      0.175127D+02
   zx         0.377134D+01      0.558855D+00      0.621810D+00
   zy        -0.390709D+00     -0.578971D-01     -0.644192D-01
   zz         0.108417D+03      0.160658D+02      0.178756D+02

 ----------------------------------------------------------------------
 1\1\GINC-NODE2\Freq\UM062X\6-31+G(d,p)\C3H7N3O4(1-,2)\GONGKE2021\04-Ju
 n-2023\0\\#N Geom=AllCheck Guess=TCheck SCRF=Check GenChk UM062X/6-31+
 G(d,p) Freq\\test\\-1,2\N,0.2363293301,-0.9274107531,0.1209874604\N,0.
 784800041,0.3640504494,-0.0154448824\C,2.1599357654,0.2214970924,-0.17
 21401777\C,2.3777226985,-1.1362814056,-0.1837963675\N,1.2405025086,-1.
 8361127853,-0.0463651522\H,2.7969280054,1.0863147592,-0.2275912275\H,3
 .323037681,-1.6505365818,-0.2940599202\H,-0.7010559859,-1.1295243034,-
 0.5067672257\C,0.166232469,1.5626937356,0.3438762554\O,0.818655552,2.5
 985311434,0.2748043527\O,-1.0920679031,1.5268869992,0.706511315\H,-2.4
 534851065,-0.855035419,0.0319768698\O,-1.9512092572,-1.3446852171,-1.0
 779353339\H,-2.1117593924,-0.7878661454,-1.8456697739\H,-1.6428056087,
 0.6345517515,0.8627462793\O,-2.6195322561,-0.3879126059,1.0322448457\H
 ,-2.2883945611,-1.0230861639,1.6762372629\\Version=ES64L-G16RevA.03\St
 ate=2-A\HF=-583.4847464\S2=0.765147\S2-1=0.\S2A=0.750079\RMSD=4.705e-0
 9\RMSF=5.688e-06\ZeroPoint=0.1166855\Thermal=0.1266788\Dipole=1.098878
 2,-0.3027564,-0.0707437\DipoleDeriv=-1.1525406,-0.5755221,-0.1242607,-
 0.016582,0.1980894,-0.0707694,-0.1397723,0.0472962,-0.3598422,-0.47190
 13,0.7068516,0.0645479,0.5672065,-1.0621405,-0.1704852,0.0892073,-0.36
 63902,-0.1080613,-0.0617049,-0.1889153,0.0129353,-0.1857067,-0.3198734
 ,-0.021299,-0.0279813,0.0752517,-0.3003003,0.2574913,0.2447008,-0.0361
 372,0.0066478,0.6797487,0.0271281,-0.0522451,-0.0427742,-0.080049,-0.1
 159961,-0.0780607,-0.0672451,-0.1975845,-0.9295423,-0.0157689,-0.08781
 46,-0.0534637,-0.2538679,0.058552,-0.0027167,0.0174404,-0.0386137,0.07
 23414,0.0059273,0.0148568,-0.0054553,0.226074,-0.0844992,0.0840786,0.0
 25405,0.0921857,0.0522955,-0.0114297,0.0347622,-0.0048216,0.1444054,1.
 7157011,0.4810431,0.5196857,0.2847692,0.2277656,0.1009281,0.687893,0.2
 239294,0.494375,2.0890531,-0.002199,-0.4676788,-0.3224593,2.6535577,0.
 3203819,-0.5292773,0.3317403,0.590286,-0.7469089,-0.6097796,0.0131826,
 -0.0964848,-1.7799339,-0.0900272,0.0748897,0.019095,-0.5005945,-1.8560
 957,-0.0479474,0.3759747,-0.4429227,-0.8455594,0.0750348,0.392415,-0.0
 035703,-0.5342455,0.4235906,-0.0459845,-0.2971926,-0.0819672,0.3441505
 ,0.43137,-0.3378024,0.3842506,1.3303522,-1.5390961,-0.2358962,-0.07283
 43,-0.1474697,-0.6914895,-0.3656708,-0.2372799,-0.4045983,-1.2138626,0
 .2686395,0.008734,0.0042982,0.0410993,0.1885447,0.1226091,0.0104913,0.
 0854555,0.1695105,0.9884113,0.4680047,-0.1610835,0.8086871,0.785705,-0
 .1518743,-0.173232,-0.1009473,0.3140459,-1.0954138,-0.2934428,0.285920
 7,-0.3383137,-0.7712963,-0.2384217,0.3609208,-0.1933974,-1.1907602,0.3
 227176,0.0870515,-0.0929583,0.0675087,0.1976368,0.0523669,-0.0800313,0
 .0083997,0.2725346\Polar=108.1933358,0.6351428,107.0755856,-5.2739021,
 4.8872107,65.8344712\Quadrupole=-0.2358206,-10.5979941,10.8338147,-2.4
 919169,0.4658061,-5.4721293\PG=C01 [X(C3H7N3O4)]\NImag=1\\0.63019655,-
 0.00365143,0.41798480,0.05916218,0.02792500,0.14443476,-0.13729314,-0.
 07936159,0.00047085,0.67452758,-0.03811487,-0.16118806,0.00358639,-0.0
 9385963,0.69569168,0.00814835,0.02045949,-0.03347503,-0.10915269,0.060
 17766,0.09328498,-0.05589769,-0.03724920,0.00989816,-0.28419763,0.0178
 8655,0.03366829,0.61867933,-0.02409681,-0.01579586,-0.00168816,0.02048
 161,-0.11127216,-0.00898163,0.12256797,0.83345704,0.00764271,0.0079801
 6,-0.00513046,0.02218321,-0.00433851,-0.03539034,-0.06391747,-0.005096
 05,0.08426514,-0.09039018,0.01977297,0.00992672,-0.03729685,0.02440656
 ,0.00777965,-0.11152418,0.08768464,0.00382022,0.78324464,0.01740370,-0
 .00864990,0.00256042,0.06217662,-0.02776181,-0.00477719,0.05342013,-0.
 34584126,-0.00763458,-0.16087293,0.66293213,0.01513989,-0.00076426,0.0
 0934950,0.00562214,-0.00269761,0.00972178,0.00419139,-0.00532472,-0.05
 392376,-0.07949891,0.01403341,0.13246410,-0.20798668,0.12542087,0.0025
 4226,-0.01551557,0.04396232,0.00256869,0.00578558,-0.09613946,0.006228
 04,-0.26878071,-0.10192859,0.02707897,0.52131946,0.04001604,-0.1558776
 9,-0.00975629,0.02855872,-0.08864307,-0.00960922,-0.03611392,-0.091672
 34,0.00398941,-0.08046279,-0.13735855,0.00753349,0.03315341,0.45211771
 ,0.01926691,-0.03746251,-0.04993525,0.00271914,0.00175691,-0.00139293,
 0.00164806,0.01061720,0.02801527,0.02620243,0.01100582,-0.06001813,-0.
 04973819,0.00218450,0.08136181,-0.00451743,0.00066178,-0.00048628,-0.0
 1377771,-0.02532837,0.00162818,-0.16523733,-0.14859329,0.01345693,0.01
 104836,0.00508903,-0.00120463,-0.00027300,0.00528140,0.00056293,0.1720
 0434,0.00407087,-0.00134841,-0.00072013,0.00587238,0.00809911,-0.00059
 220,-0.16099456,-0.26539466,0.01446003,-0.01688063,-0.00534695,0.00163
 878,0.00002834,-0.00255785,0.00022805,0.16682269,0.26831692,0.00175144
 ,-0.00066161,0.00258569,0.00115841,0.00233005,-0.00358767,0.01350783,0
 .01100567,-0.01509874,-0.00020337,0.00137815,-0.00223220,-0.00105431,0
 .00001483,0.00635692,-0.01396389,-0.01469155,0.01459639,-0.00421673,-0
 .00258025,-0.00010377,-0.00012447,-0.00226721,0.00110909,0.00336511,-0
 .00157901,-0.00034878,-0.27698544,0.12514696,0.02887998,-0.02058385,0.
 01487227,0.00220520,-0.00047965,0.00051123,-0.00020631,0.29874320,-0.0
 0539677,-0.00115310,0.00007386,0.00032115,-0.00674094,-0.00038466,0.02
 425928,-0.00010497,-0.00276622,0.12947852,-0.13421505,-0.01442705,-0.0
 1431052,0.01497517,0.00194948,-0.00065536,-0.00023217,0.00004667,-0.13
 461381,0.12641039,0.00168238,0.00089819,0.00848917,0.00114343,-0.00044
 512,0.00621829,-0.00024464,0.00014274,0.00041434,0.02886636,-0.0143814
 5,-0.03605781,0.00146165,-0.00076230,-0.00627539,-0.00018195,-0.000022
 10,-0.00212418,-0.03233420,0.01513811,0.02857602,-0.07748114,-0.009327
 03,-0.03380576,-0.00633388,-0.00026110,0.01001912,0.00872219,0.0020040
 0,-0.00224946,0.00147595,0.00349211,-0.00347130,-0.01994702,0.00867405
 ,0.00053804,0.00045284,-0.00040945,-0.00047143,0.00068000,-0.00016279,
 -0.00027487,0.07222888,-0.00499634,-0.06116499,-0.00532156,-0.02479446
 ,-0.00759820,-0.01027755,0.00227797,-0.00348681,-0.00074120,0.00393359
 ,-0.00388010,-0.00052313,0.01803370,0.00818059,0.01184773,-0.00070849,
 0.00010190,-0.00004431,0.00070313,0.00056123,-0.00102569,-0.00251901,0
 .09222608,-0.07467700,-0.01296527,-0.06477892,0.01676790,0.00282240,0.
 00630237,0.00217394,0.00576036,-0.00110236,0.00447104,-0.00307030,-0.0
 0069723,0.01345301,0.00563955,0.00417304,0.00139747,-0.00021567,0.0001
 1963,0.00143441,0.00045457,-0.00032485,0.00264349,-0.00191710,0.071234
 42,0.00453766,-0.00128888,-0.00764068,-0.15210369,0.05878249,0.0296381
 3,-0.01770805,0.03256512,0.01117213,-0.00883428,-0.00006414,0.00119368
 ,0.00344402,-0.01747281,-0.00006322,-0.00174070,0.00037195,0.00010812,
 0.00028372,0.00076198,-0.00038492,0.01825814,-0.00228739,0.00532169,0.
 78404683,0.02393145,-0.02810473,-0.00701903,0.04750981,-0.20530438,-0.
 01618134,0.02106015,0.00165058,-0.00777021,-0.00764757,0.00173951,0.00
 009424,-0.01171980,0.01079942,0.00153902,-0.00541288,0.00128462,0.0013
 6816,-0.00069877,0.00160178,0.00009739,-0.01758699,-0.00317533,-0.0077
 3942,0.19841894,0.82290353,-0.00492522,-0.00110071,-0.00348576,0.03893
 551,-0.03746912,-0.05946516,0.00291724,-0.00098780,-0.00508051,-0.0007
 5778,-0.00033415,0.00036443,-0.00219089,0.00880771,-0.00161384,-0.0001
 8595,-0.00005125,0.00049118,-0.00009066,0.00045395,0.00138382,-0.00726
 676,-0.00140977,-0.00110755,-0.14258486,0.00388305,0.24100599,-0.00472
 690,-0.00138395,0.00382219,0.01825953,-0.00360011,-0.00826804,0.000687
 56,0.00082826,0.00142261,0.00328911,0.00106345,0.00019492,0.00267791,-
 0.00047968,-0.00032642,0.00252555,0.00088545,-0.00069556,0.00020273,0.
 00001123,-0.00010501,0.00025708,0.00101173,-0.00003329,-0.25028455,-0.
 23633962,0.02504600,0.29300670,-0.00164274,0.00030595,-0.00199214,-0.0
 1700342,-0.09482859,-0.01716374,-0.00153263,0.00217892,0.00328389,-0.0
 0123249,-0.00067250,0.00040662,0.00478805,-0.00910306,-0.00100954,0.00
 200660,-0.00278664,-0.00065725,0.00055610,-0.00038150,-0.00021228,0.00
 925833,0.00050780,0.00422515,-0.24739888,-0.49320147,0.02635773,0.3000
 1607,0.59663977,0.00435998,0.00151440,0.00285233,-0.00379613,-0.017479
 00,0.01776142,-0.00025987,-0.00033387,-0.00175414,-0.00083819,-0.00064
 331,0.00028578,0.00035675,-0.00175163,0.00095163,-0.00053995,-0.000262
 73,-0.00085010,0.00002223,-0.00006564,-0.00003606,0.00074879,0.0004288
 6,-0.00011970,0.01968137,0.02377033,-0.08414856,-0.04016035,-0.0211495
 5,0.04636086,0.01612510,-0.00403676,-0.00425626,-0.05097887,0.02116804
 ,0.02955578,0.00311876,0.00757254,-0.00000590,-0.00458783,-0.00582263,
 0.00059659,-0.00235975,0.01221644,0.00129493,0.00041233,-0.00046412,-0
 .00013346,-0.00025806,0.00058971,-0.00020069,-0.01840996,-0.00136633,-
 0.00554099,-0.34496489,-0.00411736,0.08295802,-0.06821575,-0.04411632,
 0.01949246,0.54770968,0.00572992,0.00306417,-0.00040615,0.04058784,0.0
 0142636,-0.00932254,-0.00375920,-0.00256406,-0.00178728,0.00214295,-0.
 00248336,-0.00029762,-0.00035548,0.00404136,-0.00060037,0.00093620,-0.
 00029350,-0.00009757,0.00012785,-0.00045635,0.00031359,-0.00513366,0.0
 0018557,0.00000164,-0.00813161,-0.12556491,-0.00425701,-0.07061725,-0.
 00179037,0.01795454,0.12878391,0.35306549,-0.00346021,0.00190480,-0.00
 029629,0.02759395,-0.00817642,0.00298357,-0.00203534,-0.00356438,0.004
 73504,0.00179526,0.00091231,0.00019369,0.00111939,-0.00326621,0.000397
 65,-0.00005308,0.00013757,-0.00026442,0.00001560,-0.00040710,-0.000589
 01,0.00281401,0.00128242,0.00030650,0.08275695,-0.00187915,-0.07934519
 ,0.01917791,0.01143588,0.01352348,-0.14896515,-0.02612662,0.07608692,0
 .00323102,-0.00055298,0.00162179,-0.00084823,0.00032051,0.00085207,0.0
 0052377,0.00075263,-0.00010651,0.00011106,-0.00049837,0.00001469,0.000
 34769,0.00140725,0.00018930,0.00009921,-0.00003839,-0.00005165,0.00017
 195,0.00003473,-0.00007016,-0.01785126,0.00216524,0.00315769,0.0028665
 1,-0.00363489,-0.00186008,-0.00050602,0.00116104,0.00032222,-0.0054113
 6,-0.00256532,0.00361999,0.06980905,-0.00473435,-0.00062839,-0.0035881
 9,0.00101724,-0.00125475,-0.00112088,-0.00060357,-0.00082928,0.0000905
 8,0.00048160,0.00044095,0.00013191,0.00025701,-0.00143877,-0.00094004,
 -0.00006339,0.00003247,0.00009964,-0.00001368,-0.00001821,0.00009555,0
 .01134323,0.00431954,0.00640755,-0.00808854,0.00265910,0.00326916,0.00
 179849,-0.00019572,-0.00078490,0.00820931,0.00455751,-0.00119415,-0.00
 569347,0.09353732,-0.01214425,-0.00136169,-0.01070476,0.00233893,-0.00
 194538,-0.00272036,-0.00082609,-0.00158843,0.00007668,0.00070866,0.001
 08983,0.00029395,-0.00017563,-0.00285244,-0.00244705,-0.00011812,0.000
 06369,0.00029871,-0.00009081,-0.00004555,0.00031112,0.03115873,0.00427
 954,0.02169558,-0.01381773,0.00683333,0.00652693,0.00355174,-0.0007055
 3,-0.00159249,0.01892005,0.01279736,-0.00860742,0.01487064,-0.00046967
 ,0.08102689,-0.05841895,-0.00657404,-0.03961239,0.00320263,-0.00009521
 ,-0.00575542,-0.00392718,-0.00236861,0.00068462,-0.00131783,0.00097374
 ,0.00129807,0.00170825,-0.00713408,-0.00449328,-0.00039792,0.00018655,
 0.00018687,-0.00075960,-0.00013398,0.00057981,0.01970851,-0.00399485,0
 .03261159,-0.01197747,0.01207107,0.00617387,0.00056827,-0.00566674,-0.
 00084980,0.01369817,0.00431176,-0.00429791,-0.02585164,0.00327732,-0.0
 3132951,0.09896592,-0.00619839,0.01066046,-0.00446018,0.00219118,0.002
 45991,0.00106218,0.00021416,0.00100298,-0.00011237,-0.00156565,0.00004
 373,0.00031815,-0.00162028,-0.00038328,-0.00106672,0.00008183,0.000000
 79,-0.00008151,-0.00021735,-0.00008062,0.00018345,-0.00223680,-0.02624
 628,0.00493344,0.00634551,0.00001928,-0.00050838,-0.00154028,-0.000586
 90,0.00025558,-0.00465387,-0.00226209,-0.00097680,0.00634054,-0.035836
 22,0.01605353,-0.05861667,0.23493148,-0.02897626,-0.00618113,-0.006852
 81,-0.00341027,0.00069973,-0.00164683,-0.00151292,-0.00094402,0.000436
 49,-0.00165206,0.00014299,0.00042268,-0.00134020,-0.00155490,-0.000655
 56,-0.00034094,0.00005439,-0.00015173,-0.00049366,-0.00008268,0.000109
 09,0.01504504,0.00512092,-0.01814081,0.00455888,0.00127580,-0.00211447
 ,-0.00222328,-0.00239210,0.00089180,-0.00656531,-0.00594541,0.00323219
 ,-0.00146369,0.00455016,0.00498020,0.06879179,-0.21987397,0.45750988,-
 0.00568881,-0.00335592,-0.00185699,-0.00119155,-0.00031888,-0.00030352
 ,-0.00058558,-0.00034284,0.00014259,-0.00017243,-0.00005954,0.00005893
 ,0.00010435,-0.00017103,0.00001719,-0.00010244,0.00000710,-0.00001744,
 -0.00004739,-0.00001738,0.00000372,0.00929915,0.01105023,-0.00607123,-
 0.00038336,-0.00029909,-0.00062019,0.00005707,0.00001481,0.00014417,0.
 00009079,0.00014962,0.00035026,0.00324721,-0.00938434,-0.00005987,-0.0
 3401210,0.05317529,-0.06806105,0.03062990,-0.00280489,-0.00012322,-0.0
 0123148,0.00028124,-0.00040898,0.00000186,-0.00029483,-0.00007726,0.00
 011874,0.00007299,0.00013250,0.00002271,-0.00002522,-0.00038545,-0.000
 24530,-0.00001694,0.00001049,0.00001319,0.00000538,-0.00001368,0.00001
 663,0.00270427,0.00086658,-0.00046909,-0.00155081,0.00033473,0.0000434
 2,0.00025386,-0.00008237,0.00002093,0.00095101,-0.00016166,0.00066840,
 -0.00383687,0.00651091,0.00011449,0.05669407,-0.18940180,0.25630069,-0
 .05462457,0.18625505,-0.00064553,-0.00013782,0.00055979,-0.00006139,-0
 .00033416,-0.00010095,-0.00014799,-0.00007564,0.00003777,0.00005826,0.
 00006876,-0.00004116,-0.00004695,-0.00020527,-0.00004986,-0.00000574,0
 .00000694,-0.00000771,0.00002044,-0.00001975,-0.00000609,0.00098654,0.
 00281828,-0.00383453,-0.00169594,-0.00026328,0.00005649,0.00035111,0.0
 0020082,-0.00008073,0.00085539,-0.00006074,0.00082096,-0.00697707,0.01
 373602,-0.00315418,-0.06802769,0.23882677,-0.35594295,0.07266385,-0.24
 977221,0.36637942,-0.00578030,0.00223132,-0.00082951,0.00626691,-0.004
 70174,-0.00269725,-0.00197201,-0.00210443,0.00003173,0.00148097,0.0009
 2768,-0.00012011,0.00071513,-0.00353228,-0.00111664,-0.00008304,0.0000
 7440,0.00009742,0.00019947,-0.00022242,0.00009460,0.01043256,0.0027689
 5,0.00484233,-0.04404058,-0.00790834,0.00968552,0.00933550,0.00308614,
 -0.00026412,-0.04813439,-0.05017037,0.00750687,0.00619093,-0.00914447,
 -0.02221823,-0.01088127,0.00269045,0.00903580,0.00018728,0.00021815,0.
 00034336,0.07536563,-0.00708969,0.00327011,0.00094608,0.01123340,-0.00
 585142,-0.00643990,-0.00272283,-0.00281684,0.00072279,0.00131580,0.001
 87794,-0.00019204,0.00139019,-0.00641178,-0.00028185,-0.00027187,0.000
 23112,0.00006896,0.00001161,-0.00028226,-0.00001562,0.01165247,0.00081
 483,0.00087088,-0.03508725,0.02725325,0.01181456,0.01705063,0.00516291
 ,-0.00396722,-0.05394153,-0.19068325,0.01382863,0.00061760,-0.01338474
 ,-0.02638107,-0.01008217,0.00337810,0.01091242,0.00004228,0.00057938,0
 .00063129,0.03606941,0.16529820,0.00114265,-0.00112622,-0.00062789,-0.
 00195682,0.00092431,0.00052957,0.00077053,0.00039702,-0.00056157,-0.00
 034796,0.00019453,0.00006387,-0.00052663,0.00053066,-0.00012154,0.0000
 0848,-0.00001517,0.00006555,-0.00006801,0.00007750,0.00009616,0.000655
 46,-0.00199402,-0.00048890,0.00818025,0.00328286,-0.01268848,-0.001499
 61,-0.00143311,0.00601904,0.00965813,0.01440018,-0.02464283,-0.0092133
 8,-0.00651390,0.00974586,0.00297833,0.00220448,-0.00372006,-0.00007203
 ,-0.00096132,-0.00153405,-0.00483646,-0.00893449,0.05887966,-0.0024461
 0,0.00166627,0.00329485,-0.00184426,0.00193145,0.00073650,-0.00032383,
 0.00055305,0.00001113,-0.00080496,-0.00045037,-0.00006644,-0.00007300,
 0.00043418,0.00133622,0.00003229,-0.00002292,-0.00004817,-0.00027499,0
 .00005313,-0.00007892,-0.00249545,-0.00139328,-0.00436145,0.01732876,-
 0.00516726,-0.00478316,-0.00679737,-0.00294829,0.00140392,-0.03233205,
 -0.03889312,0.01262747,-0.03776863,0.01318357,0.00822542,0.01131840,0.
 00435129,0.01724775,-0.00125880,0.00210626,0.00245595,-0.00724729,0.03
 058725,-0.01133443,0.13941950,0.00715209,-0.00075914,0.00180516,-0.004
 96355,0.00349620,0.00292318,0.00152391,0.00176934,-0.00036723,-0.00085
 990,-0.00112066,0.00004022,-0.00079901,0.00378902,0.00062846,0.0001719
 1,-0.00010778,-0.00011060,-0.00000145,0.00012014,-0.00004306,-0.011966
 32,-0.00267111,-0.00491212,0.02516765,-0.01426596,-0.00878144,-0.00887
 622,-0.00111763,0.00247716,-0.05836298,-0.03947431,0.01669359,0.009483
 97,-0.06968167,-0.00061520,0.01489836,0.00570557,-0.03904163,0.0043567
 5,-0.00402988,-0.00570241,0.02255468,0.01572630,-0.00890624,-0.1220814
 8,0.35608028,0.00749555,0.00081450,0.00646860,-0.00066471,0.00056748,0
 .00103950,0.00055128,0.00087454,0.00003847,-0.00022039,-0.00055310,-0.
 00015694,0.00007447,0.00157653,0.00108927,0.00006287,-0.00003154,-0.00
 021032,0.00012787,0.00000728,-0.00017805,-0.01805925,-0.00274437,-0.01
 120366,0.00360069,-0.00223888,-0.00103835,0.00009750,0.00143827,0.0000
 0711,0.00329107,0.00507677,0.01141001,0.00780198,-0.03946491,-0.083137
 85,0.03767436,-0.03166983,-0.07672763,0.00412451,-0.00485075,-0.003916
 59,-0.00087653,0.00347262,-0.03051048,0.08512170,-0.16634268,0.4448244
 2,0.00075373,-0.00039118,-0.00214737,-0.00075081,0.00008919,0.00047306
 ,0.00049118,0.00021464,-0.00016781,0.00004459,0.00000314,0.00009212,-0
 .00058279,0.00075284,-0.00024261,0.00003430,-0.00002089,0.00003550,0.0
 0008398,0.00000330,0.00004340,0.00100342,0.00011562,0.00240940,0.00127
 194,-0.00245886,-0.00045061,-0.00033642,0.00065435,0.00017652,-0.00550
 191,-0.00314405,-0.00056597,0.00163875,-0.00184197,0.00100607,-0.00162
 618,0.00125903,0.00136037,-0.00017327,-0.00013311,-0.00012659,0.007964
 50,-0.00077530,0.00646152,-0.07443222,0.12260159,-0.13020297,0.0701172
 2,0.00042221,-0.00049199,-0.00071361,-0.00024852,-0.00032090,0.0002264
 7,0.00006062,-0.00020339,-0.00003194,0.00023232,0.00016338,0.00000692,
 -0.00013553,-0.00007142,-0.00015085,-0.00000086,-0.00000945,0.00001908
 ,0.00003698,0.00001014,0.00002198,0.00047470,0.00045871,0.00017342,-0.
 00104333,-0.00062899,0.00027005,-0.00008206,-0.00004860,0.00001604,-0.
 00260907,-0.00060660,-0.00127277,-0.00546322,0.01120994,-0.00526680,0.
 00225348,-0.00340510,-0.00304126,-0.00022250,-0.00000532,0.00028239,0.
 00716286,-0.00416186,0.00787293,0.11609026,-0.25345871,0.23406808,-0.1
 1692833,0.25157017,-0.00096360,0.00026471,0.00054735,0.00010856,0.0000
 2038,-0.00006219,-0.00038241,-0.00021282,0.00002269,-0.00010995,0.0000
 0785,-0.00003255,0.00018957,-0.00051842,0.00016396,-0.00003632,0.00001
 288,0.00001301,-0.00007863,-0.00000276,-0.00000656,0.00098961,0.000220
 96,-0.00203303,-0.00002454,0.00094713,0.00025906,-0.00035242,-0.000633
 13,-0.00007166,-0.00095466,-0.00164278,0.00005516,-0.01270783,0.025696
 06,-0.01259180,0.00338669,-0.00508784,-0.00162948,-0.00044291,0.000209
 09,0.00081436,0.00132122,0.00294397,-0.00050391,-0.11178836,0.21025485
 ,-0.25779752,0.12184596,-0.23248013,0.27285311\\0.00000523,-0.00001471
 ,0.00000065,0.00000312,0.00000013,-0.00000404,0.00000010,0.00000071,0.
 00000238,0.00000039,0.00000103,0.00000109,0.00000026,0.00000049,0.0000
 0193,-0.00000078,0.00000166,-0.00000033,0.00000082,0.00000173,0.000000
 05,-0.00000404,0.00002345,0.00000318,-0.00000255,-0.00000409,-0.000005
 68,-0.00000091,0.00000128,-0.00000073,-0.00001018,-0.00000497,0.000007
 70,0.00000265,-0.00000607,0.00001614,-0.00000208,-0.00000117,-0.000001
 16,0.00000296,0.00000002,-0.00000978,0.00000309,0.00000474,-0.00000451
 ,0.00000107,-0.00000413,-0.00000712,0.00000087,-0.00000010,0.00000024\
 \\@


 MEMORIES ARE LIKE AN ENGLISH GRAMMER LESSON -
 PRESENT TENSE, AND PAST PERFECT.
 Job cpu time:       0 days  1 hours 41 minutes 41.5 seconds.
 Elapsed time:       0 days  0 hours  5 minutes  5.7 seconds.
 File lengths (MBytes):  RWF=    190 Int=      0 D2E=      0 Chk=      7 Scr=      1
 Normal termination of Gaussian 16 at Sun Jun  4 22:28:53 2023.
