 Entering Gaussian System, Link 0=/opt/soft/g16/g16
 Initial command:
 /opt/soft/g16/l1.exe "/scratch/gongke2021/TS/Gau-19346.inp" -scrdir="/scratch/gongke2021/TS/"
 Entering Link 1 = /opt/soft/g16/l1.exe PID=     19347.
  
 Copyright (c) 1988,1990,1992,1993,1995,1998,2003,2009,2016,
            Gaussian, Inc.  All Rights Reserved.
  
 This is part of the Gaussian(R) 16 program.  It is based on
 the Gaussian(R) 09 system (copyright 2009, Gaussian, Inc.),
 the Gaussian(R) 03 system (copyright 2003, Gaussian, Inc.),
 the Gaussian(R) 98 system (copyright 1998, Gaussian, Inc.),
 the Gaussian(R) 94 system (copyright 1995, Gaussian, Inc.),
 the Gaussian 92(TM) system (copyright 1992, Gaussian, Inc.),
 the Gaussian 90(TM) system (copyright 1990, Gaussian, Inc.),
 the Gaussian 88(TM) system (copyright 1988, Gaussian, Inc.),
 the Gaussian 86(TM) system (copyright 1986, Carnegie Mellon
 University), and the Gaussian 82(TM) system (copyright 1983,
 Carnegie Mellon University). Gaussian is a federally registered
 trademark of Gaussian, Inc.
  
 This software contains proprietary and confidential information,
 including trade secrets, belonging to Gaussian, Inc.
  
 This software is provided under written license and may be
 used, copied, transmitted, or stored only in accord with that
 written license.
  
 The following legend is applicable only to US Government
 contracts under FAR:
  
                    RESTRICTED RIGHTS LEGEND
  
 Use, reproduction and disclosure by the US Government is
 subject to restrictions as set forth in subparagraphs (a)
 and (c) of the Commercial Computer Software - Restricted
 Rights clause in FAR 52.227-19.
  
 Gaussian, Inc.
 340 Quinnipiac St., Bldg. 40, Wallingford CT 06492
  
  
 ---------------------------------------------------------------
 Warning -- This program may not be used in any manner that
 competes with the business of Gaussian, Inc. or will provide
 assistance to any competitor of Gaussian, Inc.  The licensee
 of this program is prohibited from giving any competitor of
 Gaussian, Inc. access to this program.  By using this program,
 the user acknowledges that Gaussian, Inc. is engaged in the
 business of creating and licensing software in the field of
 computational chemistry and represents and warrants to the
 licensee that it is not a competitor of Gaussian, Inc. and that
 it will not use this program in any manner prohibited above.
 ---------------------------------------------------------------
  

 Cite this work as:
 Gaussian 16, Revision A.03,
 M. J. Frisch, G. W. Trucks, H. B. Schlegel, G. E. Scuseria, 
 M. A. Robb, J. R. Cheeseman, G. Scalmani, V. Barone, 
 G. A. Petersson, H. Nakatsuji, X. Li, M. Caricato, A. V. Marenich, 
 J. Bloino, B. G. Janesko, R. Gomperts, B. Mennucci, H. P. Hratchian, 
 J. V. Ortiz, A. F. Izmaylov, J. L. Sonnenberg, D. Williams-Young, 
 F. Ding, F. Lipparini, F. Egidi, J. Goings, B. Peng, A. Petrone, 
 T. Henderson, D. Ranasinghe, V. G. Zakrzewski, J. Gao, N. Rega, 
 G. Zheng, W. Liang, M. Hada, M. Ehara, K. Toyota, R. Fukuda, 
 J. Hasegawa, M. Ishida, T. Nakajima, Y. Honda, O. Kitao, H. Nakai, 
 T. Vreven, K. Throssell, J. A. Montgomery, Jr., J. E. Peralta, 
 F. Ogliaro, M. J. Bearpark, J. J. Heyd, E. N. Brothers, K. N. Kudin, 
 V. N. Staroverov, T. A. Keith, R. Kobayashi, J. Normand, 
 K. Raghavachari, A. P. Rendell, J. C. Burant, S. S. Iyengar, 
 J. Tomasi, M. Cossi, J. M. Millam, M. Klene, C. Adamo, R. Cammi, 
 J. W. Ochterski, R. L. Martin, K. Morokuma, O. Farkas, 
 J. B. Foresman, and D. J. Fox, Gaussian, Inc., Wallingford CT, 2016.
 
 ******************************************
 Gaussian 16:  ES64L-G16RevA.03 25-Dec-2016
                 4-Jun-2023 
 ******************************************
 %mem=10GB
 %nprocshared=24
 Will use up to   24 processors via shared memory.
 ----------------------------------------------------------------------
 # opt=(calcfc,ts,noeigentest) freq 6-31+g(d,p) integral=grid=ultrafine
  m062x
 ----------------------------------------------------------------------
 1/5=1,10=4,11=1,18=20,26=4,38=1/1,3;
 2/9=110,12=2,17=6,18=5,40=1/2;
 3/5=1,6=6,7=111,11=2,25=1,30=1,71=2,74=-55,75=-5,140=1/1,2,3;
 4//1;
 5/5=2,38=5/2;
 8/6=4,10=90,11=11/1;
 11/6=1,8=1,9=11,15=111,16=1/1,2,10;
 10/6=1,13=1/2;
 6/7=2,8=2,9=2,10=2,28=1/1;
 7/10=1,18=20,25=1/1,2,3,16;
 1/5=1,10=4,11=1,18=20,26=4/3(2);
 2/9=110/2;
 99//99;
 2/9=110/2;
 3/5=1,6=6,7=111,11=2,25=1,30=1,71=1,74=-55,75=-5/1,2,3;
 4/5=5,16=3,69=1/1;
 5/5=2,38=5/2;
 7//1,2,3,16;
 1/5=1,11=1,18=20,26=4/3(-5);
 2/9=110/2;
 6/7=2,8=2,9=2,10=2,19=2,28=1/1;
 99/9=1/99;
 ----
 test
 ----
 Symbolic Z-matrix:
 Charge = -1 Multiplicity = 2
 N                    -0.47029  -0.96876   0.43603 
 N                    -0.34354   0.32851  -0.08951 
 C                    -1.62672   0.77241  -0.32646 
 C                    -2.44902  -0.31142  -0.12504 
 N                    -1.76541  -1.40858   0.2589 
 H                    -1.79941   1.79514  -0.61406 
 H                    -3.52187  -0.36009  -0.2538 
 H                     0.88592  -1.65637   0.11594 
 C                     0.83902   1.15747   0.11349 
 O                     0.66633   2.35589  -0.12987 
 O                     1.86447   0.5222    0.46917 
 H                     2.44924  -1.79931  -1.28422 
 O                     2.20955  -1.9272   -0.3623 
 H                     2.1792   -0.70234   0.02551 
 
 Add virtual bond connecting atoms H14        and O13        Dist= 2.43D+00.
 Add virtual bond connecting atoms H14        and O11        Dist= 2.53D+00.
 Add virtual bond connecting atoms N1         and H8         Dist= 2.94D+00.
 Add virtual bond connecting atoms O13        and H8         Dist= 2.71D+00.

 GradGradGradGradGradGradGradGradGradGradGradGradGradGradGradGradGradGrad
 Berny optimization.
 Initialization pass.
                           ----------------------------
                           !    Initial Parameters    !
                           ! (Angstroms and Degrees)  !
 --------------------------                            --------------------------
 ! Name  Definition              Value          Derivative Info.                !
 --------------------------------------------------------------------------------
 ! R1    R(1,2)                  1.4054         calculate D2E/DX2 analytically  !
 ! R2    R(1,5)                  1.3792         calculate D2E/DX2 analytically  !
 ! R3    R(1,8)                  1.5539         calculate D2E/DX2 analytically  !
 ! R4    R(2,3)                  1.3783         calculate D2E/DX2 analytically  !
 ! R5    R(2,9)                  1.4584         calculate D2E/DX2 analytically  !
 ! R6    R(3,4)                  1.3753         calculate D2E/DX2 analytically  !
 ! R7    R(3,6)                  1.0763         calculate D2E/DX2 analytically  !
 ! R8    R(4,5)                  1.3485         calculate D2E/DX2 analytically  !
 ! R9    R(4,7)                  1.0816         calculate D2E/DX2 analytically  !
 ! R10   R(8,13)                 1.4332         calculate D2E/DX2 analytically  !
 ! R11   R(9,10)                 1.235          calculate D2E/DX2 analytically  !
 ! R12   R(9,11)                 1.2576         calculate D2E/DX2 analytically  !
 ! R13   R(11,14)                1.3399         calculate D2E/DX2 analytically  !
 ! R14   R(12,13)                0.9611         calculate D2E/DX2 analytically  !
 ! R15   R(13,14)                1.2851         calculate D2E/DX2 analytically  !
 ! A1    A(2,1,5)              109.3308         calculate D2E/DX2 analytically  !
 ! A2    A(2,1,8)              104.6385         calculate D2E/DX2 analytically  !
 ! A3    A(5,1,8)              130.6936         calculate D2E/DX2 analytically  !
 ! A4    A(1,2,3)              106.1174         calculate D2E/DX2 analytically  !
 ! A5    A(1,2,9)              123.0765         calculate D2E/DX2 analytically  !
 ! A6    A(3,2,9)              126.5682         calculate D2E/DX2 analytically  !
 ! A7    A(2,3,4)              106.1203         calculate D2E/DX2 analytically  !
 ! A8    A(2,3,6)              120.0875         calculate D2E/DX2 analytically  !
 ! A9    A(4,3,6)              133.7905         calculate D2E/DX2 analytically  !
 ! A10   A(3,4,5)              112.3198         calculate D2E/DX2 analytically  !
 ! A11   A(3,4,7)              127.6666         calculate D2E/DX2 analytically  !
 ! A12   A(5,4,7)              120.007          calculate D2E/DX2 analytically  !
 ! A13   A(1,5,4)              104.6639         calculate D2E/DX2 analytically  !
 ! A14   A(1,8,13)             163.419          calculate D2E/DX2 analytically  !
 ! A15   A(2,9,10)             114.2524         calculate D2E/DX2 analytically  !
 ! A16   A(2,9,11)             114.4198         calculate D2E/DX2 analytically  !
 ! A17   A(10,9,11)            131.2934         calculate D2E/DX2 analytically  !
 ! A18   A(9,11,14)            124.0228         calculate D2E/DX2 analytically  !
 ! A19   A(8,13,12)            121.6854         calculate D2E/DX2 analytically  !
 ! A20   A(8,13,14)             72.3855         calculate D2E/DX2 analytically  !
 ! A21   A(12,13,14)            99.7023         calculate D2E/DX2 analytically  !
 ! A22   L(11,14,13,1,-1)      167.5505         calculate D2E/DX2 analytically  !
 ! A23   L(11,14,13,1,-2)      180.1209         calculate D2E/DX2 analytically  !
 ! D1    D(5,1,2,3)             12.3658         calculate D2E/DX2 analytically  !
 ! D2    D(5,1,2,9)            170.5366         calculate D2E/DX2 analytically  !
 ! D3    D(8,1,2,3)            156.0512         calculate D2E/DX2 analytically  !
 ! D4    D(8,1,2,9)            -45.778          calculate D2E/DX2 analytically  !
 ! D5    D(2,1,5,4)            -11.1844         calculate D2E/DX2 analytically  !
 ! D6    D(8,1,5,4)           -142.0958         calculate D2E/DX2 analytically  !
 ! D7    D(2,1,8,13)            -2.4648         calculate D2E/DX2 analytically  !
 ! D8    D(5,1,8,13)           130.0551         calculate D2E/DX2 analytically  !
 ! D9    D(1,2,3,4)             -8.3224         calculate D2E/DX2 analytically  !
 ! D10   D(1,2,3,6)            172.0978         calculate D2E/DX2 analytically  !
 ! D11   D(9,2,3,4)           -165.4953         calculate D2E/DX2 analytically  !
 ! D12   D(9,2,3,6)             14.9249         calculate D2E/DX2 analytically  !
 ! D13   D(1,2,9,10)          -163.5212         calculate D2E/DX2 analytically  !
 ! D14   D(1,2,9,11)            18.3657         calculate D2E/DX2 analytically  !
 ! D15   D(3,2,9,10)            -9.9306         calculate D2E/DX2 analytically  !
 ! D16   D(3,2,9,11)           171.9563         calculate D2E/DX2 analytically  !
 ! D17   D(2,3,4,5)              1.5719         calculate D2E/DX2 analytically  !
 ! D18   D(2,3,4,7)           -177.4811         calculate D2E/DX2 analytically  !
 ! D19   D(6,3,4,5)           -178.9317         calculate D2E/DX2 analytically  !
 ! D20   D(6,3,4,7)              2.0152         calculate D2E/DX2 analytically  !
 ! D21   D(3,4,5,1)              5.9613         calculate D2E/DX2 analytically  !
 ! D22   D(7,4,5,1)           -174.9043         calculate D2E/DX2 analytically  !
 ! D23   D(1,8,13,12)          -52.7346         calculate D2E/DX2 analytically  !
 ! D24   D(1,8,13,14)           37.9423         calculate D2E/DX2 analytically  !
 ! D25   D(2,9,11,14)           36.5302         calculate D2E/DX2 analytically  !
 ! D26   D(10,9,11,14)        -141.1799         calculate D2E/DX2 analytically  !
 ! D27   D(9,11,13,8)          -45.8247         calculate D2E/DX2 analytically  !
 ! D28   D(9,11,13,12)          73.5923         calculate D2E/DX2 analytically  !
 --------------------------------------------------------------------------------
 Trust Radius=3.00D-01 FncErr=1.00D-07 GrdErr=1.00D-06 EigMax=2.50D+02 EigMin=1.00D-04
 Number of steps in this run=     76 maximum allowed number of steps=    100.
 Search for a saddle point of order  1.
 GradGradGradGradGradGradGradGradGradGradGradGradGradGradGradGradGradGrad

                          Input orientation:                          
 ---------------------------------------------------------------------
 Center     Atomic      Atomic             Coordinates (Angstroms)
 Number     Number       Type             X           Y           Z
 ---------------------------------------------------------------------
      1          7           0       -0.470288   -0.968764    0.436034
      2          7           0       -0.343542    0.328509   -0.089506
      3          6           0       -1.626720    0.772407   -0.326459
      4          6           0       -2.449019   -0.311424   -0.125038
      5          7           0       -1.765407   -1.408582    0.258901
      6          1           0       -1.799410    1.795140   -0.614059
      7          1           0       -3.521865   -0.360085   -0.253796
      8          1           0        0.885918   -1.656373    0.115940
      9          6           0        0.839024    1.157471    0.113493
     10          8           0        0.666330    2.355891   -0.129874
     11          8           0        1.864467    0.522203    0.469168
     12          1           0        2.449243   -1.799311   -1.284218
     13          8           0        2.209553   -1.927200   -0.362299
     14          1           0        2.179199   -0.702344    0.025514
 ---------------------------------------------------------------------
                    Distance matrix (angstroms):
                    1          2          3          4          5
     1  N    0.000000
     2  N    1.405409   0.000000
     3  C    2.224951   1.378310   0.000000
     4  C    2.159230   2.200866   1.375295   0.000000
     5  N    1.379184   2.271689   2.262431   1.348514   0.000000
     6  H    3.241670   2.132068   1.076345   2.258040   3.320700
     7  H    3.187237   3.256208   2.208935   1.081640   2.108874
     8  H    1.553885   2.343829   3.522504   3.603992   2.666713
     9  C    2.517778   1.458372   2.534112   3.609124   3.659075
    10  O    3.558860   2.265336   2.793590   4.101218   4.498416
    11  O    2.770408   2.285812   3.589430   4.433303   4.116810
    12  H    3.488945   3.708720   4.913706   5.248855   4.505237
    13  O    2.955923   3.417738   4.691072   4.936529   4.056496
    14  H    2.694307   2.727657   4.096803   4.647138   4.014120
                    6          7          8          9         10
     6  H    0.000000
     7  H    2.782379   0.000000
     8  H    4.433602   4.609297   0.000000
     9  C    2.810211   4.631979   2.814235   0.000000
    10  O    2.574636   4.993281   4.025780   1.235015   0.000000
    11  O    4.027126   5.505786   2.414233   1.257618   2.270858
    12  H    5.605376   6.227943   2.103535   3.645403   4.666583
    13  O    5.476402   5.942792   1.433203   3.408801   4.558555
    14  H    4.740866   5.718154   1.609635   2.294063   3.415512
                   11         12         13         14
    11  O    0.000000
    12  H    2.967449   0.000000
    13  O    2.609597   0.961115   0.000000
    14  H    1.339926   1.729641   1.285143   0.000000
 Stoichiometry    C3H5N3O3(1-,2)
 Framework group  C1[X(C3H5N3O3)]
 Deg. of freedom    36
 Full point group                 C1      NOp   1
 Largest Abelian subgroup         C1      NOp   1
 Largest concise Abelian subgroup C1      NOp   1
                         Standard orientation:                         
 ---------------------------------------------------------------------
 Center     Atomic      Atomic             Coordinates (Angstroms)
 Number     Number       Type             X           Y           Z
 ---------------------------------------------------------------------
      1          7           0        0.472512   -0.975966   -0.435896
      2          7           0        0.355330    0.322267    0.089494
      3          6           0        1.641776    0.757006    0.325706
      4          6           0        2.456190   -0.332717    0.124038
      5          7           0        1.764542   -1.425015   -0.259363
      6          1           0        1.821933    1.778523    0.613046
      7          1           0        3.528727   -0.389036    0.252247
      8          1           0       -0.888414   -1.653795   -0.114983
      9          6           0       -0.821376    1.159641   -0.113029
     10          8           0       -0.639981    2.356833    0.130049
     11          8           0       -1.851526    0.531672   -0.468065
     12          1           0       -2.451994   -1.785310    1.286011
     13          8           0       -2.213705   -1.915062    0.363989
     14          1           0       -2.174786   -0.690518   -0.024044
 ---------------------------------------------------------------------
 Rotational constants (GHZ):           2.0900385           1.4744489           0.9057704
 Standard basis: 6-31+G(d,p) (6D, 7F)
 There are   196 symmetry adapted cartesian basis functions of A   symmetry.
 There are   196 symmetry adapted basis functions of A   symmetry.
   196 basis functions,   323 primitive gaussians,   196 cartesian basis functions
    35 alpha electrons       34 beta electrons
       nuclear repulsion energy       451.3552055536 Hartrees.
 NAtoms=   14 NActive=   14 NUniq=   14 SFac= 1.00D+00 NAtFMM=   60 NAOKFM=F Big=F
 Integral buffers will be    131072 words long.
 Raffenetti 2 integral format.
 Two-electron integral symmetry is turned on.
 One-electron integrals computed using PRISM.
 NBasis=   196 RedAO= T EigKep=  2.98D-05  NBF=   196
 NBsUse=   196 1.00D-06 EigRej= -1.00D+00 NBFU=   196
 ExpMin= 4.38D-02 ExpMax= 5.48D+03 ExpMxC= 8.25D+02 IAcc=3 IRadAn=         5 AccDes= 0.00D+00
 Harris functional with IExCor= 1009 and IRadAn=       5 diagonalized for initial guess.
 HarFok:  IExCor= 1009 AccDes= 0.00D+00 IRadAn=         5 IDoV= 1 UseB2=F ITyADJ=14
 ICtDFT=  3500011 ScaDFX=  1.000000  1.000000  1.000000  1.000000
 FoFCou: FMM=F IPFlag=           0 FMFlag=      100000 FMFlg1=           0
         NFxFlg=           0 DoJE=T BraDBF=F KetDBF=T FulRan=T
         wScrn=  0.000000 ICntrl=       500 IOpCl=  0 I1Cent=   200000004 NGrid=           0
         NMat0=    1 NMatS0=      1 NMatT0=    0 NMatD0=    1 NMtDS0=    0 NMtDT0=    0
 Petite list used in FoFCou.
 Initial guess <Sx>= 0.0000 <Sy>= 0.0000 <Sz>= 0.5000 <S**2>= 0.7500 S= 0.5000
 Requested convergence on RMS density matrix=1.00D-08 within 128 cycles.
 Requested convergence on MAX density matrix=1.00D-06.
 Requested convergence on             energy=1.00D-06.
 No special actions if energy rises.
 SCF Done:  E(UM062X) =  -507.012605406     A.U. after   20 cycles
            NFock= 20  Conv=0.46D-08     -V/T= 2.0091
 <Sx>= 0.0000 <Sy>= 0.0000 <Sz>= 0.5000 <S**2>= 0.7631 S= 0.5065
 <L.S>=  0.00000000000    
 Annihilation of the first spin contaminant:
 S**2 before annihilation     0.7631,   after     0.7501
 DoSCS=F DFT=T ScalE2(SS,OS)=  1.000000  1.000000
 Range of M.O.s used for correlation:     1   196
 NBasis=   196 NAE=    35 NBE=    34 NFC=     0 NFV=     0
 NROrb=    196 NOA=    35 NOB=    34 NVA=   161 NVB=   162

 **** Warning!!: The largest alpha MO coefficient is  0.52264778D+02


 **** Warning!!: The largest beta MO coefficient is  0.53080980D+02

 Symmetrizing basis deriv contribution to polar:
 IMax=3 JMax=2 DiffMx= 0.00D+00
 G2DrvN: will do    15 centers at a time, making    1 passes.
 Calling FoFCou, ICntrl=  3107 FMM=F I1Cent=   0 AccDes= 0.00D+00.
 End of G2Drv F.D. properties file   721 does not exist.
 End of G2Drv F.D. properties file   722 does not exist.
 End of G2Drv F.D. properties file   788 does not exist.
          IDoAtm=11111111111111
          Differentiating once with respect to nuclear coordinates.
 Keep R1 and R2 ints in memory in canonical form, NReq=397284511.
          There are    45 degrees of freedom in the 1st order CPHF.  IDoFFX=6 NUNeed=     0.
     39 vectors produced by pass  0 Test12= 2.48D-14 2.22D-09 XBig12= 2.32D-01 6.74D-02.
 AX will form    39 AO Fock derivatives at one time.
     39 vectors produced by pass  1 Test12= 2.48D-14 2.22D-09 XBig12= 3.02D-02 5.50D-02.
     39 vectors produced by pass  2 Test12= 2.48D-14 2.22D-09 XBig12= 1.41D-03 4.90D-03.
     39 vectors produced by pass  3 Test12= 2.48D-14 2.22D-09 XBig12= 2.26D-05 6.50D-04.
     39 vectors produced by pass  4 Test12= 2.48D-14 2.22D-09 XBig12= 3.86D-07 8.26D-05.
     39 vectors produced by pass  5 Test12= 2.48D-14 2.22D-09 XBig12= 4.07D-09 6.68D-06.
     39 vectors produced by pass  6 Test12= 2.48D-14 2.22D-09 XBig12= 3.78D-11 5.20D-07.
     32 vectors produced by pass  7 Test12= 2.48D-14 2.22D-09 XBig12= 3.66D-13 5.31D-08.
      9 vectors produced by pass  8 Test12= 2.48D-14 2.22D-09 XBig12= 3.45D-15 4.82D-09.
 InvSVY:  IOpt=1 It=  1 EMax= 1.33D-15
 Solved reduced A of dimension   314 with    39 vectors.
 End of Minotr F.D. properties file   721 does not exist.
 End of Minotr F.D. properties file   722 does not exist.
 End of Minotr F.D. properties file   788 does not exist.

 **********************************************************************

            Population analysis using the SCF density.

 **********************************************************************

 Orbital symmetries:
 Alpha Orbitals:
       Occupied  (A) (A) (A) (A) (A) (A) (A) (A) (A) (A) (A) (A)
                 (A) (A) (A) (A) (A) (A) (A) (A) (A) (A) (A) (A)
                 (A) (A) (A) (A) (A) (A) (A) (A) (A) (A) (A)
       Virtual   (A) (A) (A) (A) (A) (A) (A) (A) (A) (A) (A) (A)
                 (A) (A) (A) (A) (A) (A) (A) (A) (A) (A) (A) (A)
                 (A) (A) (A) (A) (A) (A) (A) (A) (A) (A) (A) (A)
                 (A) (A) (A) (A) (A) (A) (A) (A) (A) (A) (A) (A)
                 (A) (A) (A) (A) (A) (A) (A) (A) (A) (A) (A) (A)
                 (A) (A) (A) (A) (A) (A) (A) (A) (A) (A) (A) (A)
                 (A) (A) (A) (A) (A) (A) (A) (A) (A) (A) (A) (A)
                 (A) (A) (A) (A) (A) (A) (A) (A) (A) (A) (A) (A)
                 (A) (A) (A) (A) (A) (A) (A) (A) (A) (A) (A) (A)
                 (A) (A) (A) (A) (A) (A) (A) (A) (A) (A) (A) (A)
                 (A) (A) (A) (A) (A) (A) (A) (A) (A) (A) (A) (A)
                 (A) (A) (A) (A) (A) (A) (A) (A) (A) (A) (A) (A)
                 (A) (A) (A) (A) (A) (A) (A) (A) (A) (A) (A) (A)
                 (A) (A) (A) (A) (A)
 Beta  Orbitals:
       Occupied  (A) (A) (A) (A) (A) (A) (A) (A) (A) (A) (A) (A)
                 (A) (A) (A) (A) (A) (A) (A) (A) (A) (A) (A) (A)
                 (A) (A) (A) (A) (A) (A) (A) (A) (A) (A)
       Virtual   (A) (A) (A) (A) (A) (A) (A) (A) (A) (A) (A) (A)
                 (A) (A) (A) (A) (A) (A) (A) (A) (A) (A) (A) (A)
                 (A) (A) (A) (A) (A) (A) (A) (A) (A) (A) (A) (A)
                 (A) (A) (A) (A) (A) (A) (A) (A) (A) (A) (A) (A)
                 (A) (A) (A) (A) (A) (A) (A) (A) (A) (A) (A) (A)
                 (A) (A) (A) (A) (A) (A) (A) (A) (A) (A) (A) (A)
                 (A) (A) (A) (A) (A) (A) (A) (A) (A) (A) (A) (A)
                 (A) (A) (A) (A) (A) (A) (A) (A) (A) (A) (A) (A)
                 (A) (A) (A) (A) (A) (A) (A) (A) (A) (A) (A) (A)
                 (A) (A) (A) (A) (A) (A) (A) (A) (A) (A) (A) (A)
                 (A) (A) (A) (A) (A) (A) (A) (A) (A) (A) (A) (A)
                 (A) (A) (A) (A) (A) (A) (A) (A) (A) (A) (A) (A)
                 (A) (A) (A) (A) (A) (A) (A) (A) (A) (A) (A) (A)
                 (A) (A) (A) (A) (A) (A)
 The electronic state is 2-A.
 Alpha  occ. eigenvalues --  -19.53300 -19.49184 -19.45752 -14.66968 -14.66576
 Alpha  occ. eigenvalues --  -14.61798 -10.54359 -10.42291 -10.42016  -1.06100
 Alpha  occ. eigenvalues --   -1.00462  -0.98427  -0.95385  -0.83420  -0.73188
 Alpha  occ. eigenvalues --   -0.60072  -0.53254  -0.50404  -0.49066  -0.43134
 Alpha  occ. eigenvalues --   -0.40489  -0.38778  -0.37442  -0.34678  -0.34338
 Alpha  occ. eigenvalues --   -0.32124  -0.31692  -0.25021  -0.23325  -0.22435
 Alpha  occ. eigenvalues --   -0.21626  -0.20562  -0.18511  -0.17609  -0.00675
 Alpha virt. eigenvalues --    0.13732   0.14898   0.16659   0.17698   0.18354
 Alpha virt. eigenvalues --    0.18596   0.19055   0.21315   0.22344   0.24051
 Alpha virt. eigenvalues --    0.24236   0.24695   0.25766   0.26616   0.28179
 Alpha virt. eigenvalues --    0.28856   0.29698   0.30557   0.32398   0.33365
 Alpha virt. eigenvalues --    0.34441   0.35695   0.35899   0.37133   0.37907
 Alpha virt. eigenvalues --    0.38703   0.39030   0.39466   0.40371   0.40830
 Alpha virt. eigenvalues --    0.41775   0.42230   0.43049   0.44128   0.44192
 Alpha virt. eigenvalues --    0.45725   0.45881   0.46948   0.48105   0.48413
 Alpha virt. eigenvalues --    0.49005   0.51654   0.53025   0.54791   0.55305
 Alpha virt. eigenvalues --    0.59521   0.60161   0.63758   0.65763   0.67836
 Alpha virt. eigenvalues --    0.79795   0.88180   0.89639   0.93019   0.97269
 Alpha virt. eigenvalues --    0.98071   1.02137   1.04464   1.05378   1.08928
 Alpha virt. eigenvalues --    1.09868   1.13074   1.13980   1.15470   1.16093
 Alpha virt. eigenvalues --    1.18416   1.19853   1.20874   1.22648   1.25438
 Alpha virt. eigenvalues --    1.27475   1.30364   1.31320   1.32902   1.34339
 Alpha virt. eigenvalues --    1.37720   1.40375   1.43661   1.45593   1.46168
 Alpha virt. eigenvalues --    1.47864   1.49144   1.51769   1.51984   1.55713
 Alpha virt. eigenvalues --    1.56704   1.58673   1.61501   1.63571   1.64581
 Alpha virt. eigenvalues --    1.65847   1.66960   1.68667   1.69967   1.74000
 Alpha virt. eigenvalues --    1.74597   1.77984   1.79079   1.84117   1.90228
 Alpha virt. eigenvalues --    1.92389   1.96314   1.99739   2.00821   2.04988
 Alpha virt. eigenvalues --    2.07348   2.08657   2.12830   2.14390   2.18130
 Alpha virt. eigenvalues --    2.19067   2.21119   2.25635   2.30157   2.32100
 Alpha virt. eigenvalues --    2.34025   2.36358   2.39285   2.41993   2.45486
 Alpha virt. eigenvalues --    2.46575   2.47352   2.48687   2.54694   2.56607
 Alpha virt. eigenvalues --    2.59709   2.63926   2.69419   2.71281   2.72739
 Alpha virt. eigenvalues --    2.75754   2.76380   2.80526   2.85786   2.87971
 Alpha virt. eigenvalues --    2.90577   2.96617   2.97994   3.00685   3.03324
 Alpha virt. eigenvalues --    3.07298   3.11185   3.21720   3.23133   3.27641
 Alpha virt. eigenvalues --    3.36440   3.40279   3.45446   3.47323   3.56564
 Alpha virt. eigenvalues --    3.86423   3.89443   4.18463   4.33665   4.39614
 Alpha virt. eigenvalues --    4.42203   4.46371   4.61182   4.72060   4.80775
 Alpha virt. eigenvalues --    4.86363
  Beta  occ. eigenvalues --  -19.53261 -19.49150 -19.45649 -14.66684 -14.66051
  Beta  occ. eigenvalues --  -14.61360 -10.54333 -10.42393 -10.41843  -1.05713
  Beta  occ. eigenvalues --   -0.99426  -0.98285  -0.95146  -0.82135  -0.72244
  Beta  occ. eigenvalues --   -0.58913  -0.52732  -0.50215  -0.48277  -0.42889
  Beta  occ. eigenvalues --   -0.39002  -0.38223  -0.37222  -0.34115  -0.33293
  Beta  occ. eigenvalues --   -0.31762  -0.30998  -0.23987  -0.22900  -0.21188
  Beta  occ. eigenvalues --   -0.20521  -0.18360  -0.17159  -0.14403
  Beta virt. eigenvalues --    0.13399   0.14161   0.15077   0.15698   0.17379
  Beta virt. eigenvalues --    0.17970   0.18228   0.19187   0.20318   0.21085
  Beta virt. eigenvalues --    0.23274   0.24164   0.25173   0.25304   0.26151
  Beta virt. eigenvalues --    0.28171   0.28374   0.29565   0.30338   0.32303
  Beta virt. eigenvalues --    0.33064   0.34264   0.35644   0.35812   0.36852
  Beta virt. eigenvalues --    0.37454   0.38376   0.39062   0.39240   0.40080
  Beta virt. eigenvalues --    0.40945   0.41665   0.42223   0.42635   0.43926
  Beta virt. eigenvalues --    0.43999   0.45436   0.45769   0.46906   0.47982
  Beta virt. eigenvalues --    0.48105   0.48760   0.51475   0.52535   0.54572
  Beta virt. eigenvalues --    0.55176   0.59576   0.60135   0.64231   0.65823
  Beta virt. eigenvalues --    0.68066   0.79991   0.88193   0.89275   0.93745
  Beta virt. eigenvalues --    0.97265   0.98246   1.02216   1.04621   1.05518
  Beta virt. eigenvalues --    1.09137   1.10406   1.13588   1.14498   1.15970
  Beta virt. eigenvalues --    1.17232   1.19107   1.20763   1.21603   1.22981
  Beta virt. eigenvalues --    1.25713   1.27634   1.30442   1.31281   1.32864
  Beta virt. eigenvalues --    1.34423   1.37908   1.40607   1.43762   1.45732
  Beta virt. eigenvalues --    1.46366   1.48320   1.49471   1.51939   1.52279
  Beta virt. eigenvalues --    1.56169   1.56914   1.58725   1.61654   1.64004
  Beta virt. eigenvalues --    1.64866   1.66272   1.67707   1.69095   1.70143
  Beta virt. eigenvalues --    1.74299   1.74729   1.78511   1.79453   1.84197
  Beta virt. eigenvalues --    1.90356   1.92517   1.96624   1.99936   2.01058
  Beta virt. eigenvalues --    2.05329   2.07762   2.08868   2.13015   2.14571
  Beta virt. eigenvalues --    2.18443   2.19414   2.21268   2.26120   2.30584
  Beta virt. eigenvalues --    2.32331   2.34471   2.36743   2.39580   2.42601
  Beta virt. eigenvalues --    2.45861   2.47044   2.47690   2.49286   2.55067
  Beta virt. eigenvalues --    2.56729   2.60219   2.64184   2.69695   2.71824
  Beta virt. eigenvalues --    2.73105   2.76132   2.76708   2.80891   2.86039
  Beta virt. eigenvalues --    2.88353   2.91132   2.96937   2.98091   3.01279
  Beta virt. eigenvalues --    3.03943   3.07588   3.11609   3.21989   3.23392
  Beta virt. eigenvalues --    3.27814   3.36634   3.40536   3.45706   3.47563
  Beta virt. eigenvalues --    3.56641   3.86510   3.89825   4.18832   4.33703
  Beta virt. eigenvalues --    4.39672   4.42229   4.46443   4.60966   4.72586
  Beta virt. eigenvalues --    4.80849   4.87042
          Condensed to atoms (all electrons):
               1          2          3          4          5          6
     1  N    7.724329  -0.412954  -0.624794   0.526018  -0.262158   0.000955
     2  N   -0.412954   7.809437   0.283127  -0.282380   0.138616  -0.050981
     3  C   -0.624794   0.283127   7.338350  -1.054680   0.154562   0.464494
     4  C    0.526018  -0.282380  -1.054680   6.492790   0.034831  -0.076503
     5  N   -0.262158   0.138616   0.154562   0.034831   7.300353   0.006600
     6  H    0.000955  -0.050981   0.464494  -0.076503   0.006600   0.496271
     7  H    0.004598  -0.013176  -0.002374   0.364523  -0.045365   0.000572
     8  H    0.160028   0.037001   0.017574  -0.002659  -0.019756  -0.000029
     9  C    0.071749   0.166635  -0.358404   0.117124  -0.009674  -0.007901
    10  O    0.021472  -0.172033  -0.040352   0.051295  -0.005916  -0.004333
    11  O    0.012954  -0.202839   0.052633   0.001594  -0.000137  -0.000757
    12  H    0.004227  -0.003495   0.000004  -0.000290  -0.000476  -0.000000
    13  O   -0.120696   0.059873   0.030657  -0.016543   0.011076   0.000039
    14  H   -0.021769   0.023175   0.010241  -0.008568   0.008514   0.000003
               7          8          9         10         11         12
     1  N    0.004598   0.160028   0.071749   0.021472   0.012954   0.004227
     2  N   -0.013176   0.037001   0.166635  -0.172033  -0.202839  -0.003495
     3  C   -0.002374   0.017574  -0.358404  -0.040352   0.052633   0.000004
     4  C    0.364523  -0.002659   0.117124   0.051295   0.001594  -0.000290
     5  N   -0.045365  -0.019756  -0.009674  -0.005916  -0.000137  -0.000476
     6  H    0.000572  -0.000029  -0.007901  -0.004333  -0.000757  -0.000000
     7  H    0.572019  -0.000034  -0.000650  -0.000145   0.000002  -0.000000
     8  H   -0.000034   0.373471  -0.008679   0.000983   0.003805  -0.004355
     9  C   -0.000650  -0.008679   4.559297   0.490216   0.251993   0.003041
    10  O   -0.000145   0.000983   0.490216   8.372342  -0.114826   0.000012
    11  O    0.000002   0.003805   0.251993  -0.114826   8.613213   0.000725
    12  H   -0.000000  -0.004355   0.003041   0.000012   0.000725   0.366521
    13  O    0.000023   0.049964  -0.022546  -0.002972  -0.067065   0.273216
    14  H    0.000000  -0.004890  -0.011993   0.000643   0.106548  -0.010481
              13         14
     1  N   -0.120696  -0.021769
     2  N    0.059873   0.023175
     3  C    0.030657   0.010241
     4  C   -0.016543  -0.008568
     5  N    0.011076   0.008514
     6  H    0.000039   0.000003
     7  H    0.000023   0.000000
     8  H    0.049964  -0.004890
     9  C   -0.022546  -0.011993
    10  O   -0.002972   0.000643
    11  O   -0.067065   0.106548
    12  H    0.273216  -0.010481
    13  O    8.507432   0.141594
    14  H    0.141594   0.296382
          Atomic-Atomic Spin Densities.
               1          2          3          4          5          6
     1  N    0.594266  -0.211485   0.178861  -0.019613  -0.275089   0.000319
     2  N   -0.211485   0.438042  -0.263310   0.018640   0.099465   0.002444
     3  C    0.178861  -0.263310   0.444500   0.068369  -0.080770  -0.007635
     4  C   -0.019613   0.018640   0.068369  -0.224586  -0.026144   0.005361
     5  N   -0.275089   0.099465  -0.080770  -0.026144   0.646636  -0.000855
     6  H    0.000319   0.002444  -0.007635   0.005361  -0.000855  -0.012982
     7  H    0.002458   0.000143  -0.002210   0.004231  -0.003696   0.000016
     8  H    0.044289  -0.018647  -0.009899   0.008282  -0.028811   0.000002
     9  C   -0.025827   0.064414  -0.044358   0.014431  -0.015091   0.000703
    10  O    0.004961  -0.023452   0.020287  -0.002895  -0.000242   0.000326
    11  O    0.013673  -0.025082   0.010163  -0.003225   0.001010   0.000131
    12  H    0.001886  -0.001338   0.000178   0.000051  -0.000671  -0.000000
    13  O   -0.021371   0.012638   0.002788  -0.003373   0.015396   0.000000
    14  H    0.001203  -0.001553  -0.000448   0.000344  -0.000675  -0.000000
               7          8          9         10         11         12
     1  N    0.002458   0.044289  -0.025827   0.004961   0.013673   0.001886
     2  N    0.000143  -0.018647   0.064414  -0.023452  -0.025082  -0.001338
     3  C   -0.002210  -0.009899  -0.044358   0.020287   0.010163   0.000178
     4  C    0.004231   0.008282   0.014431  -0.002895  -0.003225   0.000051
     5  N   -0.003696  -0.028811  -0.015091  -0.000242   0.001010  -0.000671
     6  H    0.000016   0.000002   0.000703   0.000326   0.000131  -0.000000
     7  H    0.003606   0.000003   0.000056   0.000003   0.000002   0.000000
     8  H    0.000003   0.051295   0.010163  -0.000068   0.000347   0.000919
     9  C    0.000056   0.010163   0.083251  -0.034072  -0.016303   0.000271
    10  O    0.000003  -0.000068  -0.034072   0.080313   0.007172   0.000016
    11  O    0.000002   0.000347  -0.016303   0.007172   0.029395   0.000513
    12  H    0.000000   0.000919   0.000271   0.000016   0.000513   0.000151
    13  O   -0.000002  -0.027069  -0.006013   0.000072  -0.001293  -0.001029
    14  H    0.000000   0.001656   0.000992  -0.000050   0.000735   0.000324
              13         14
     1  N   -0.021371   0.001203
     2  N    0.012638  -0.001553
     3  C    0.002788  -0.000448
     4  C   -0.003373   0.000344
     5  N    0.015396  -0.000675
     6  H    0.000000  -0.000000
     7  H   -0.000002   0.000000
     8  H   -0.027069   0.001656
     9  C   -0.006013   0.000992
    10  O    0.000072  -0.000050
    11  O   -0.001293   0.000735
    12  H   -0.001029   0.000324
    13  O    0.036094  -0.002446
    14  H   -0.002446   0.000817
 Mulliken charges and spin densities:
               1          2
     1  N   -0.083957   0.288533
     2  N   -0.380006   0.090920
     3  C   -0.271037   0.316516
     4  C   -0.146552  -0.160127
     5  N   -0.311070   0.330465
     6  H    0.171570  -0.012169
     7  H    0.120008   0.004609
     8  H    0.397578   0.032462
     9  C    0.759792   0.032620
    10  O   -0.596385   0.052369
    11  O   -0.657841   0.017239
    12  H    0.371351   0.001273
    13  O   -0.844052   0.004392
    14  H    0.470601   0.000898
 Sum of Mulliken charges =  -1.00000   1.00000
 Mulliken charges and spin densities with hydrogens summed into heavy atoms:
               1          2
     1  N   -0.083957   0.288533
     2  N   -0.380006   0.090920
     3  C   -0.099467   0.304347
     4  C   -0.026545  -0.155518
     5  N   -0.311070   0.330465
     9  C    0.759792   0.032620
    10  O   -0.596385   0.052369
    11  O   -0.657841   0.017239
    13  O    0.395479   0.039025
 APT charges:
               1
     1  N   -0.437809
     2  N   -0.348434
     3  C   -0.641240
     4  C   -0.382946
     5  N   -0.276344
     6  H    0.518967
     7  H    0.694311
     8  H    0.415722
     9  C    0.231077
    10  O   -0.346210
    11  O   -0.546692
    12  H    0.634915
    13  O   -0.937049
    14  H    0.421733
 Sum of APT charges =  -1.00000
 APT charges with hydrogens summed into heavy atoms:
               1
     1  N   -0.437809
     2  N   -0.348434
     3  C   -0.122273
     4  C    0.311365
     5  N   -0.276344
     9  C    0.231077
    10  O   -0.346210
    11  O   -0.546692
    13  O    0.535320
 Electronic spatial extent (au):  <R**2>=           1240.8951
 Charge=             -1.0000 electrons
 Dipole moment (field-independent basis, Debye):
    X=              0.4910    Y=             -0.6645    Z=              2.5256  Tot=              2.6573
 Quadrupole moment (field-independent basis, Debye-Ang):
   XX=            -67.4735   YY=            -79.6289   ZZ=            -56.4002
   XY=              7.8362   XZ=             -3.2523   YZ=             -3.3012
 Traceless Quadrupole moment (field-independent basis, Debye-Ang):
   XX=              0.3607   YY=            -11.7947   ZZ=             11.4340
   XY=              7.8362   XZ=             -3.2523   YZ=             -3.3012
 Octapole moment (field-independent basis, Debye-Ang**2):
  XXX=             -3.3376  YYY=             -7.4679  ZZZ=              4.9152  XYY=              4.6079
  XXY=             11.7158  XXZ=             16.8274  XZZ=            -17.3609  YZZ=             -3.1299
  YYZ=              4.0828  XYZ=              3.3110
 Hexadecapole moment (field-independent basis, Debye-Ang**3):
 XXXX=           -943.0482 YYYY=           -774.2303 ZZZZ=            -98.0414 XXXY=             13.0910
 XXXZ=            -24.5058 YYYX=             33.5843 YYYZ=            -13.2650 ZZZX=            -17.7562
 ZZZY=            -15.0705 XXYY=           -322.8330 XXZZ=           -167.5312 YYZZ=           -116.4432
 XXYZ=            -14.8463 YYXZ=             -0.1941 ZZXY=             17.4456
 N-N= 4.513552055536D+02 E-N=-2.101758435688D+03  KE= 5.024430884859D+02
  Exact polarizability:   0.000   0.000   0.000   0.000   0.000   0.000
 Approx polarizability: 121.611   1.194 124.497   0.598   7.786  71.595
                          Isotropic Fermi Contact Couplings
        Atom                 a.u.       MegaHertz       Gauss      10(-4) cm-1
     1  N(14)              0.11331      36.61111      13.06375      12.21215
     2  N(14)              0.03054       9.86706       3.52081       3.29130
     3  C(13)              0.03454      38.83371      13.85683      12.95353
     4  C(13)             -0.03125     -35.13356     -12.53653     -11.71929
     5  N(14)              0.08058      26.03631       9.29040       8.68478
     6  H(1)              -0.00387     -17.28844      -6.16895      -5.76680
     7  H(1)               0.00102       4.53765       1.61915       1.51360
     8  H(1)               0.01407      62.91206      22.44859      20.98520
     9  C(13)              0.00857       9.63725       3.43881       3.21464
    10  O(17)              0.01173      -7.10929      -2.53677      -2.37140
    11  O(17)              0.00413      -2.50422      -0.89357      -0.83532
    12  H(1)              -0.00000      -0.00682      -0.00243      -0.00227
    13  O(17)              0.03199     -19.39259      -6.91976      -6.46867
    14  H(1)               0.00003       0.11226       0.04006       0.03745
 --------------------------------------------------------
       Center         ----  Spin Dipole Couplings  ----
                      3XX-RR        3YY-RR        3ZZ-RR
 --------------------------------------------------------
     1   Atom       -0.370657     -0.310373      0.681030
     2   Atom       -0.201995     -0.205158      0.407153
     3   Atom       -0.110894     -0.087769      0.198662
     4   Atom        0.048935      0.047399     -0.096333
     5   Atom       -0.339480     -0.279588      0.619069
     6   Atom       -0.016970      0.017669     -0.000699
     7   Atom        0.000756      0.004385     -0.005141
     8   Atom        0.017846     -0.004549     -0.013297
     9   Atom       -0.004851     -0.028009      0.032860
    10   Atom       -0.073965     -0.101101      0.175067
    11   Atom       -0.017837     -0.036433      0.054270
    12   Atom        0.002316     -0.002679      0.000363
    13   Atom        0.032696     -0.011316     -0.021379
    14   Atom        0.006177      0.000028     -0.006205
 --------------------------------------------------------
                        XY            XZ            YZ
 --------------------------------------------------------
     1   Atom        0.006274     -0.050110     -0.239988
     2   Atom        0.015585     -0.133011     -0.113188
     3   Atom        0.017452     -0.036932     -0.083004
     4   Atom        0.001037      0.022633      0.044693
     5   Atom        0.027261     -0.100622     -0.245598
     6   Atom        0.007967      0.000869      0.005633
     7   Atom        0.002074      0.001747      0.003304
     8   Atom        0.013788      0.000031     -0.000695
     9   Atom       -0.012094     -0.040273      0.009414
    10   Atom        0.004811     -0.083386     -0.013945
    11   Atom       -0.005482     -0.041177      0.011085
    12   Atom        0.002047     -0.004037     -0.000759
    13   Atom        0.028069      0.000813     -0.000260
    14   Atom        0.000401     -0.001051     -0.000832
 --------------------------------------------------------


 ---------------------------------------------------------------------------------
              Anisotropic Spin Dipole Couplings in Principal Axis System
 ---------------------------------------------------------------------------------

       Atom             a.u.   MegaHertz   Gauss  10(-4) cm-1        Axes

              Baa    -0.3755   -14.482    -5.168    -4.831  0.8921  0.4296  0.1399
     1 N(14)  Bbb    -0.3629   -13.994    -4.994    -4.668 -0.4495  0.8750  0.1796
              Bcc     0.7383    28.476    10.161     9.499 -0.0453 -0.2231  0.9737
 
              Baa    -0.2355    -9.081    -3.240    -3.029  0.7696  0.5823  0.2619
     2 N(14)  Bbb    -0.2192    -8.453    -3.016    -2.820 -0.6065  0.7949  0.0149
              Bcc     0.4546    17.534     6.257     5.849 -0.1995 -0.1703  0.9650
 
              Baa    -0.1206   -16.187    -5.776    -5.399  0.8196 -0.5704 -0.0535
     3 C(13)  Bbb    -0.1052   -14.110    -5.035    -4.707  0.5605  0.7791  0.2810
              Bcc     0.2258    30.297    10.811    10.106 -0.1186 -0.2603  0.9582
 
              Baa    -0.1120   -15.025    -5.361    -5.012 -0.1326 -0.2668  0.9546
     4 C(13)  Bbb     0.0477     6.401     2.284     2.135  0.8595 -0.5107 -0.0234
              Bcc     0.0643     8.624     3.077     2.877  0.4937  0.8173  0.2970
 
              Baa    -0.3503   -13.510    -4.821    -4.506  0.9778 -0.2038  0.0499
     5 N(14)  Bbb    -0.3420   -13.192    -4.707    -4.400  0.1841  0.9475  0.2614
              Bcc     0.6923    26.702     9.528     8.907 -0.1005 -0.2464  0.9639
 
              Baa    -0.0187    -9.989    -3.564    -3.332  0.9760 -0.2169  0.0207
     6 H(1)   Bbb    -0.0022    -1.168    -0.417    -0.390 -0.0748 -0.2442  0.9668
              Bcc     0.0209    11.157     3.981     3.722  0.2046  0.9452  0.2546
 
              Baa    -0.0063    -3.384    -1.207    -1.129 -0.1576 -0.2627  0.9519
     7 H(1)   Bbb    -0.0002    -0.095    -0.034    -0.032  0.9016 -0.4316  0.0301
              Bcc     0.0065     3.479     1.241     1.160  0.4029  0.8630  0.3049
 
              Baa    -0.0135    -7.189    -2.565    -2.398 -0.1065  0.2397  0.9650
     8 H(1)   Bbb    -0.0109    -5.837    -2.083    -1.947 -0.4166  0.8704 -0.2622
              Bcc     0.0244    13.025     4.648     4.345  0.9028  0.4300 -0.0072
 
              Baa    -0.0355    -4.764    -1.700    -1.589  0.6573  0.6949  0.2916
     9 C(13)  Bbb    -0.0253    -3.399    -1.213    -1.134 -0.5284  0.7009 -0.4791
              Bcc     0.0608     8.162     2.912     2.723 -0.5373  0.1609  0.8279
 
              Baa    -0.1019     7.376     2.632     2.460 -0.2091  0.9778 -0.0137
    10 O(17)  Bbb    -0.0992     7.178     2.561     2.394  0.9337  0.2039  0.2943
              Bcc     0.2011   -14.553    -5.193    -4.855 -0.2905 -0.0487  0.9556
 
              Baa    -0.0379     2.745     0.979     0.916  0.2974  0.9546  0.0180
    11 O(17)  Bbb    -0.0364     2.633     0.940     0.878  0.8618 -0.2765  0.4252
              Bcc     0.0743    -5.378    -1.919    -1.794 -0.4109  0.1109  0.9049
 
              Baa    -0.0037    -1.959    -0.699    -0.654 -0.5127  0.7762 -0.3669
    12 H(1)   Bbb    -0.0023    -1.238    -0.442    -0.413  0.3698  0.5853  0.7216
              Bcc     0.0060     3.198     1.141     1.067  0.7749  0.2343 -0.5871
 
              Baa    -0.0251     1.814     0.647     0.605 -0.4334  0.8873  0.1578
    13 O(17)  Bbb    -0.0213     1.541     0.550     0.514  0.0610 -0.1459  0.9874
              Bcc     0.0464    -3.355    -1.197    -1.119  0.8992  0.4375  0.0091
 
              Baa    -0.0064    -3.411    -1.217    -1.138  0.0787  0.1233  0.9892
    14 H(1)   Bbb     0.0001     0.049     0.017     0.016 -0.0853  0.9895 -0.1166
              Bcc     0.0063     3.362     1.200     1.121  0.9932  0.0752 -0.0884
 

 ---------------------------------------------------------------------------------

 Calling FoFJK, ICntrl=    100147 FMM=F ISym2X=0 I1Cent= 0 IOpClX= 1 NMat=1 NMatS=1 NMatT=0.
 ***** Axes restored to original set *****
 -------------------------------------------------------------------
 Center     Atomic                   Forces (Hartrees/Bohr)
 Number     Number              X              Y              Z
 -------------------------------------------------------------------
      1        7           0.060870461   -0.029762204   -0.009717160
      2        7           0.010325402    0.002327069    0.011507003
      3        6          -0.007405511    0.008803996   -0.004332476
      4        6           0.001792557    0.001654540   -0.003470911
      5        7           0.016900115    0.003183252    0.002020825
      6        1          -0.001322200   -0.000107832   -0.000860256
      7        1          -0.000598082    0.000293120   -0.000287702
      8        1          -0.036673897    0.005539870   -0.013257025
      9        6          -0.062201080    0.003764358   -0.021295552
     10        8           0.012752806   -0.004561082    0.005555889
     11        8           0.046885896   -0.035759815   -0.000393304
     12        1          -0.009529219   -0.002935294   -0.006844371
     13        8          -0.024396938    0.054495489    0.038209545
     14        1          -0.007400310   -0.006935468    0.003165493
 -------------------------------------------------------------------
 Cartesian Forces:  Max     0.062201080 RMS     0.021966156
 FormGI is forming the generalized inverse of G from B-inverse, IUseBI=4.

 GradGradGradGradGradGradGradGradGradGradGradGradGradGradGradGradGradGrad
 Berny optimization.
 Internal  Forces:  Max     0.066186842 RMS     0.013233543
 Search for a saddle point.
 Step number   1 out of a maximum of   76
 All quantities printed in internal units (Hartrees-Bohrs-Radians)
 Swapping is turned off.
 Second derivative matrix not updated -- analytic derivatives used.
 ITU=  0
     Eigenvalues ---   -0.08518  -0.02220   0.00037   0.00139   0.00500
     Eigenvalues ---    0.00722   0.00755   0.01512   0.01981   0.02259
     Eigenvalues ---    0.02402   0.02723   0.04107   0.04842   0.05508
     Eigenvalues ---    0.06162   0.07167   0.09364   0.10306   0.10860
     Eigenvalues ---    0.11548   0.17251   0.19887   0.22283   0.24372
     Eigenvalues ---    0.26973   0.30025   0.34820   0.37765   0.39135
     Eigenvalues ---    0.40660   0.45622   0.51868   0.56167   0.61555
     Eigenvalues ---    0.79876
 Eigenvectors required to have negative eigenvalues:
                          R10       R3        R13       R15       A19
   1                   -0.57705   0.47402  -0.45069   0.43967  -0.09101
                          R5        A17       A3        D28       R12
   1                   -0.07180  -0.06677   0.06208  -0.06147   0.05570
 RFO step:  Lambda0=2.940155029D-04 Lambda=-8.40062149D-02.
 Linear search not attempted -- option 19 set.
 Maximum step size (   0.300) exceeded in Quadratic search.
    -- Step size scaled by   0.243
 Iteration  1 RMS(Cart)=  0.04573903 RMS(Int)=  0.00456004
 Iteration  2 RMS(Cart)=  0.00576918 RMS(Int)=  0.00012721
 Iteration  3 RMS(Cart)=  0.00000708 RMS(Int)=  0.00012680
 Iteration  4 RMS(Cart)=  0.00000000 RMS(Int)=  0.00012680
 Variable       Old X    -DE/DX   Delta X   Delta X   Delta X     New X
                                 (Linear)    (Quad)   (Total)
    R1        2.65584   0.00055   0.00000   0.00296   0.00290   2.65873
    R2        2.60628  -0.01376   0.00000  -0.00780  -0.00780   2.59848
    R3        2.93642  -0.06619   0.00000  -0.23759  -0.23764   2.69878
    R4        2.60463   0.00680   0.00000   0.00535   0.00535   2.60998
    R5        2.75592  -0.01921   0.00000  -0.03014  -0.03026   2.72566
    R6        2.59893  -0.00280   0.00000   0.00097   0.00096   2.59989
    R7        2.03400   0.00034   0.00000  -0.00023  -0.00023   2.03377
    R8        2.54832   0.00502   0.00000  -0.00134  -0.00135   2.54698
    R9        2.04400   0.00061   0.00000   0.00005   0.00005   2.04405
   R10        2.70836  -0.03451   0.00000  -0.03781  -0.03784   2.67052
   R11        2.33384  -0.00730   0.00000  -0.00402  -0.00402   2.32982
   R12        2.37655   0.03309   0.00000   0.02154   0.02154   2.39809
   R13        2.53209  -0.03408   0.00000  -0.15000  -0.14986   2.38223
   R14        1.81624   0.00380   0.00000  -0.00069  -0.00069   1.81556
   R15        2.42857  -0.03696   0.00000   0.06176   0.06191   2.49048
    A1        1.90818  -0.00431   0.00000  -0.00150  -0.00151   1.90667
    A2        1.82629   0.00810   0.00000   0.02155   0.02158   1.84787
    A3        2.28103  -0.00585   0.00000  -0.01634  -0.01621   2.26482
    A4        1.85210   0.00613   0.00000   0.00202   0.00203   1.85413
    A5        2.14809  -0.00545   0.00000  -0.00332  -0.00349   2.14460
    A6        2.20903   0.00048   0.00000   0.00259   0.00274   2.21178
    A7        1.85215  -0.00785   0.00000  -0.00507  -0.00507   1.84708
    A8        2.09592   0.00531   0.00000   0.00325   0.00325   2.09918
    A9        2.33508   0.00253   0.00000   0.00182   0.00182   2.33691
   A10        1.96035   0.00045   0.00000   0.00175   0.00175   1.96210
   A11        2.22820  -0.00059   0.00000  -0.00117  -0.00117   2.22703
   A12        2.09452   0.00015   0.00000  -0.00056  -0.00056   2.09396
   A13        1.82673   0.00579   0.00000   0.00366   0.00366   1.83039
   A14        2.85220  -0.00491   0.00000   0.00059   0.00084   2.85304
   A15        1.99408   0.01532   0.00000   0.02079   0.02086   2.01494
   A16        1.99700  -0.00154   0.00000  -0.00162  -0.00177   1.99524
   A17        2.29150  -0.01385   0.00000  -0.01901  -0.01895   2.27255
   A18        2.16461  -0.01359   0.00000  -0.04413  -0.04429   2.12031
   A19        2.12381  -0.00948   0.00000  -0.01269  -0.01275   2.11107
   A20        1.26337   0.01623   0.00000   0.01926   0.01966   1.28303
   A21        1.74013   0.00037   0.00000   0.00342   0.00355   1.74368
   A22        2.92431  -0.00071   0.00000   0.01282   0.01306   2.93736
   A23        3.14370  -0.00032   0.00000   0.00425   0.00415   3.14785
    D1        0.21582  -0.00049   0.00000  -0.00346  -0.00342   0.21240
    D2        2.97643   0.00285   0.00000   0.00050   0.00057   2.97700
    D3        2.72361  -0.00497   0.00000  -0.00731  -0.00702   2.71659
    D4       -0.79898  -0.00163   0.00000  -0.00335  -0.00303  -0.80200
    D5       -0.19520   0.00139   0.00000   0.00371   0.00368  -0.19153
    D6       -2.48004   0.00018   0.00000  -0.01295  -0.01302  -2.49306
    D7       -0.04302   0.00264   0.00000  -0.00422  -0.00407  -0.04709
    D8        2.26989  -0.00017   0.00000   0.00481   0.00490   2.27479
    D9       -0.14525  -0.00004   0.00000   0.00202   0.00198  -0.14328
   D10        3.00367   0.00095   0.00000   0.00136   0.00133   3.00501
   D11       -2.88844  -0.00192   0.00000  -0.00043  -0.00042  -2.88886
   D12        0.26049  -0.00092   0.00000  -0.00109  -0.00107   0.25942
   D13       -2.85398  -0.00472   0.00000  -0.00990  -0.00975  -2.86374
   D14        0.32054  -0.00245   0.00000  -0.01385  -0.01360   0.30694
   D15       -0.17332   0.00013   0.00000  -0.00565  -0.00552  -0.17884
   D16        3.00120   0.00241   0.00000  -0.00961  -0.00937   2.99184
   D17        0.02744   0.00084   0.00000   0.00048   0.00050   0.02793
   D18       -3.09763   0.00044   0.00000  -0.00091  -0.00090  -3.09853
   D19       -3.12295  -0.00034   0.00000   0.00127   0.00127  -3.12168
   D20        0.03517  -0.00074   0.00000  -0.00012  -0.00013   0.03504
   D21        0.10405  -0.00090   0.00000  -0.00233  -0.00233   0.10171
   D22       -3.05266  -0.00054   0.00000  -0.00107  -0.00106  -3.05372
   D23       -0.92039  -0.00756   0.00000  -0.01009  -0.01000  -0.93039
   D24        0.66222   0.00579   0.00000   0.00982   0.00986   0.67207
   D25        0.63757  -0.00818   0.00000  -0.02768  -0.02771   0.60987
   D26       -2.46405  -0.00617   0.00000  -0.03352  -0.03329  -2.49734
   D27       -0.79979   0.00215   0.00000   0.01512   0.01481  -0.78499
   D28        1.28443  -0.00793   0.00000   0.00133   0.00136   1.28579
         Item               Value     Threshold  Converged?
 Maximum Force            0.066187     0.000450     NO 
 RMS     Force            0.013234     0.000300     NO 
 Maximum Displacement     0.199936     0.001800     NO 
 RMS     Displacement     0.051114     0.001200     NO 
 Predicted change in Energy=-2.396782D-02
 GradGradGradGradGradGradGradGradGradGradGradGradGradGradGradGradGradGrad

                          Input orientation:                          
 ---------------------------------------------------------------------
 Center     Atomic      Atomic             Coordinates (Angstroms)
 Number     Number       Type             X           Y           Z
 ---------------------------------------------------------------------
      1          7           0       -0.422857   -0.978021    0.419129
      2          7           0       -0.312179    0.326425   -0.096288
      3          6           0       -1.602537    0.760269   -0.329326
      4          6           0       -2.408721   -0.337077   -0.132525
      5          7           0       -1.710652   -1.426956    0.243553
      6          1           0       -1.788964    1.782514   -0.609533
      7          1           0       -3.481212   -0.399209   -0.258641
      8          1           0        0.817229   -1.621547    0.123109
      9          6           0        0.851948    1.153033    0.108471
     10          8           0        0.697115    2.353506   -0.125849
     11          8           0        1.887649    0.516245    0.472098
     12          1           0        2.343441   -1.783268   -1.277380
     13          8           0        2.118613   -1.902226   -0.350910
     14          1           0        2.128608   -0.646149    0.047894
 ---------------------------------------------------------------------
                    Distance matrix (angstroms):
                    1          2          3          4          5
     1  N    0.000000
     2  N    1.406941   0.000000
     3  C    2.230130   1.381140   0.000000
     4  C    2.158422   2.199326   1.375802   0.000000
     5  N    1.375058   2.268383   2.263588   1.347802   0.000000
     6  H    3.247299   2.136472   1.076224   2.259270   3.321835
     7  H    3.185582   3.255099   2.208801   1.081666   2.107924
     8  H    1.428133   2.262364   3.425348   3.481661   2.538219
     9  C    2.502605   1.442360   2.523970   3.593114   3.638889
    10  O    3.556742   2.264643   2.805032   4.109197   4.497299
    11  O    2.752104   2.279987   3.589321   4.421823   4.095855
    12  H    3.343496   3.591393   4.789481   5.097569   4.344636
    13  O    2.811794   3.307638   4.575620   4.795220   3.904169
    14  H    2.599602   2.631375   4.005215   4.551421   3.922736
                    6          7          8          9         10
     6  H    0.000000
     7  H    2.783297   0.000000
     8  H    4.349327   4.485135   0.000000
     9  C    2.808237   4.617413   2.774836   0.000000
    10  O    2.596261   5.005346   3.984653   1.232889   0.000000
    11  O    4.036192   5.495152   2.416143   1.269015   2.269458
    12  H    5.498873   6.072893   2.077702   3.573094   4.598839
    13  O    5.377115   5.798760   1.413179   3.339174   4.492502
    14  H    4.655963   5.623613   1.636085   2.206941   3.328257
                   11         12         13         14
    11  O    0.000000
    12  H    2.925095   0.000000
    13  O    2.565091   0.960752   0.000000
    14  H    1.260623   1.759416   1.317906   0.000000
 Stoichiometry    C3H5N3O3(1-,2)
 Framework group  C1[X(C3H5N3O3)]
 Deg. of freedom    36
 Full point group                 C1      NOp   1
 Largest Abelian subgroup         C1      NOp   1
 Largest concise Abelian subgroup C1      NOp   1
                         Standard orientation:                         
 ---------------------------------------------------------------------
 Center     Atomic      Atomic             Coordinates (Angstroms)
 Number     Number       Type             X           Y           Z
 ---------------------------------------------------------------------
      1          7           0        0.492379   -0.953710   -0.424926
      2          7           0        0.318702    0.343697    0.090879
      3          6           0        1.586798    0.843881    0.312906
      4          6           0        2.446981   -0.210472    0.109786
      5          7           0        1.803091   -1.335304   -0.259985
      6          1           0        1.722446    1.874632    0.591130
      7          1           0        3.522267   -0.216955    0.226921
      8          1           0       -0.710248   -1.660254   -0.118253
      9          6           0       -0.888289    1.108830   -0.104434
     10          8           0       -0.793793    2.315898    0.128098
     11          8           0       -1.892675    0.419033   -0.459101
     12          1           0       -2.214292   -1.899514    1.295060
     13          8           0       -1.991366   -2.007459    0.366784
     14          1           0       -2.069642   -0.753912   -0.032425
 ---------------------------------------------------------------------
 Rotational constants (GHZ):           2.1170034           1.5231831           0.9277767
 Standard basis: 6-31+G(d,p) (6D, 7F)
 There are   196 symmetry adapted cartesian basis functions of A   symmetry.
 There are   196 symmetry adapted basis functions of A   symmetry.
   196 basis functions,   323 primitive gaussians,   196 cartesian basis functions
    35 alpha electrons       34 beta electrons
       nuclear repulsion energy       454.5530162043 Hartrees.
 NAtoms=   14 NActive=   14 NUniq=   14 SFac= 1.00D+00 NAtFMM=   60 NAOKFM=F Big=F
 Integral buffers will be    131072 words long.
 Raffenetti 2 integral format.
 Two-electron integral symmetry is turned on.
 One-electron integrals computed using PRISM.
 NBasis=   196 RedAO= T EigKep=  2.94D-05  NBF=   196
 NBsUse=   196 1.00D-06 EigRej= -1.00D+00 NBFU=   196
 Initial guess from the checkpoint file:  "/scratch/gongke2021/TS/Gau-19347.chk"
 B after Tr=     0.000000    0.000000   -0.000000
         Rot=    0.999543    0.001012   -0.003537   -0.029999 Ang=   3.46 deg.
 Initial guess <Sx>= 0.0000 <Sy>= 0.0000 <Sz>= 0.5000 <S**2>= 0.7631 S= 0.5065
 ExpMin= 4.38D-02 ExpMax= 5.48D+03 ExpMxC= 8.25D+02 IAcc=2 IRadAn=         4 AccDes= 0.00D+00
 Harris functional with IExCor= 1009 and IRadAn=       4 diagonalized for initial guess.
 HarFok:  IExCor= 1009 AccDes= 0.00D+00 IRadAn=         4 IDoV= 1 UseB2=F ITyADJ=14
 ICtDFT=  3500011 ScaDFX=  1.000000  1.000000  1.000000  1.000000
 FoFCou: FMM=F IPFlag=           0 FMFlag=      100000 FMFlg1=           0
         NFxFlg=           0 DoJE=T BraDBF=F KetDBF=T FulRan=T
         wScrn=  0.000000 ICntrl=       500 IOpCl=  0 I1Cent=   200000004 NGrid=           0
         NMat0=    1 NMatS0=      1 NMatT0=    0 NMatD0=    1 NMtDS0=    0 NMtDT0=    0
 Petite list used in FoFCou.
 Requested convergence on RMS density matrix=1.00D-08 within 128 cycles.
 Requested convergence on MAX density matrix=1.00D-06.
 Requested convergence on             energy=1.00D-06.
 No special actions if energy rises.
 SCF Done:  E(UM062X) =  -507.036079950     A.U. after   17 cycles
            NFock= 17  Conv=0.73D-08     -V/T= 2.0089
 <Sx>= 0.0000 <Sy>= 0.0000 <Sz>= 0.5000 <S**2>= 0.7637 S= 0.5068
 <L.S>=  0.00000000000    
 Annihilation of the first spin contaminant:
 S**2 before annihilation     0.7637,   after     0.7501
 Calling FoFJK, ICntrl=      2127 FMM=F ISym2X=0 I1Cent= 0 IOpClX= 1 NMat=1 NMatS=1 NMatT=0.
 ***** Axes restored to original set *****
 -------------------------------------------------------------------
 Center     Atomic                   Forces (Hartrees/Bohr)
 Number     Number              X              Y              Z
 -------------------------------------------------------------------
      1        7           0.057270735   -0.027036631   -0.010439947
      2        7           0.007954057    0.002292277    0.010472097
      3        6          -0.005981883    0.006903502   -0.003552862
      4        6           0.001327854    0.001162090   -0.002847295
      5        7           0.014227666    0.002999805    0.002109379
      6        1          -0.001040135   -0.000124067   -0.000717642
      7        1          -0.000466388    0.000242055   -0.000270360
      8        1          -0.037877751    0.006001444   -0.011342421
      9        6          -0.051245005    0.001583856   -0.018298643
     10        8           0.010490995   -0.003646294    0.005200144
     11        8           0.039770617   -0.030840176   -0.002249139
     12        1          -0.008536135   -0.003190039   -0.005682750
     13        8          -0.017902814    0.043577020    0.031469779
     14        1          -0.007991812    0.000075160    0.006149659
 -------------------------------------------------------------------
 Cartesian Forces:  Max     0.057270735 RMS     0.019086973

 GradGradGradGradGradGradGradGradGradGradGradGradGradGradGradGradGradGrad
 Berny optimization.
 FormGI is forming the generalized inverse of G from B-inverse, IUseBI=4.
 Internal  Forces:  Max     0.061789078 RMS     0.011554504
 Search for a saddle point.
 Step number   2 out of a maximum of   76
 All quantities printed in internal units (Hartrees-Bohrs-Radians)
 Swapping is turned off.
 Update second derivatives using D2CorX and points    1    2
 ITU=  0  0
     Eigenvalues ---   -0.08505  -0.01930   0.00042   0.00259   0.00517
     Eigenvalues ---    0.00722   0.00760   0.01569   0.02015   0.02259
     Eigenvalues ---    0.02414   0.03547   0.04195   0.04848   0.05569
     Eigenvalues ---    0.06193   0.07168   0.09364   0.10339   0.10887
     Eigenvalues ---    0.11841   0.17267   0.19904   0.22289   0.24369
     Eigenvalues ---    0.26984   0.30035   0.34825   0.37765   0.39135
     Eigenvalues ---    0.40661   0.45621   0.51872   0.56169   0.61557
     Eigenvalues ---    0.79876
 Eigenvectors required to have negative eigenvalues:
                          R10       R3        R13       R15       A19
   1                   -0.57405   0.48755  -0.44317   0.43726  -0.08996
                          R5        A17       A3        D28       R12
   1                   -0.07113  -0.06638   0.06359  -0.06244   0.05542
 RFO step:  Lambda0=3.546276471D-04 Lambda=-6.78142681D-02.
 Linear search not attempted -- option 19 set.
 Maximum step size (   0.300) exceeded in Quadratic search.
    -- Step size scaled by   0.252
 Iteration  1 RMS(Cart)=  0.04250665 RMS(Int)=  0.00285537
 Iteration  2 RMS(Cart)=  0.00343635 RMS(Int)=  0.00010960
 Iteration  3 RMS(Cart)=  0.00000349 RMS(Int)=  0.00010953
 Iteration  4 RMS(Cart)=  0.00000000 RMS(Int)=  0.00010953
 Variable       Old X    -DE/DX   Delta X   Delta X   Delta X     New X
                                 (Linear)    (Quad)   (Total)
    R1        2.65873   0.00023   0.00000   0.00102   0.00097   2.65970
    R2        2.59848  -0.01168   0.00000  -0.00931  -0.00930   2.58918
    R3        2.69878  -0.06179   0.00000  -0.22266  -0.22265   2.47613
    R4        2.60998   0.00539   0.00000   0.00421   0.00420   2.61418
    R5        2.72566  -0.01583   0.00000  -0.02801  -0.02814   2.69753
    R6        2.59989  -0.00232   0.00000   0.00071   0.00070   2.60059
    R7        2.03377   0.00025   0.00000  -0.00026  -0.00026   2.03351
    R8        2.54698   0.00389   0.00000  -0.00128  -0.00128   2.54569
    R9        2.04405   0.00048   0.00000  -0.00012  -0.00012   2.04394
   R10        2.67052  -0.02855   0.00000  -0.00593  -0.00590   2.66462
   R11        2.32982  -0.00586   0.00000  -0.00441  -0.00441   2.32541
   R12        2.39809   0.02672   0.00000   0.02104   0.02100   2.41909
   R13        2.38223  -0.03117   0.00000  -0.16169  -0.16159   2.22064
   R14        1.81556   0.00309   0.00000  -0.00066  -0.00066   1.81490
   R15        2.49048  -0.02689   0.00000   0.09448   0.09459   2.58507
    A1        1.90667  -0.00351   0.00000  -0.00113  -0.00116   1.90552
    A2        1.84787   0.00741   0.00000   0.02055   0.02062   1.86849
    A3        2.26482  -0.00520   0.00000  -0.01710  -0.01703   2.24780
    A4        1.85413   0.00499   0.00000   0.00225   0.00226   1.85639
    A5        2.14460  -0.00447   0.00000  -0.00227  -0.00244   2.14216
    A6        2.21178   0.00054   0.00000   0.00242   0.00255   2.21432
    A7        1.84708  -0.00639   0.00000  -0.00479  -0.00480   1.84228
    A8        2.09918   0.00429   0.00000   0.00281   0.00281   2.10199
    A9        2.33691   0.00209   0.00000   0.00198   0.00198   2.33889
   A10        1.96210   0.00021   0.00000   0.00079   0.00078   1.96288
   A11        2.22703  -0.00042   0.00000  -0.00062  -0.00062   2.22641
   A12        2.09396   0.00021   0.00000  -0.00015  -0.00015   2.09381
   A13        1.83039   0.00493   0.00000   0.00399   0.00400   1.83439
   A14        2.85304  -0.00399   0.00000  -0.00005   0.00025   2.85329
   A15        2.01494   0.01282   0.00000   0.01963   0.01972   2.03466
   A16        1.99524  -0.00112   0.00000   0.00002  -0.00018   1.99506
   A17        2.27255  -0.01175   0.00000  -0.01948  -0.01940   2.25316
   A18        2.12031  -0.01283   0.00000  -0.04250  -0.04269   2.07762
   A19        2.11107  -0.00854   0.00000  -0.00743  -0.00741   2.10365
   A20        1.28303   0.01438   0.00000   0.00988   0.01027   1.29329
   A21        1.74368   0.00121   0.00000   0.00484   0.00485   1.74853
   A22        2.93736  -0.00022   0.00000   0.02001   0.02018   2.95755
   A23        3.14785  -0.00050   0.00000   0.00264   0.00255   3.15041
    D1        0.21240  -0.00071   0.00000  -0.00451  -0.00449   0.20792
    D2        2.97700   0.00235   0.00000   0.00211   0.00216   2.97915
    D3        2.71659  -0.00424   0.00000  -0.00996  -0.00975   2.70684
    D4       -0.80200  -0.00118   0.00000  -0.00335  -0.00311  -0.80511
    D5       -0.19153   0.00144   0.00000   0.00477   0.00475  -0.18677
    D6       -2.49306  -0.00042   0.00000  -0.00942  -0.00949  -2.50255
    D7       -0.04709   0.00197   0.00000  -0.00064  -0.00052  -0.04761
    D8        2.27479   0.00018   0.00000   0.00629   0.00635   2.28114
    D9       -0.14328   0.00013   0.00000   0.00261   0.00258  -0.14070
   D10        3.00501   0.00095   0.00000   0.00289   0.00287   3.00787
   D11       -2.88886  -0.00173   0.00000  -0.00301  -0.00301  -2.89187
   D12        0.25942  -0.00091   0.00000  -0.00273  -0.00271   0.25671
   D13       -2.86374  -0.00417   0.00000  -0.00740  -0.00730  -2.87103
   D14        0.30694  -0.00246   0.00000  -0.01241  -0.01223   0.29471
   D15       -0.17884   0.00015   0.00000   0.00024   0.00034  -0.17850
   D16        2.99184   0.00186   0.00000  -0.00477  -0.00460   2.98724
   D17        0.02793   0.00072   0.00000   0.00055   0.00057   0.02850
   D18       -3.09853   0.00033   0.00000  -0.00059  -0.00059  -3.09912
   D19       -3.12168  -0.00025   0.00000   0.00022   0.00022  -3.12146
   D20        0.03504  -0.00065   0.00000  -0.00093  -0.00094   0.03410
   D21        0.10171  -0.00096   0.00000  -0.00310  -0.00311   0.09860
   D22       -3.05372  -0.00060   0.00000  -0.00206  -0.00206  -3.05578
   D23       -0.93039  -0.00711   0.00000  -0.00728  -0.00727  -0.93766
   D24        0.67207   0.00520   0.00000   0.00641   0.00650   0.67857
   D25        0.60987  -0.00790   0.00000  -0.02528  -0.02535   0.58452
   D26       -2.49734  -0.00643   0.00000  -0.03209  -0.03191  -2.52925
   D27       -0.78499   0.00232   0.00000   0.01329   0.01304  -0.77194
   D28        1.28579  -0.00657   0.00000   0.00608   0.00606   1.29185
         Item               Value     Threshold  Converged?
 Maximum Force            0.061789     0.000450     NO 
 RMS     Force            0.011555     0.000300     NO 
 Maximum Displacement     0.164002     0.001800     NO 
 RMS     Displacement     0.045609     0.001200     NO 
 Predicted change in Energy=-1.953943D-02
 GradGradGradGradGradGradGradGradGradGradGradGradGradGradGradGradGradGrad

                          Input orientation:                          
 ---------------------------------------------------------------------
 Center     Atomic      Atomic             Coordinates (Angstroms)
 Number     Number       Type             X           Y           Z
 ---------------------------------------------------------------------
      1          7           0       -0.382708   -0.986293    0.405721
      2          7           0       -0.285443    0.323419   -0.100364
      3          6           0       -1.581208    0.749105   -0.331619
      4          6           0       -2.373734   -0.359313   -0.138829
      5          7           0       -1.663116   -1.442000    0.232052
      6          1           0       -1.778461    1.770460   -0.607095
      7          1           0       -3.445552   -0.433360   -0.263700
      8          1           0        0.747612   -1.589440    0.130923
      9          6           0        0.862983    1.146398    0.103342
     10          8           0        0.725618    2.348534   -0.120856
     11          8           0        1.909615    0.508500    0.472623
     12          1           0        2.256655   -1.771671   -1.274812
     13          8           0        2.041511   -1.884379   -0.345628
     14          1           0        2.083713   -0.582423    0.072042
 ---------------------------------------------------------------------
                    Distance matrix (angstroms):
                    1          2          3          4          5
     1  N    0.000000
     2  N    1.407454   0.000000
     3  C    2.234206   1.383363   0.000000
     4  C    2.157273   2.197399   1.376174   0.000000
     5  N    1.370137   2.263888   2.263929   1.347124   0.000000
     6  H    3.251709   2.140048   1.076087   2.260432   3.322254
     7  H    3.183532   3.253565   2.208759   1.081605   2.107179
     8  H    1.310314   2.186259   3.332587   3.365826   2.417349
     9  C    2.488282   1.427471   2.514180   3.578009   3.619053
    10  O    3.553412   2.263571   2.814967   4.115670   4.494301
    11  O    2.737448   2.276148   3.590340   4.412941   4.077589
    12  H    3.226026   3.497284   4.687549   4.972496   4.212354
    13  O    2.692196   3.217024   4.478786   4.675787   3.775404
    14  H    2.521445   2.542277   3.920147   4.468006   3.847493
                    6          7          8          9         10
     6  H    0.000000
     7  H    2.784589   0.000000
     8  H    4.267862   4.367479   0.000000
     9  C    2.805602   4.603676   2.738409   0.000000
    10  O    2.615532   5.015775   3.946076   1.230555   0.000000
    11  O    4.044779   5.486993   2.422470   1.280125   2.267111
    12  H    5.410610   5.943786   2.070389   3.515218   4.544423
    13  O    5.293241   5.676269   1.410058   3.282700   4.438429
    14  H    4.573147   5.541454   1.674131   2.116597   3.236069
                   11         12         13         14
    11  O    0.000000
    12  H    2.893639   0.000000
    13  O    2.532351   0.960402   0.000000
    14  H    1.175112   1.805058   1.367962   0.000000
 Stoichiometry    C3H5N3O3(1-,2)
 Framework group  C1[X(C3H5N3O3)]
 Deg. of freedom    36
 Full point group                 C1      NOp   1
 Largest Abelian subgroup         C1      NOp   1
 Largest concise Abelian subgroup C1      NOp   1
                         Standard orientation:                         
 ---------------------------------------------------------------------
 Center     Atomic      Atomic             Coordinates (Angstroms)
 Number     Number       Type             X           Y           Z
 ---------------------------------------------------------------------
      1          7           0        0.516526   -0.930602   -0.416524
      2          7           0        0.284501    0.361616    0.090690
      3          6           0        1.529392    0.926329    0.302912
      4          6           0        2.435081   -0.089499    0.098766
      5          7           0        1.841345   -1.243809   -0.261497
      6          1           0        1.618172    1.963580    0.575292
      7          1           0        3.510283   -0.046128    0.207978
      8          1           0       -0.537249   -1.652801   -0.125132
      9          6           0       -0.949583    1.054233   -0.096365
     10          8           0       -0.940769    2.264574    0.125584
     11          8           0       -1.925733    0.305464   -0.450199
     12          1           0       -1.996908   -1.995841    1.302533
     13          8           0       -1.784264   -2.086089    0.370326
     14          1           0       -1.974113   -0.797220   -0.046920
 ---------------------------------------------------------------------
 Rotational constants (GHZ):           2.1477023           1.5613741           0.9467334
 Standard basis: 6-31+G(d,p) (6D, 7F)
 There are   196 symmetry adapted cartesian basis functions of A   symmetry.
 There are   196 symmetry adapted basis functions of A   symmetry.
   196 basis functions,   323 primitive gaussians,   196 cartesian basis functions
    35 alpha electrons       34 beta electrons
       nuclear repulsion energy       457.5089992065 Hartrees.
 NAtoms=   14 NActive=   14 NUniq=   14 SFac= 1.00D+00 NAtFMM=   60 NAOKFM=F Big=F
 Integral buffers will be    131072 words long.
 Raffenetti 2 integral format.
 Two-electron integral symmetry is turned on.
 One-electron integrals computed using PRISM.
 NBasis=   196 RedAO= T EigKep=  2.88D-05  NBF=   196
 NBsUse=   196 1.00D-06 EigRej= -1.00D+00 NBFU=   196
 Initial guess from the checkpoint file:  "/scratch/gongke2021/TS/Gau-19347.chk"
 B after Tr=    -0.000000    0.000000    0.000000
         Rot=    0.999561    0.001045   -0.003044   -0.029436 Ang=   3.39 deg.
 Initial guess <Sx>= 0.0000 <Sy>= 0.0000 <Sz>= 0.5000 <S**2>= 0.7637 S= 0.5068
 ExpMin= 4.38D-02 ExpMax= 5.48D+03 ExpMxC= 8.25D+02 IAcc=2 IRadAn=         4 AccDes= 0.00D+00
 Harris functional with IExCor= 1009 and IRadAn=       4 diagonalized for initial guess.
 HarFok:  IExCor= 1009 AccDes= 0.00D+00 IRadAn=         4 IDoV= 1 UseB2=F ITyADJ=14
 ICtDFT=  3500011 ScaDFX=  1.000000  1.000000  1.000000  1.000000
 FoFCou: FMM=F IPFlag=           0 FMFlag=      100000 FMFlg1=           0
         NFxFlg=           0 DoJE=T BraDBF=F KetDBF=T FulRan=T
         wScrn=  0.000000 ICntrl=       500 IOpCl=  0 I1Cent=   200000004 NGrid=           0
         NMat0=    1 NMatS0=      1 NMatT0=    0 NMatD0=    1 NMtDS0=    0 NMtDT0=    0
 Petite list used in FoFCou.
 Requested convergence on RMS density matrix=1.00D-08 within 128 cycles.
 Requested convergence on MAX density matrix=1.00D-06.
 Requested convergence on             energy=1.00D-06.
 No special actions if energy rises.
 SCF Done:  E(UM062X) =  -507.054321565     A.U. after   17 cycles
            NFock= 17  Conv=0.80D-08     -V/T= 2.0087
 <Sx>= 0.0000 <Sy>= 0.0000 <Sz>= 0.5000 <S**2>= 0.7642 S= 0.5071
 <L.S>=  0.00000000000    
 Annihilation of the first spin contaminant:
 S**2 before annihilation     0.7642,   after     0.7501
 Calling FoFJK, ICntrl=      2127 FMM=F ISym2X=0 I1Cent= 0 IOpClX= 1 NMat=1 NMatS=1 NMatT=0.
 ***** Axes restored to original set *****
 -------------------------------------------------------------------
 Center     Atomic                   Forces (Hartrees/Bohr)
 Number     Number              X              Y              Z
 -------------------------------------------------------------------
      1        7           0.046602141   -0.020883251   -0.008828740
      2        7           0.005454433    0.001612127    0.009761969
      3        6          -0.004631993    0.005218356   -0.003049951
      4        6           0.000934952    0.000778921   -0.002397174
      5        7           0.011705199    0.002691308    0.002210158
      6        1          -0.000785405   -0.000136026   -0.000632940
      7        1          -0.000331339    0.000186697   -0.000270289
      8        1          -0.034583451    0.004018735   -0.010094736
      9        6          -0.041036494    0.001036924   -0.015282186
     10        8           0.008401293   -0.002800510    0.004735324
     11        8           0.032098375   -0.022137930   -0.002352595
     12        1          -0.006986253   -0.003383147   -0.004809251
     13        8          -0.010420641    0.032025211    0.023887010
     14        1          -0.006420816    0.001772586    0.007123400
 -------------------------------------------------------------------
 Cartesian Forces:  Max     0.046602141 RMS     0.015253273

 GradGradGradGradGradGradGradGradGradGradGradGradGradGradGradGradGradGrad
 Berny optimization.
 FormGI is forming the generalized inverse of G from B-inverse, IUseBI=4.
 Internal  Forces:  Max     0.049689898 RMS     0.009003206
 Search for a saddle point.
 Step number   3 out of a maximum of   76
 All quantities printed in internal units (Hartrees-Bohrs-Radians)
 Swapping is turned off.
 Update second derivatives using D2CorX and points    2    3
 ITU=  0  0  0
     Eigenvalues ---   -0.08481  -0.01253   0.00042   0.00329   0.00538
     Eigenvalues ---    0.00722   0.00767   0.01618   0.02038   0.02259
     Eigenvalues ---    0.02416   0.03978   0.04818   0.05015   0.05838
     Eigenvalues ---    0.06360   0.07178   0.09363   0.10406   0.10930
     Eigenvalues ---    0.13411   0.17322   0.19952   0.22289   0.24363
     Eigenvalues ---    0.26984   0.30036   0.34837   0.37765   0.39135
     Eigenvalues ---    0.40658   0.45616   0.51874   0.56171   0.61564
     Eigenvalues ---    0.79881
 Eigenvectors required to have negative eigenvalues:
                          R10       R3        R15       R13       A19
   1                   -0.57368   0.50911   0.42961  -0.42736  -0.08926
                          R5        A17       A3        D28       R12
   1                   -0.07004  -0.06560   0.06521  -0.06416   0.05472
[...]
 ! D1    D(5,1,2,3)              6.6236         -DE/DX =    0.0                 !
 ! D2    D(5,1,2,9)           -179.1629         -DE/DX =    0.0                 !
 ! D3    D(8,1,2,3)            149.9656         -DE/DX =    0.0                 !
 ! D4    D(8,1,2,9)            -35.8208         -DE/DX =    0.0                 !
 ! D5    D(2,1,5,4)             -5.8387         -DE/DX =    0.0                 !
 ! D6    D(8,1,5,4)           -143.7002         -DE/DX =    0.0                 !
 ! D7    D(2,1,8,13)            28.6452         -DE/DX =    0.0                 !
 ! D8    D(5,1,8,13)           164.845          -DE/DX =    0.0                 !
 ! D9    D(1,2,3,4)             -4.6065         -DE/DX =    0.0                 !
 ! D10   D(1,2,3,6)            176.6739         -DE/DX =    0.0                 !
 ! D11   D(9,2,3,4)           -178.7841         -DE/DX =    0.0                 !
 ! D12   D(9,2,3,6)              2.4963         -DE/DX =    0.0                 !
 ! D13   D(1,2,9,10)          -170.2727         -DE/DX =    0.0                 !
 ! D14   D(1,2,9,11)             9.5988         -DE/DX =    0.0                 !
 ! D15   D(3,2,9,10)             2.878          -DE/DX =    0.0                 !
 ! D16   D(3,2,9,11)          -177.2505         -DE/DX =    0.0                 !
 ! D17   D(2,3,4,5)              1.0909         -DE/DX =    0.0                 !
 ! D18   D(2,3,4,7)           -178.6116         -DE/DX =    0.0                 !
 ! D19   D(6,3,4,5)            179.548          -DE/DX =    0.0                 !
 ! D20   D(6,3,4,7)             -0.1544         -DE/DX =    0.0                 !
 ! D21   D(3,4,5,1)              2.9903         -DE/DX =    0.0                 !
 ! D22   D(7,4,5,1)           -177.2828         -DE/DX =    0.0                 !
 ! D23   D(1,8,13,12)         -112.0266         -DE/DX =    0.0                 !
 ! D24   D(1,8,13,14)           -0.7685         -DE/DX =    0.0                 !
 ! D25   D(2,9,11,14)           19.9418         -DE/DX =    0.0                 !
 ! D26   D(10,9,11,14)        -160.1943         -DE/DX =    0.0                 !
 ! D27   D(9,11,13,8)          -24.9254         -DE/DX =    0.0                 !
 ! D28   D(9,11,13,12)          84.3166         -DE/DX =    0.0                 !
 --------------------------------------------------------------------------------
 GradGradGradGradGradGradGradGradGradGradGradGradGradGradGradGradGradGrad


 ----------------------------------------------------------------------

 Electric dipole moment (input orientation):
 (Debye = 10**-18 statcoulomb cm , SI units = C m)
                  (au)            (Debye)         (10**-30 SI)
   Tot        0.134028D+01      0.340666D+01      0.113634D+02
   x         -0.104628D+01     -0.265937D+01     -0.887069D+01
   y         -0.700984D-01     -0.178172D+00     -0.594319D+00
   z         -0.834719D+00     -0.212164D+01     -0.707705D+01

 Dipole polarizability, Alpha (input orientation).
 (esu units = cm**3 , SI units = C**2 m**2 J**-1)
 Alpha(0;0):
               (au)            (10**-24 esu)      (10**-40 SI)
   iso        0.858103D+02      0.127158D+02      0.141482D+02
   aniso      0.475164D+02      0.704120D+01      0.783439D+01
   xx         0.102253D+03      0.151523D+02      0.168592D+02
   yx         0.433085D+01      0.641766D+00      0.714061D+00
   yy         0.100341D+03      0.148690D+02      0.165440D+02
   zx         0.276170D+01      0.409242D+00      0.455343D+00
   zy        -0.240793D+01     -0.356818D+00     -0.397014D+00
   zz         0.548371D+02      0.812601D+01      0.904141D+01

 ----------------------------------------------------------------------

 Dipole orientation:
     7         -0.81184480          1.92157972          0.16091194
     7         -0.35078133         -0.68713932          0.34945305
     6         -1.51312139         -1.54275556          2.54703289
     6         -2.44235530          0.60884526          3.67690465
     7         -1.96967212          2.69783744          2.30833466
     1         -1.49709301         -3.51584199          3.03392346
     1         -3.44316222          0.74869310          5.45419674
     1          0.85523491          3.05296341         -0.91492752
     6          0.83609109         -2.17385463         -1.46284659
     8          0.81744082         -4.48343331         -1.21465562
     8          1.91341194         -0.97459766         -3.35751679
     1          4.24301117          3.78521053         -1.51341603
     8          2.68988342          3.50641210         -2.41592393
     1          2.34169665          0.99459462         -3.05325820

 Electric dipole moment (dipole orientation):
 (Debye = 10**-18 statcoulomb cm , SI units = C m)
                  (au)            (Debye)         (10**-30 SI)
   Tot        0.134028D+01      0.340666D+01      0.113634D+02
   x          0.000000D+00      0.000000D+00      0.000000D+00
   y          0.000000D+00      0.000000D+00      0.000000D+00
   z          0.134028D+01      0.340666D+01      0.113634D+02

 Dipole polarizability, Alpha (dipole orientation).
 (esu units = cm**3 , SI units = C**2 m**2 J**-1)
 Alpha(0;0):
               (au)            (10**-24 esu)      (10**-40 SI)
   iso        0.858103D+02      0.127158D+02      0.141482D+02
   aniso      0.475164D+02      0.704120D+01      0.783439D+01
   xx         0.704335D+02      0.104372D+02      0.116129D+02
   yx        -0.265224D+01     -0.393022D+00     -0.437296D+00
   yy         0.100259D+03      0.148569D+02      0.165305D+02
   zx        -0.226384D+02     -0.335467D+01     -0.373257D+01
   zy         0.316751D+01      0.469377D+00      0.522252D+00
   zz         0.867385D+02      0.128533D+02      0.143013D+02

 ----------------------------------------------------------------------
 1\1\GINC-NODE4\Freq\UM062X\6-31+G(d,p)\C3H5N3O3(1-,2)\GONGKE2021\04-Ju
 n-2023\0\\#N Geom=AllCheck Guess=TCheck SCRF=Check GenChk UM062X/6-31+
 G(d,p) Freq\\test\\-1,2\N,-0.3091706755,-1.0087870185,0.3355204968\N,-
 0.269424827,0.3580040791,0.0107199723\C,-1.5727324539,0.7646670701,-0.
 2570549013\C,-2.3179057172,-0.3908912849,-0.1860132414\N,-1.5685411238
 ,-1.4628908278,0.1275762529\H,-1.7948369029,1.7933306201,-0.4787478144
 \H,-3.3809610172,-0.5006357378,-0.3544523706\H,0.7012190178,-1.5988997
 288,0.0327326943\C,0.8516473207,1.1777703812,0.0765570477\O,0.71220868
 63,2.3912658974,-0.061455539\O,2.0063041373,0.5823154932,0.2891344901\
 H,2.0777242924,-2.0142747106,-1.149232761\O,1.9335879329,-1.8213334755
 ,-0.217921857\H,2.04836442,-0.4721025572,0.0664387805\\Version=ES64L-G
 16RevA.03\State=2-A\HF=-507.0749965\S2=0.764667\S2-1=0.\S2A=0.750084\R
 MSD=2.825e-09\RMSF=1.167e-05\ZeroPoint=0.0920459\Thermal=0.0999033\Dip
 ole=-1.0462751,-0.0700984,-0.8347193\DipoleDeriv=-0.707322,0.9635345,-
 0.0756767,0.3486976,-0.1336586,-0.0690137,0.1398331,0.1977337,-0.32735
 35,-1.0315662,-0.6711148,0.0151703,-0.5371245,-0.4712102,-0.0433795,-0
 .0903604,-0.1209108,0.0225357,-0.0393551,-0.0585725,0.0223761,0.100192
 8,-0.4650791,0.03054,0.0502284,-0.0102086,-0.344387,0.2104797,-0.02025
 34,0.0754088,0.1331756,0.8024295,-0.1064083,0.0034229,-0.1429147,-0.08
 19387,-0.2882378,-0.2717246,0.1084852,-0.1271953,-1.0211437,0.0668259,
 0.0480971,-0.0457448,-0.2337555,0.0682724,-0.0072386,-0.0242126,0.0334
 505,0.0495714,0.0396566,-0.035211,0.0399883,0.2268972,-0.1392648,-0.01
 64722,-0.0428797,-0.0197644,0.0950603,0.0021841,-0.0490384,0.0108598,0
 .1399725,1.5827876,-0.9002609,-0.2358884,-0.5524136,0.5365291,0.059478
 4,-0.3211753,0.12521,0.2941828,2.3670781,0.21484,0.1389194,0.5406944,2
 .437473,-0.0966241,0.2148759,-0.1606675,0.4010302,-0.6542866,0.0861102
 ,-0.0076365,-0.5644304,-1.9118687,0.0436883,0.0591446,0.1677143,-0.498
 3318,-1.4839565,0.2278534,-0.0655412,0.6455164,-1.1941855,-0.0718056,-
 0.1783044,-0.1025702,-0.4771337,0.2850488,-0.0155845,-0.0085154,-0.022
 0948,0.2912169,-0.0117707,0.0182136,-0.0338712,0.0800968,-1.4763106,0.
 5406272,0.1036851,0.4052234,-1.3007745,-0.1038519,0.1960259,-0.1868669
 ,-0.5181733,0.3066331,-0.0717437,-0.0036944,-0.3839275,1.2856401,0.260
 4804,-0.0557521,0.2622486,0.3163584\Polar=102.2528321,4.3308503,100.34
 10957,2.7617028,-2.4079285,54.8370658\Quadrupole=-0.7047341,-8.4994563
 ,9.2041904,-4.514128,-1.660933,2.5080352\PG=C01 [X(C3H5N3O3)]\NImag=1\
 \0.63179174,-0.06089928,0.42887309,0.03763854,-0.03481696,0.09397410,-
 0.10412774,0.04898283,-0.00844701,0.78702209,0.01234139,-0.19354486,0.
 03440434,0.09008817,0.60936206,-0.00681477,0.04938873,-0.03378352,0.09
 836288,-0.08314530,0.09117432,-0.01871993,0.03989048,-0.01506356,-0.26
 766734,0.04788595,-0.04336323,0.55119615,0.03129023,-0.04266269,0.0117
 5451,0.04525106,-0.12089990,0.02190428,0.00770257,0.86321145,-0.006838
 40,0.01521671,-0.00798468,-0.04175561,0.02432008,-0.04243617,0.0762460
 5,-0.13920036,0.10847233,-0.09657127,0.01301547,-0.01787611,-0.0676503
 6,-0.00699887,-0.01301894,-0.19569034,-0.14614040,0.00064625,0.8662436
 7,0.00823628,-0.00478903,0.00256846,-0.04613923,-0.00110584,-0.0036948
 2,-0.11906993,-0.25628846,0.01735640,0.07391663,0.55819084,-0.02455989
 ,0.00814455,0.00670782,-0.00329617,-0.00014651,0.00900056,-0.00370944,
 0.01296415,-0.05521044,0.11856225,-0.06689445,0.15465839,-0.27283770,-
 0.08453465,-0.02710511,-0.05472907,-0.06344678,0.00330828,0.03044348,0
 .03125521,-0.00769778,-0.17314388,0.12611391,-0.04296460,0.48693940,0.
 00366628,-0.10989431,0.00592850,-0.04422130,-0.05009468,-0.00101693,-0
 .02231764,-0.11927999,0.01838973,0.09457964,-0.21616725,0.04413939,-0.
 03264733,0.47608455,-0.05288206,-0.01836437,-0.04668130,-0.00229550,0.
 00143413,-0.00045158,0.00556634,0.02694341,0.02437671,-0.03722356,0.05
 268134,-0.07446849,0.08680237,-0.07244434,0.10228767,-0.00599349,0.001
 07878,-0.00032327,-0.00258755,0.02988006,-0.00594102,-0.06531978,0.055
 33203,-0.01827129,0.01244244,-0.01206141,0.00479193,-0.00238687,-0.005
 51436,-0.00053629,0.06178286,-0.00208307,-0.00029731,-0.00055035,-0.00
 089537,-0.00223371,-0.00022030,0.06726331,-0.35033396,0.07190566,0.008
 99897,-0.00706642,0.00228279,-0.00013609,-0.00015284,0.00140516,-0.071
 06924,0.36220210,-0.00212235,0.00032772,0.00237172,-0.00015464,0.00454
 265,-0.00489397,-0.02028168,0.07034683,-0.02763661,0.00080685,-0.00146
 775,-0.00252677,-0.00037912,0.00063549,0.00616712,0.02047286,-0.074504
 96,0.02901339,-0.00081999,0.00246165,-0.00078144,-0.00060157,-0.000766
 25,-0.00132625,-0.00571582,0.00377227,-0.00169798,-0.34089886,-0.03625
 945,-0.04835152,-0.01476136,-0.00219404,-0.00155458,-0.00043116,-0.000
 40186,0.00040801,0.36299928,0.00492885,-0.00439344,0.00190964,-0.00317
 985,-0.00629124,0.00152706,-0.02125857,0.00843278,-0.00481722,-0.04092
 052,-0.06415315,-0.00195950,0.02688998,0.00976616,0.00272729,0.0007555
 7,-0.00038312,-0.00017180,0.03352208,0.05532544,-0.00245824,0.00330649
 ,0.00720426,-0.00058519,0.00138148,0.00595886,0.00246138,-0.00065097,0
 .00068876,-0.04745815,-0.00140085,-0.03945268,-0.00605037,-0.00209216,
 -0.00701333,0.00016366,-0.00038952,-0.00204059,0.05401543,0.00040085,0
 .03366338,-0.04408494,0.01224408,0.00709312,0.00297761,-0.00505088,-0.
 00795107,0.00418310,-0.00981939,0.00295236,0.00278281,0.00066440,0.003
 26138,-0.01131464,-0.00835357,-0.00445567,0.00132180,-0.00005580,0.000
 50800,0.00102556,-0.00044421,0.00064653,0.02122381,0.00989098,-0.07049
 250,-0.00540468,0.01903207,-0.01367691,-0.00137999,-0.00310617,0.00017
 601,-0.00104167,-0.00569687,-0.00268189,-0.00119246,-0.00802512,0.0168
 5799,0.00572968,0.00040432,-0.00009064,-0.00019478,-0.00074820,0.00091
 284,-0.00101668,0.02372083,0.09861756,0.02611068,-0.02090164,-0.026579
 48,-0.01175536,0.00780743,-0.00158143,0.00150577,0.00414963,-0.0008300
 7,-0.00423567,-0.00134219,0.00075726,-0.00911707,0.00963285,-0.0041209
 9,-0.00101072,0.00038885,0.00021185,-0.00091901,0.00092919,0.00010333,
 0.01375358,0.00084790,0.06400485,-0.01468575,-0.00700593,0.00214607,-0
 .22239111,-0.06973808,-0.01358655,-0.03178225,-0.01468249,-0.00347997,
 -0.00393249,0.00248384,-0.00112200,0.01744732,0.01785546,0.00196203,0.
 00099856,-0.00023882,0.00003165,0.00063522,-0.00015319,-0.00006267,0.0
 3898032,-0.00822077,-0.00649003,0.65232593,-0.03637363,-0.01170677,-0.
 00954686,-0.05886959,-0.16020623,0.01471828,-0.00019464,0.01641252,-0.
 00483081,0.00950939,-0.00330951,0.00221797,0.01030455,-0.00089489,0.00
 374703,0.00542504,-0.00117393,0.00149311,0.00124110,0.00143486,0.00021
 050,0.00660741,-0.00628940,-0.00084238,-0.09907763,0.96093448,0.005433
 48,0.00402485,-0.00434831,-0.02422059,0.00600842,-0.05050983,-0.001775
 77,-0.00634888,-0.00227376,-0.00237743,0.00041035,-0.00034777,0.002305
 17,0.00278784,-0.00217260,-0.00043714,0.00014263,0.00026695,-0.0002407
 7,-0.00002863,0.00130412,0.00541705,-0.00132653,0.00104667,0.07060979,
 -0.08751734,0.21163007,-0.00326047,0.00377096,-0.00538570,0.00382117,-
 0.04840643,0.00549937,0.00326005,-0.00012364,0.00070790,0.00232321,-0.
 00280448,0.00065961,-0.00092249,-0.00349076,0.00071724,0.00085551,-0.0
 0180000,0.00076243,-0.00010052,-0.00016226,0.00003420,-0.00677996,0.00
 115617,0.00181037,-0.10853725,0.04955939,-0.01005063,0.11612221,0.0060
 2225,-0.00416433,0.00537327,-0.02983085,-0.07842381,0.00133279,-0.0011
 4684,0.00381489,0.00062440,0.00031503,-0.00002829,-0.00034636,-0.01079
 208,-0.00648750,-0.00206704,-0.00345323,-0.00055441,-0.00068293,-0.000
 76782,-0.00001700,-0.00017711,-0.00832951,0.00340842,0.00075049,0.0626
 5670,-0.61920873,0.06273953,-0.06469627,0.75023595,-0.00220649,0.00171
 424,0.00235632,0.00306191,0.00266224,0.01816016,-0.00002888,0.00001210
 ,-0.00218132,0.00048710,-0.00067220,0.00037886,0.00065250,0.00077404,0
 .00171481,0.00076659,-0.00036526,-0.00065025,0.00006755,-0.00004036,-0
 .00002047,0.00006271,0.00002912,-0.00015838,-0.01123557,0.05925468,-0.
 08350126,0.01549516,-0.07834819,0.04423688,0.01877795,-0.00164189,0.00
 297914,-0.07518563,0.01305935,-0.01804655,-0.00092054,-0.00988302,0.00
 094153,-0.00263371,0.00667959,-0.00136449,-0.00651524,-0.00924347,-0.0
 0143287,-0.00010563,0.00034202,0.00010794,-0.00062252,-0.00066034,0.00
 020980,-0.02226556,0.00715102,0.00388875,-0.30317530,0.08753111,-0.046
 28188,-0.00850195,0.04393292,-0.00597145,0.42554461,-0.01848108,0.0098
 1705,-0.00309910,-0.00782347,0.01389727,0.00311441,0.00342243,0.000976
 91,0.00083021,-0.00239553,-0.00537737,0.00037090,0.00638549,0.00998308
 ,0.00137267,-0.00094940,-0.00000444,-0.00046581,-0.00005401,-0.0001212
 1,-0.00008358,0.03208767,-0.00896610,-0.00633334,0.08641890,-0.1685603
 5,0.01251962,0.07260674,-0.05167973,0.01717612,-0.12978394,0.44083029,
 0.00251155,-0.00138749,0.00117874,-0.00937879,0.00256546,0.00928012,-0
 .00188431,0.00050402,0.00493917,0.00029748,0.00142964,0.00042053,-0.00
 220614,-0.00181163,0.00064629,0.00000061,-0.00002308,-0.00034018,0.000
 08706,-0.00009309,-0.00066887,0.00232856,-0.00136808,-0.00291163,-0.04
 784790,0.01351332,-0.06787518,-0.00517167,0.00893189,0.01672028,0.0720
 3186,0.02882065,0.06523035,-0.00705632,0.00155721,-0.00082323,-0.00079
 491,0.00043946,-0.00028526,-0.00014528,0.00017024,-0.00013932,-0.00062
 008,0.00003715,-0.00012627,-0.00115437,0.00088744,-0.00025550,-0.00007
 382,0.00003571,0.00003006,-0.00007289,0.00011443,-0.00005840,0.0118452
 8,0.00017445,0.01730039,-0.00003705,0.00043455,0.00049275,0.00010028,-
 0.00039917,0.00000857,0.00042784,-0.00213203,0.00017377,0.03054515,0.0
 0103168,0.00167519,-0.00003117,-0.00036855,-0.00009837,0.00019232,0.00
 011675,-0.00017551,0.00010959,-0.00000296,0.00033603,-0.00010558,0.000
 32661,-0.00060929,0.00002108,-0.00002379,-0.00001100,-0.00003692,-0.00
 002149,-0.00001660,-0.00000275,-0.00047717,-0.00162972,-0.00138406,-0.
 00042260,-0.00121193,-0.00057100,0.00039680,-0.00022625,0.00020339,-0.
 00038461,-0.00753208,0.00186957,-0.01642192,0.03713383,-0.00100593,0.0
 0066004,0.00118351,0.00025072,-0.00018055,-0.00009204,-0.00007288,0.00
 004720,-0.00000768,0.00007273,0.00000348,-0.00003484,0.00004653,-0.000
 15420,-0.00000300,-0.00000139,-0.00000595,-0.00000253,-0.00001379,-0.0
 0001582,-0.00001711,-0.00076097,-0.00064502,-0.00398900,0.00028305,-0.
 00047236,0.00006765,-0.00004358,0.00015399,-0.00010192,0.00001828,0.00
 193612,0.00095527,-0.08348901,0.11112088,0.51850861,-0.08006679,0.0311
 6077,0.02388591,0.00361382,-0.00100738,0.00448803,-0.00244636,0.005628
 87,-0.00132478,-0.00343106,-0.00229544,-0.00172487,0.00306534,0.011968
 59,0.00560842,-0.00063040,0.00001327,-0.00023282,-0.00078557,0.0005687
 5,-0.00090611,0.00566337,-0.02340162,-0.02919860,-0.02471142,-0.007805
 02,-0.00514845,0.00459280,0.00553275,0.00008905,0.02602291,-0.01711086
 ,-0.00099576,-0.03294168,0.01292789,0.08446577,0.12714247,0.01759573,0
 .00593963,-0.00548470,0.00449991,0.00352385,0.00190678,0.00056358,0.00
 216806,-0.00015829,0.00191655,-0.00156867,0.00072094,0.00371295,0.0003
 4095,-0.00113048,-0.00014594,0.00000401,-0.00004807,0.00034401,-0.0001
 1090,0.00027178,0.00608204,-0.02706166,-0.00396046,-0.03512162,0.00429
 197,-0.00786291,0.00821828,-0.00656346,0.00297815,0.02213805,-0.083908
 20,-0.02042256,0.01205150,-0.03677648,-0.11216707,-0.03709843,0.123003
 08,0.02264330,-0.00542686,0.00588227,0.00282988,-0.00141991,0.00042386
 ,0.00041435,-0.00124840,0.00050570,0.00151513,0.00055614,0.00009457,0.
 00288889,-0.00346490,0.00070369,0.00023939,-0.00009902,-0.00009427,0.0
 0037389,-0.00031169,0.00010590,-0.01213029,0.00279900,-0.03359647,-0.0
 0473713,-0.00058015,-0.00162940,0.00177201,-0.00238368,0.00060586,0.00
 293953,-0.02421999,0.00777426,0.06981462,-0.09791064,-0.51322064,-0.09
 063922,0.12073838,0.55968057,-0.00234530,-0.00008047,0.00206263,-0.001
 69941,0.00172028,-0.00132492,-0.00067514,0.00024645,-0.00028896,0.0007
 7991,0.00049815,-0.00005591,-0.00012993,-0.00097495,-0.00002036,0.0001
 2752,0.00002697,0.00004283,0.00015019,-0.00000073,0.00004813,-0.005558
 56,-0.01233110,-0.00164309,-0.00113473,0.03170797,0.00627443,-0.002972
 59,0.00095613,-0.00124876,-0.05084722,-0.02219089,-0.00994632,-0.00002
 215,0.00332335,0.00025047,-0.02508743,-0.00475660,0.00207564,0.0894148
 4,0.02283338,-0.00435973,-0.00300491,-0.01652582,-0.00020765,-0.004627
 30,0.00024873,-0.00555211,0.00129558,-0.00009655,0.00400900,-0.0001958
 3,-0.00540666,-0.00945198,-0.00205557,0.00034156,0.00009568,0.00022722
 ,-0.00012799,-0.00038542,0.00024252,-0.04887591,0.01091602,0.01025773,
 0.06524623,-0.01051210,0.01502204,-0.01422448,0.00989425,-0.00537808,-
 0.02923677,-0.14935512,-0.03252861,0.00305097,0.00914216,-0.00028076,0
 .02091787,0.01671781,0.01297171,0.00185544,0.12904919,0.00455057,-0.00
 188600,-0.00148144,-0.00261654,-0.00023397,-0.00024934,-0.00001415,-0.
 00117752,-0.00042192,-0.00019791,0.00046642,0.00002297,-0.00048355,-0.
 00130368,-0.00098500,0.00008608,0.00003333,0.00015414,-0.00006661,-0.0
 0005593,0.00018443,-0.01072530,0.00416419,0.00764348,0.01352922,0.0086
 3501,-0.00165736,-0.00680672,0.00409894,0.00244041,-0.01001958,-0.0319
 3888,-0.03534916,-0.00264317,-0.01347470,-0.00324628,0.01163344,0.0246
 1853,-0.02723590,0.00377420,0.00805426,0.06018097\\-0.00001190,-0.0000
 1835,0.00000197,0.00002908,0.00002536,-0.00000079,-0.00000162,0.000002
 35,0.00000954,0.00000012,0.00000309,-0.00000810,0.00000305,0.00001028,
 -0.00000202,0.00000058,-0.00000209,-0.00000768,-0.00000051,0.00000090,
 0.00000150,0.00001928,-0.00001333,0.00001426,-0.00002680,-0.00003350,-
 0.00000955,0.00000491,-0.00000436,0.00000634,0.00000631,0.00001029,-0.
 00000411,-0.00000357,0.00000775,-0.00000208,-0.00000374,0.00000345,0.0
 0000582,-0.00001520,0.00000815,-0.00000511\\\@


 EVERYTHING'S GOT A MORAL, IF ONLY YOU CAN FIND IT.

                                    -- LEWIS CARROL, ALICE IN WONDERLAND
 Job cpu time:       0 days  0 hours 34 minutes 18.0 seconds.
 Elapsed time:       0 days  0 hours  1 minutes 26.3 seconds.
 File lengths (MBytes):  RWF=    127 Int=      0 D2E=      0 Chk=      6 Scr=      1
 Normal termination of Gaussian 16 at Sun Jun  4 07:27:24 2023.
