 Entering Gaussian System, Link 0=/home/gau/soft/g16/g16
 Initial command:
 /home/gau/soft/g16/l1.exe "/home/gau/soft/scratch/Gau-193936.inp" -scrdir="/home/gau/soft/scratch/"
 Entering Link 1 = /home/gau/soft/g16/l1.exe PID=    193937.
  
 Copyright (c) 1988-2019, Gaussian, Inc.  All Rights Reserved.
  
 This is part of the Gaussian(R) 16 program.  It is based on
 the Gaussian(R) 09 system (copyright 2009, Gaussian, Inc.),
 the Gaussian(R) 03 system (copyright 2003, Gaussian, Inc.),
 the Gaussian(R) 98 system (copyright 1998, Gaussian, Inc.),
 the Gaussian(R) 94 system (copyright 1995, Gaussian, Inc.),
 the Gaussian 92(TM) system (copyright 1992, Gaussian, Inc.),
 the Gaussian 90(TM) system (copyright 1990, Gaussian, Inc.),
 the Gaussian 88(TM) system (copyright 1988, Gaussian, Inc.),
 the Gaussian 86(TM) system (copyright 1986, Carnegie Mellon
 University), and the Gaussian 82(TM) system (copyright 1983,
 Carnegie Mellon University). Gaussian is a federally registered
 trademark of Gaussian, Inc.
  
 This software contains proprietary and confidential information,
 including trade secrets, belonging to Gaussian, Inc.
  
 This software is provided under written license and may be
 used, copied, transmitted, or stored only in accord with that
 written license.
  
 The following legend is applicable only to US Government
 contracts under FAR:
  
                    RESTRICTED RIGHTS LEGEND
  
 Use, reproduction and disclosure by the US Government is
 subject to restrictions as set forth in subparagraphs (a)
 and (c) of the Commercial Computer Software - Restricted
 Rights clause in FAR 52.227-19.
  
 Gaussian, Inc.
 340 Quinnipiac St., Bldg. 40, Wallingford CT 06492
  
  
 ---------------------------------------------------------------
 Warning -- This program may not be used in any manner that
 competes with the business of Gaussian, Inc. or will provide
 assistance to any competitor of Gaussian, Inc.  The licensee
 of this program is prohibited from giving any competitor of
 Gaussian, Inc. access to this program.  By using this program,
 the user acknowledges that Gaussian, Inc. is engaged in the
 business of creating and licensing software in the field of
 computational chemistry and represents and warrants to the
 licensee that it is not a competitor of Gaussian, Inc. and that
 it will not use this program in any manner prohibited above.
 ---------------------------------------------------------------
  

 Cite this work as:
 Gaussian 16, Revision C.01,
 M. J. Frisch, G. W. Trucks, H. B. Schlegel, G. E. Scuseria, 
 M. A. Robb, J. R. Cheeseman, G. Scalmani, V. Barone, 
 G. A. Petersson, H. Nakatsuji, X. Li, M. Caricato, A. V. Marenich, 
 J. Bloino, B. G. Janesko, R. Gomperts, B. Mennucci, H. P. Hratchian, 
 J. V. Ortiz, A. F. Izmaylov, J. L. Sonnenberg, D. Williams-Young, 
 F. Ding, F. Lipparini, F. Egidi, J. Goings, B. Peng, A. Petrone, 
 T. Henderson, D. Ranasinghe, V. G. Zakrzewski, J. Gao, N. Rega, 
 G. Zheng, W. Liang, M. Hada, M. Ehara, K. Toyota, R. Fukuda, 
 J. Hasegawa, M. Ishida, T. Nakajima, Y. Honda, O. Kitao, H. Nakai, 
 T. Vreven, K. Throssell, J. A. Montgomery, Jr., J. E. Peralta, 
 F. Ogliaro, M. J. Bearpark, J. J. Heyd, E. N. Brothers, K. N. Kudin, 
 V. N. Staroverov, T. A. Keith, R. Kobayashi, J. Normand, 
 K. Raghavachari, A. P. Rendell, J. C. Burant, S. S. Iyengar, 
 J. Tomasi, M. Cossi, J. M. Millam, M. Klene, C. Adamo, R. Cammi, 
 J. W. Ochterski, R. L. Martin, K. Morokuma, O. Farkas, 
 J. B. Foresman, and D. J. Fox, Gaussian, Inc., Wallingford CT, 2019.
 
 ******************************************
 Gaussian 16:  ES64L-G16RevC.01  3-Jul-2019
                 7-Dec-2023 
 ******************************************
 %mem=10GB
 %nprocshared=48
 Will use up to   48 processors via shared memory.
 ----------------------------------------------------------------------
 # opt=(calcfc,ts,noeigentest) freq 6-31+g(d,p) integral=grid=ultrafine
  m062x
 ----------------------------------------------------------------------
 1/5=1,10=4,11=1,18=20,26=4,38=1/1,3;
 2/9=110,12=2,17=6,18=5,40=1/2;
 3/5=1,6=6,7=111,11=2,25=1,30=1,71=2,74=-55,75=-5,140=1/1,2,3;
 4//1;
 5/5=2,38=5/2;
 8/6=4,10=90,11=11/1;
 11/6=1,8=1,9=11,15=111,16=1/1,2,10;
 10/6=1,13=1/2;
 6/7=2,8=2,9=2,10=2,28=1/1;
 7/10=1,25=1/1,2,3,16;
 1/5=1,10=4,11=1,18=20,26=4/3(2);
 2/9=110/2;
 99//99;
 2/9=110/2;
 3/5=1,6=6,7=111,11=2,25=1,30=1,71=1,74=-55,75=-5/1,2,3;
 4/5=5,16=3,69=1/1;
 5/5=2,38=5/2;
 7//1,2,3,16;
 1/5=1,11=1,18=20,26=4/3(-5);
 2/9=110/2;
 6/7=2,8=2,9=2,10=2,19=2,28=1/1;
 99/9=1/99;
 ----
 test
 ----
 Symbolic Z-matrix:
 Charge =  0 Multiplicity = 1
 N                    -0.51426  -0.94693  -0.00484 
 N                    -0.33321   0.37393  -0.00345 
 C                    -1.53284   0.9724    0.0018 
 C                    -2.44934  -0.06449   0.00419 
 N                    -1.77797  -1.23538   0.00021 
 H                    -1.61193   2.04786   0.00339 
 H                    -3.5269   -0.03566   0.00791 
 H                     2.07382  -1.01221   0.25634 
 C                     1.05171   1.09679  -0.00005 
 O                     0.92667   2.29312   0.01817 
 O                     2.01554   0.30402  -0.01338 
 H                     0.61054  -1.6818    0.21074 
 O                     1.58518  -2.087     0.37172 
 H                     1.82099  -2.72933  -0.30819 
 
 Add virtual bond connecting atoms O13        and H8         Dist= 2.24D+00.
 Add virtual bond connecting atoms N1         and H12        Dist= 2.57D+00.
 Add virtual bond connecting atoms O11        and H8         Dist= 2.54D+00.

 GradGradGradGradGradGradGradGradGradGradGradGradGradGradGradGradGradGrad
 Berny optimization.
 Initialization pass.
                           ----------------------------
                           !    Initial Parameters    !
                           ! (Angstroms and Degrees)  !
 --------------------------                            --------------------------
 ! Name  Definition              Value          Derivative Info.                !
 --------------------------------------------------------------------------------
 ! R1    R(1,2)                  1.3332         calculate D2E/DX2 analytically  !
 ! R2    R(1,5)                  1.2962         calculate D2E/DX2 analytically  !
 ! R3    R(1,12)                 1.3608         calculate D2E/DX2 analytically  !
 ! R4    R(2,3)                  1.3406         calculate D2E/DX2 analytically  !
 ! R5    R(2,9)                  1.5622         calculate D2E/DX2 analytically  !
 ! R6    R(3,4)                  1.3839         calculate D2E/DX2 analytically  !
 ! R7    R(3,6)                  1.0784         calculate D2E/DX2 analytically  !
 ! R8    R(4,5)                  1.3497         calculate D2E/DX2 analytically  !
 ! R9    R(4,7)                  1.0779         calculate D2E/DX2 analytically  !
 ! R10   R(8,11)                 1.3448         calculate D2E/DX2 analytically  !
 ! R11   R(8,13)                 1.1863         calculate D2E/DX2 analytically  !
 ! R12   R(9,10)                 1.203          calculate D2E/DX2 analytically  !
 ! R13   R(9,11)                 1.2481         calculate D2E/DX2 analytically  !
 ! R14   R(12,13)                1.0677         calculate D2E/DX2 analytically  !
 ! R15   R(13,14)                0.9646         calculate D2E/DX2 analytically  !
 ! A1    A(2,1,5)              110.6617         calculate D2E/DX2 analytically  !
 ! A2    A(2,1,12)             115.0003         calculate D2E/DX2 analytically  !
 ! A3    A(5,1,12)             133.2414         calculate D2E/DX2 analytically  !
 ! A4    A(1,2,3)              108.7093         calculate D2E/DX2 analytically  !
 ! A5    A(1,2,9)              125.367          calculate D2E/DX2 analytically  !
 ! A6    A(3,2,9)              125.9228         calculate D2E/DX2 analytically  !
 ! A7    A(2,3,4)              104.9595         calculate D2E/DX2 analytically  !
 ! A8    A(2,3,6)              120.7198         calculate D2E/DX2 analytically  !
 ! A9    A(4,3,6)              134.3207         calculate D2E/DX2 analytically  !
 ! A10   A(3,4,5)              108.6971         calculate D2E/DX2 analytically  !
 ! A11   A(3,4,7)              129.9406         calculate D2E/DX2 analytically  !
 ! A12   A(5,4,7)              121.3622         calculate D2E/DX2 analytically  !
 ! A13   A(1,5,4)              106.9723         calculate D2E/DX2 analytically  !
 ! A14   A(11,8,13)            152.6729         calculate D2E/DX2 analytically  !
 ! A15   A(2,9,10)             111.595          calculate D2E/DX2 analytically  !
 ! A16   A(2,9,11)             112.9969         calculate D2E/DX2 analytically  !
 ! A17   A(10,9,11)            135.4078         calculate D2E/DX2 analytically  !
 ! A18   A(8,11,9)             130.7692         calculate D2E/DX2 analytically  !
 ! A19   A(8,13,12)             91.0027         calculate D2E/DX2 analytically  !
 ! A20   A(8,13,14)            115.7259         calculate D2E/DX2 analytically  !
 ! A21   A(12,13,14)           111.6898         calculate D2E/DX2 analytically  !
 ! A22   L(1,12,13,11,-1)      169.5602         calculate D2E/DX2 analytically  !
 ! A23   L(1,12,13,11,-2)      179.2714         calculate D2E/DX2 analytically  !
 ! D1    D(5,1,2,3)             -0.0438         calculate D2E/DX2 analytically  !
 ! D2    D(5,1,2,9)            179.6284         calculate D2E/DX2 analytically  !
 ! D3    D(12,1,2,3)          -169.6876         calculate D2E/DX2 analytically  !
 ! D4    D(12,1,2,9)             9.9847         calculate D2E/DX2 analytically  !
 ! D5    D(2,1,5,4)              0.0392         calculate D2E/DX2 analytically  !
 ! D6    D(12,1,5,4)           167.1156         calculate D2E/DX2 analytically  !
 ! D7    D(2,1,13,8)            -8.33           calculate D2E/DX2 analytically  !
 ! D8    D(2,1,13,14)         -124.448          calculate D2E/DX2 analytically  !
 ! D9    D(5,1,13,8)          -174.5485         calculate D2E/DX2 analytically  !
 ! D10   D(5,1,13,14)           69.3334         calculate D2E/DX2 analytically  !
 ! D11   D(1,2,3,4)              0.0289         calculate D2E/DX2 analytically  !
 ! D12   D(1,2,3,6)           -179.9776         calculate D2E/DX2 analytically  !
 ! D13   D(9,2,3,4)           -179.6411         calculate D2E/DX2 analytically  !
 ! D14   D(9,2,3,6)              0.3525         calculate D2E/DX2 analytically  !
 ! D15   D(1,2,9,10)          -179.1006         calculate D2E/DX2 analytically  !
 ! D16   D(1,2,9,11)             0.7332         calculate D2E/DX2 analytically  !
 ! D17   D(3,2,9,10)             0.5161         calculate D2E/DX2 analytically  !
 ! D18   D(3,2,9,11)          -179.6501         calculate D2E/DX2 analytically  !
 ! D19   D(2,3,4,5)             -0.0055         calculate D2E/DX2 analytically  !
 ! D20   D(2,3,4,7)           -179.9692         calculate D2E/DX2 analytically  !
 ! D21   D(6,3,4,5)           -179.9978         calculate D2E/DX2 analytically  !
 ! D22   D(6,3,4,7)              0.0385         calculate D2E/DX2 analytically  !
 ! D23   D(3,4,5,1)             -0.0203         calculate D2E/DX2 analytically  !
 ! D24   D(7,4,5,1)            179.9471         calculate D2E/DX2 analytically  !
 ! D25   D(13,8,11,9)           21.3707         calculate D2E/DX2 analytically  !
 ! D26   D(11,8,13,12)          -5.6545         calculate D2E/DX2 analytically  !
 ! D27   D(11,8,13,14)         109.1006         calculate D2E/DX2 analytically  !
 ! D28   D(2,9,11,8)           -16.3003         calculate D2E/DX2 analytically  !
 ! D29   D(10,9,11,8)          163.4796         calculate D2E/DX2 analytically  !
 --------------------------------------------------------------------------------
 Trust Radius=3.00D-01 FncErr=1.00D-07 GrdErr=1.00D-06 EigMax=2.50D+02 EigMin=1.00D-04
 Number of steps in this run=     77 maximum allowed number of steps=    100.
 Search for a saddle point of order  1.
 GradGradGradGradGradGradGradGradGradGradGradGradGradGradGradGradGradGrad

                          Input orientation:                          
 ---------------------------------------------------------------------
 Center     Atomic      Atomic             Coordinates (Angstroms)
 Number     Number       Type             X           Y           Z
 ---------------------------------------------------------------------
      1          7           0       -0.514257   -0.946931   -0.004837
      2          7           0       -0.333213    0.373928   -0.003453
      3          6           0       -1.532840    0.972403    0.001803
      4          6           0       -2.449341   -0.064492    0.004187
      5          7           0       -1.777974   -1.235375    0.000209
      6          1           0       -1.611927    2.047863    0.003385
      7          1           0       -3.526896   -0.035662    0.007909
      8          1           0        2.073816   -1.012211    0.256343
      9          6           0        1.051705    1.096785   -0.000052
     10          8           0        0.926668    2.293121    0.018166
     11          8           0        2.015539    0.304015   -0.013380
     12          1           0        0.610544   -1.681796    0.210743
     13          8           0        1.585184   -2.086996    0.371725
     14          1           0        1.820991   -2.729333   -0.308192
 ---------------------------------------------------------------------
                    Distance matrix (angstroms):
                    1          2          3          4          5
     1  N    0.000000
     2  N    1.333209   0.000000
     3  C    2.172878   1.340636   0.000000
     4  C    2.126812   2.161080   1.383883   0.000000
     5  N    1.296228   2.162684   2.221346   1.349710   0.000000
     6  H    3.189630   2.106470   1.078365   2.272291   3.287436
     7  H    3.147470   3.219861   2.234388   1.077947   2.120872
     8  H    2.602037   2.789743   4.124494   4.628251   3.866742
     9  C    2.574691   1.562220   2.587537   3.688618   3.666886
    10  O    3.546087   2.295881   2.791728   4.117763   4.445863
    11  O    2.822199   2.349813   3.610812   4.480096   4.093977
    12  H    1.360764   2.272127   3.417971   3.467165   2.438982
    13  O    2.418512   3.142793   4.383929   4.528023   3.489142
    14  H    2.953365   3.789946   5.004710   5.043282   3.908909
                    6          7          8          9         10
     6  H    0.000000
     7  H    2.829877   0.000000
     8  H    4.797160   5.690636   0.000000
     9  C    2.828338   4.716576   2.357607   0.000000
    10  O    2.550458   5.025691   3.506835   1.202990   0.000000
    11  O    4.024897   5.552875   1.344841   1.248054   2.267858
    12  H    4.346577   4.457500   1.609842   2.821271   3.992116
    13  O    5.239680   5.520298   1.186270   3.249504   4.443430
    14  H    5.890976   5.996305   1.825138   3.914834   5.111884
                   11         12         13         14
    11  O    0.000000
    12  H    2.442885   0.000000
    13  O    2.459765   1.067719   0.000000
    14  H    3.053844   1.682798   0.964618   0.000000
 Stoichiometry    C3H5N3O3
 Framework group  C1[X(C3H5N3O3)]
 Deg. of freedom    36
 Full point group                 C1      NOp   1
 Largest Abelian subgroup         C1      NOp   1
 Largest concise Abelian subgroup C1      NOp   1
                         Standard orientation:                         
 ---------------------------------------------------------------------
 Center     Atomic      Atomic             Coordinates (Angstroms)
 Number     Number       Type             X           Y           Z
 ---------------------------------------------------------------------
      1          7           0       -0.529786    0.933879    0.080155
      2          7           0       -0.321033   -0.381657    0.023272
      3          6           0       -1.507195   -1.002780   -0.044029
      4          6           0       -2.444880    0.014826   -0.025140
      5          7           0       -1.798659    1.197267    0.051985
      6          1           0       -1.563570   -2.078351   -0.097320
      7          1           0       -3.521068   -0.035044   -0.061210
      8          1           0        2.062612    1.062271   -0.103114
      9          6           0        1.078340   -1.076119    0.026530
     10          8           0        0.979048   -2.272544   -0.050252
     11          8           0        2.024541   -0.265975    0.104032
     12          1           0        0.584878    1.700021   -0.068940
     13          8           0        1.554886    2.131416   -0.182994
     14          1           0        1.758102    2.745937    0.532238
 ---------------------------------------------------------------------
 Rotational constants (GHZ):           2.1770081           1.6365329           0.9384856
 Standard basis: 6-31+G(d,p) (6D, 7F)
 There are   196 symmetry adapted cartesian basis functions of A   symmetry.
 There are   196 symmetry adapted basis functions of A   symmetry.
   196 basis functions,   323 primitive gaussians,   196 cartesian basis functions
    34 alpha electrons       34 beta electrons
       nuclear repulsion energy       462.2567914082 Hartrees.
 NAtoms=   14 NActive=   14 NUniq=   14 SFac= 1.00D+00 NAtFMM=   60 NAOKFM=F Big=F
 Integral buffers will be    131072 words long.
 Raffenetti 2 integral format.
 Two-electron integral symmetry is turned on.
 One-electron integrals computed using PRISM.
 NBasis=   196 RedAO= T EigKep=  1.96D-05  NBF=   196
 NBsUse=   196 1.00D-06 EigRej= -1.00D+00 NBFU=   196
 ExpMin= 4.38D-02 ExpMax= 5.48D+03 ExpMxC= 8.25D+02 IAcc=3 IRadAn=         5 AccDes= 0.00D+00
 Harris functional with IExCor= 1009 and IRadAn=       5 diagonalized for initial guess.
 HarFok:  IExCor= 1009 AccDes= 0.00D+00 IRadAn=         5 IDoV= 1 UseB2=F ITyADJ=14
 ICtDFT=  3500011 ScaDFX=  1.000000  1.000000  1.000000  1.000000
 FoFCou: FMM=F IPFlag=           0 FMFlag=      100000 FMFlg1=           0
         NFxFlg=           0 DoJE=T BraDBF=F KetDBF=T FulRan=T
         wScrn=  0.000000 ICntrl=       500 IOpCl=  0 I1Cent=   200000004 NGrid=           0
         NMat0=    1 NMatS0=      1 NMatT0=    0 NMatD0=    1 NMtDS0=    0 NMtDT0=    0
 Petite list used in FoFCou.
 Requested convergence on RMS density matrix=1.00D-08 within 128 cycles.
 Requested convergence on MAX density matrix=1.00D-06.
 Requested convergence on             energy=1.00D-06.
 No special actions if energy rises.
 SCF Done:  E(RM062X) =  -507.045654963     A.U. after   14 cycles
            NFock= 14  Conv=0.83D-08     -V/T= 2.0082
 DoSCS=F DFT=T ScalE2(SS,OS)=  1.000000  1.000000
 Range of M.O.s used for correlation:     1   196
 NBasis=   196 NAE=    34 NBE=    34 NFC=     0 NFV=     0
 NROrb=    196 NOA=    34 NOB=    34 NVA=   162 NVB=   162

 **** Warning!!: The largest alpha MO coefficient is  0.57227520D+02

 Symmetrizing basis deriv contribution to polar:
 IMax=3 JMax=2 DiffMx= 0.00D+00
 G2DrvN: will do    15 centers at a time, making    1 passes.
 Calling FoFCou, ICntrl=  3107 FMM=F I1Cent=   0 AccDes= 0.00D+00.
 End of G2Drv F.D. properties file   721 does not exist.
 End of G2Drv F.D. properties file   722 does not exist.
 End of G2Drv F.D. properties file   788 does not exist.
          IDoAtm=11111111111111
          Differentiating once with respect to nuclear coordinates.
 Keep R1 ints in memory in canonical form, NReq=235503722.
          There are    45 degrees of freedom in the 1st order CPHF.  IDoFFX=6 NUNeed=     0.
     39 vectors produced by pass  0 Test12= 1.22D-14 2.22D-09 XBig12= 1.38D-01 8.79D-02.
 AX will form    39 AO Fock derivatives at one time.
     39 vectors produced by pass  1 Test12= 1.22D-14 2.22D-09 XBig12= 2.05D-02 3.70D-02.
     39 vectors produced by pass  2 Test12= 1.22D-14 2.22D-09 XBig12= 3.53D-04 2.91D-03.
     39 vectors produced by pass  3 Test12= 1.22D-14 2.22D-09 XBig12= 3.87D-06 2.15D-04.
     39 vectors produced by pass  4 Test12= 1.22D-14 2.22D-09 XBig12= 4.22D-08 2.05D-05.
     39 vectors produced by pass  5 Test12= 1.22D-14 2.22D-09 XBig12= 2.41D-10 1.78D-06.
     35 vectors produced by pass  6 Test12= 1.22D-14 2.22D-09 XBig12= 9.15D-13 1.09D-07.
      4 vectors produced by pass  7 Test12= 1.22D-14 2.22D-09 XBig12= 3.59D-15 7.26D-09.
 InvSVY:  IOpt=1 It=  1 EMax= 2.00D-15
 Solved reduced A of dimension   273 with    39 vectors.
 End of Minotr F.D. properties file   721 does not exist.
 End of Minotr F.D. properties file   722 does not exist.
 End of Minotr F.D. properties file   788 does not exist.

 **********************************************************************

            Population analysis using the SCF Density.

 **********************************************************************

 Orbital symmetries:
       Occupied  (A) (A) (A) (A) (A) (A) (A) (A) (A) (A) (A) (A)
                 (A) (A) (A) (A) (A) (A) (A) (A) (A) (A) (A) (A)
                 (A) (A) (A) (A) (A) (A) (A) (A) (A) (A)
       Virtual   (A) (A) (A) (A) (A) (A) (A) (A) (A) (A) (A) (A)
                 (A) (A) (A) (A) (A) (A) (A) (A) (A) (A) (A) (A)
                 (A) (A) (A) (A) (A) (A) (A) (A) (A) (A) (A) (A)
                 (A) (A) (A) (A) (A) (A) (A) (A) (A) (A) (A) (A)
                 (A) (A) (A) (A) (A) (A) (A) (A) (A) (A) (A) (A)
                 (A) (A) (A) (A) (A) (A) (A) (A) (A) (A) (A) (A)
                 (A) (A) (A) (A) (A) (A) (A) (A) (A) (A) (A) (A)
                 (A) (A) (A) (A) (A) (A) (A) (A) (A) (A) (A) (A)
                 (A) (A) (A) (A) (A) (A) (A) (A) (A) (A) (A) (A)
                 (A) (A) (A) (A) (A) (A) (A) (A) (A) (A) (A) (A)
                 (A) (A) (A) (A) (A) (A) (A) (A) (A) (A) (A) (A)
                 (A) (A) (A) (A) (A) (A) (A) (A) (A) (A) (A) (A)
                 (A) (A) (A) (A) (A) (A) (A) (A) (A) (A) (A) (A)
                 (A) (A) (A) (A) (A) (A)
 The electronic state is 1-A.
 Alpha  occ. eigenvalues --  -19.71205 -19.66708 -19.64537 -14.88301 -14.87164
 Alpha  occ. eigenvalues --  -14.82969 -10.73543 -10.62278 -10.60410  -1.27133
 Alpha  occ. eigenvalues --   -1.22799  -1.20495  -1.14758  -1.04321  -0.94312
 Alpha  occ. eigenvalues --   -0.76926  -0.75021  -0.72005  -0.69874  -0.63692
 Alpha  occ. eigenvalues --   -0.59966  -0.59343  -0.55977  -0.55066  -0.53848
 Alpha  occ. eigenvalues --   -0.53418  -0.50042  -0.45027  -0.40669  -0.39936
 Alpha  occ. eigenvalues --   -0.39707  -0.38144  -0.37094  -0.35379
 Alpha virt. eigenvalues --   -0.01764   0.01130   0.02510   0.03848   0.04115
 Alpha virt. eigenvalues --    0.04921   0.05160   0.05929   0.07250   0.08720
 Alpha virt. eigenvalues --    0.09555   0.10035   0.11026   0.12084   0.12466
 Alpha virt. eigenvalues --    0.14649   0.15038   0.15925   0.17117   0.17963
 Alpha virt. eigenvalues --    0.19025   0.20231   0.20976   0.21737   0.21940
 Alpha virt. eigenvalues --    0.23216   0.23545   0.23973   0.24426   0.25572
 Alpha virt. eigenvalues --    0.25787   0.27991   0.28053   0.29161   0.29838
 Alpha virt. eigenvalues --    0.30091   0.32054   0.32735   0.33073   0.33779
 Alpha virt. eigenvalues --    0.34441   0.36644   0.37978   0.38777   0.40664
 Alpha virt. eigenvalues --    0.43641   0.44549   0.46354   0.49538   0.50329
 Alpha virt. eigenvalues --    0.51696   0.66121   0.70682   0.72892   0.74447
 Alpha virt. eigenvalues --    0.79159   0.80900   0.85263   0.87562   0.88427
 Alpha virt. eigenvalues --    0.90870   0.91345   0.92822   0.95178   0.96229
 Alpha virt. eigenvalues --    0.98870   0.99484   1.00995   1.02040   1.03947
 Alpha virt. eigenvalues --    1.09098   1.12750   1.13519   1.17270   1.19183
 Alpha virt. eigenvalues --    1.21860   1.23909   1.24916   1.26256   1.28305
 Alpha virt. eigenvalues --    1.29753   1.31766   1.34174   1.35234   1.35702
 Alpha virt. eigenvalues --    1.37149   1.40831   1.42335   1.43325   1.45838
 Alpha virt. eigenvalues --    1.46892   1.48745   1.50188   1.54344   1.54988
 Alpha virt. eigenvalues --    1.56640   1.58687   1.62902   1.65388   1.68820
 Alpha virt. eigenvalues --    1.72592   1.72929   1.79766   1.81769   1.83422
 Alpha virt. eigenvalues --    1.90747   1.91224   1.96511   1.98951   1.99303
 Alpha virt. eigenvalues --    2.03654   2.07974   2.08268   2.13658   2.18381
 Alpha virt. eigenvalues --    2.18899   2.22254   2.23309   2.24636   2.28254
 Alpha virt. eigenvalues --    2.31570   2.35467   2.37007   2.39002   2.43036
 Alpha virt. eigenvalues --    2.44708   2.50244   2.52229   2.55923   2.58169
 Alpha virt. eigenvalues --    2.60552   2.61774   2.65370   2.71803   2.73415
 Alpha virt. eigenvalues --    2.78575   2.82132   2.85036   2.87442   2.92146
 Alpha virt. eigenvalues --    2.92722   2.95222   3.05444   3.07126   3.13081
 Alpha virt. eigenvalues --    3.18967   3.23999   3.27440   3.32040   3.39377
 Alpha virt. eigenvalues --    3.66254   3.71772   3.74958   4.06192   4.19870
 Alpha virt. eigenvalues --    4.26167   4.32270   4.45563   4.49221   4.55382
 Alpha virt. eigenvalues --    4.70085   4.78428
          Condensed to atoms (all electrons):
               1          2          3          4          5          6
     1  N    8.947509  -0.633866  -0.800286   0.804623  -1.027651  -0.006916
     2  N   -0.633866   7.529761   0.425533  -0.290230   0.336434  -0.039588
     3  C   -0.800286   0.425533   6.163331  -0.556561   0.474593   0.429190
     4  C    0.804623  -0.290230  -0.556561   6.186449  -0.245767  -0.041390
     5  N   -1.027651   0.336434   0.474593  -0.245767   7.535143   0.002339
     6  H   -0.006916  -0.039588   0.429190  -0.041390   0.002339   0.431044
     7  H    0.029257  -0.025866   0.001053   0.378052  -0.056380   0.000458
     8  H    0.002698   0.004903   0.002569  -0.002693   0.008826   0.000000
     9  C   -0.019240   0.080675  -0.071354  -0.032384   0.039825  -0.005789
    10  O    0.016095  -0.082612  -0.084372   0.064367  -0.005322  -0.000402
    11  O   -0.045933  -0.082683   0.030576   0.000190   0.011283  -0.000590
    12  H    0.062844   0.021132   0.018638  -0.008074   0.023822  -0.000016
    13  O   -0.033704  -0.069181  -0.003576  -0.000272  -0.026891   0.000067
    14  H   -0.001009   0.006128  -0.000117  -0.000371   0.000824  -0.000000
               7          8          9         10         11         12
     1  N    0.029257   0.002698  -0.019240   0.016095  -0.045933   0.062844
     2  N   -0.025866   0.004903   0.080675  -0.082612  -0.082683   0.021132
     3  C    0.001053   0.002569  -0.071354  -0.084372   0.030576   0.018638
     4  C    0.378052  -0.002693  -0.032384   0.064367   0.000190  -0.008074
     5  N   -0.056380   0.008826   0.039825  -0.005322   0.011283   0.023822
     6  H    0.000458   0.000000  -0.005789  -0.000402  -0.000590  -0.000016
     7  H    0.484612  -0.000000  -0.000573  -0.000207  -0.000001  -0.000007
     8  H   -0.000000   0.218808  -0.007105   0.001476   0.114022  -0.004911
     9  C   -0.000573  -0.007105   4.422135   0.502856   0.302890  -0.006239
    10  O   -0.000207   0.001476   0.502856   8.155510  -0.111430   0.000465
    11  O   -0.000001   0.114022   0.302890  -0.111430   8.481303   0.009115
    12  H   -0.000007  -0.004911  -0.006239   0.000465   0.009115   0.258448
    13  O    0.000067   0.140908  -0.003704  -0.003544  -0.085859   0.123328
    14  H   -0.000000  -0.009990   0.001140   0.000011   0.001614  -0.011504
              13         14
     1  N   -0.033704  -0.001009
     2  N   -0.069181   0.006128
     3  C   -0.003576  -0.000117
     4  C   -0.000272  -0.000371
     5  N   -0.026891   0.000824
     6  H    0.000067  -0.000000
     7  H    0.000067  -0.000000
     8  H    0.140908  -0.009990
     9  C   -0.003704   0.001140
    10  O   -0.003544   0.000011
    11  O   -0.085859   0.001614
    12  H    0.123328  -0.011504
    13  O    8.448355   0.289129
    14  H    0.289129   0.301877
 Mulliken charges:
               1
     1  N   -0.294422
     2  N   -0.180541
     3  C   -0.029217
     4  C   -0.255938
     5  N   -0.071079
     6  H    0.231593
     7  H    0.189535
     8  H    0.530489
     9  C    0.796868
    10  O   -0.452893
    11  O   -0.624497
    12  H    0.512959
    13  O   -0.775123
    14  H    0.422266
 Sum of Mulliken charges =  -0.00000
 Mulliken charges with hydrogens summed into heavy atoms:
               1
     1  N   -0.294422
     2  N   -0.180541
     3  C    0.202376
     4  C   -0.066404
     5  N   -0.071079
     9  C    0.796868
    10  O   -0.452893
    11  O   -0.624497
    13  O    0.690592
 APT charges:
               1
     1  N   -0.577971
     2  N   -0.378199
     3  C   -0.360680
     4  C   -0.485307
     5  N    0.141399
     6  H    0.594577
     7  H    0.801524
     8  H    0.481276
     9  C    0.180523
    10  O   -0.139445
    11  O   -0.467985
    12  H    0.306564
    13  O   -0.938531
    14  H    0.842254
 Sum of APT charges =  -0.00000
 APT charges with hydrogens summed into heavy atoms:
               1
     1  N   -0.577971
     2  N   -0.378199
     3  C    0.233898
     4  C    0.316217
     5  N    0.141399
     9  C    0.180523
    10  O   -0.139445
    11  O   -0.467985
    13  O    0.691563
 Electronic spatial extent (au):  <R**2>=           1148.9450
 Charge=              0.0000 electrons
 Dipole moment (field-independent basis, Debye):
    X=             -1.7186    Y=              2.6125    Z=              0.9928  Tot=              3.2809
 Quadrupole moment (field-independent basis, Debye-Ang):
   XX=            -50.0449   YY=            -54.1514   ZZ=            -52.3107
   XY=             13.7733   XZ=              2.4327   YZ=              3.7761
 Traceless Quadrupole moment (field-independent basis, Debye-Ang):
   XX=              2.1241   YY=             -1.9824   ZZ=             -0.1417
   XY=             13.7733   XZ=              2.4327   YZ=              3.7761
 Octapole moment (field-independent basis, Debye-Ang**2):
  XXX=             -9.6598  YYY=             34.1032  ZZZ=              0.8216  XYY=             10.4219
  XXY=              6.0068  XXZ=              2.2428  XZZ=              8.4588  YZZ=              1.9753
  YYZ=             12.0298  XYZ=              7.1455
 Hexadecapole moment (field-independent basis, Debye-Ang**3):
 XXXX=           -730.7985 YYYY=           -570.0714 ZZZZ=            -52.9122 XXXY=             59.1600
 XXXZ=              9.0022 YYYX=             93.7334 YYYZ=             33.7350 ZZZX=              1.3016
 ZZZY=              2.4059 XXYY=           -225.8107 XXZZ=           -148.5457 YYZZ=           -104.5287
 XXYZ=             13.5497 YYXZ=             23.6481 ZZXY=              3.4568
 N-N= 4.622567914082D+02 E-N=-2.110554352597D+03  KE= 5.029290472404D+02
  Exact polarizability:       0.000       0.000       0.000       0.000       0.000       0.000
 Approx polarizability:      94.528       3.643     105.833       1.589       3.115      51.334
 Calling FoFJK, ICntrl=    100127 FMM=F ISym2X=0 I1Cent= 0 IOpClX= 0 NMat=1 NMatS=1 NMatT=0.
 ***** Axes restored to original set *****
 -------------------------------------------------------------------
 Center     Atomic                   Forces (Hartrees/Bohr)
 Number     Number              X              Y              Z
 -------------------------------------------------------------------
      1        7          -0.001404649    0.006421654   -0.000357214
      2        7          -0.000505917    0.001765473    0.000128874
      3        6          -0.003072623    0.003004936   -0.000137161
      4        6          -0.000816282    0.003475659   -0.000985888
      5        7           0.002908227    0.001314858    0.001254844
      6        1          -0.000658613   -0.000070207   -0.000062016
      7        1          -0.000088317    0.000349763   -0.000160471
      8        1          -0.021194485   -0.009666116   -0.007041081
      9        6          -0.019171928    0.001657131    0.003497005
     10        8           0.004760194   -0.003375394   -0.001990219
     11        8           0.016188662   -0.015488139    0.004304218
     12        1          -0.013513359   -0.010519244   -0.004186813
     13        8           0.033982845    0.019373020    0.006789213
     14        1           0.002586245    0.001756605   -0.001053291
 -------------------------------------------------------------------
 Cartesian Forces:  Max     0.033982845 RMS     0.009157959
 FormGI is forming the generalized inverse of G from B-inverse, IUseBI=4.

 GradGradGradGradGradGradGradGradGradGradGradGradGradGradGradGradGradGrad
 Berny optimization.
 Internal  Forces:  Max     0.026558421 RMS     0.005770763
 Search for a saddle point.
 Step number   1 out of a maximum of   77
 All quantities printed in internal units (Hartrees-Bohrs-Radians)
 Swapping is turned off.
 Second derivative matrix not updated -- analytic derivatives used.
 ITU=  0
     Eigenvalues ---   -0.03189   0.00089   0.00222   0.00328   0.00600
     Eigenvalues ---    0.01355   0.01720   0.02563   0.02944   0.04286
     Eigenvalues ---    0.04823   0.05409   0.06269   0.06415   0.06618
     Eigenvalues ---    0.07322   0.08882   0.09506   0.10040   0.10686
     Eigenvalues ---    0.16426   0.21103   0.23213   0.26085   0.31140
     Eigenvalues ---    0.33516   0.36796   0.38914   0.39226   0.42956
     Eigenvalues ---    0.47372   0.50354   0.55125   0.60986   0.65995
     Eigenvalues ---    0.94034
 Eigenvectors required to have negative eigenvalues:
                          R10       R11       R3        A14       R14
   1                    0.69941  -0.52062  -0.26943  -0.19753   0.18830
                          R5        A17       A18       A19       A22
   1                    0.14742   0.11994   0.09284   0.08523   0.08513
 RFO step:  Lambda0=1.302986962D-04 Lambda=-1.40331465D-02.
 Linear search not attempted -- option 19 set.
 Maximum step size (   0.300) exceeded in Quadratic search.
    -- Step size scaled by   0.862
 Iteration  1 RMS(Cart)=  0.04643895 RMS(Int)=  0.00284511
 Iteration  2 RMS(Cart)=  0.00358810 RMS(Int)=  0.00051094
 Iteration  3 RMS(Cart)=  0.00001267 RMS(Int)=  0.00051073
 Iteration  4 RMS(Cart)=  0.00000001 RMS(Int)=  0.00051073
 Variable       Old X    -DE/DX   Delta X   Delta X   Delta X     New X
                                 (Linear)    (Quad)   (Total)
    R1        2.51940   0.00048   0.00000   0.00439   0.00410   2.52350
    R2        2.44952  -0.00064   0.00000  -0.00123  -0.00120   2.44831
    R3        2.57147   0.01271   0.00000   0.03688   0.03649   2.60796
    R4        2.53343   0.00306   0.00000   0.00347   0.00345   2.53688
    R5        2.95217  -0.00559   0.00000  -0.03212  -0.03212   2.92005
    R6        2.61516  -0.00228   0.00000  -0.00378  -0.00379   2.61137
    R7        2.03781  -0.00002   0.00000  -0.00023  -0.00023   2.03758
    R8        2.55058   0.00403   0.00000   0.00397   0.00399   2.55457
    R9        2.03702   0.00010   0.00000   0.00002   0.00002   2.03704
   R10        2.54138  -0.01390   0.00000  -0.00453  -0.00415   2.53723
   R11        2.24173  -0.02656   0.00000  -0.18650  -0.18622   2.05551
   R12        2.27332  -0.00388   0.00000   0.00079   0.00079   2.27411
   R13        2.35848   0.00976   0.00000   0.01068   0.01099   2.36947
   R14        2.01770   0.02050   0.00000   0.06057   0.06031   2.07801
   R15        1.82286   0.00021   0.00000   0.00066   0.00066   1.82353
    A1        1.93141  -0.00438   0.00000  -0.00856  -0.00857   1.92284
    A2        2.00713   0.00210   0.00000   0.04479   0.04382   2.05095
    A3        2.32550   0.00254   0.00000  -0.02808  -0.02796   2.29754
    A4        1.89734   0.00414   0.00000   0.00594   0.00606   1.90339
    A5        2.18807  -0.00501   0.00000  -0.00551  -0.00595   2.18211
    A6        2.19777   0.00087   0.00000  -0.00035  -0.00012   2.19764
    A7        1.83189  -0.00226   0.00000  -0.00281  -0.00288   1.82901
    A8        2.10696   0.00180   0.00000   0.00193   0.00196   2.10892
    A9        2.34434   0.00046   0.00000   0.00088   0.00091   2.34525
   A10        1.89712  -0.00024   0.00000  -0.00041  -0.00044   1.89668
   A11        2.26789  -0.00024   0.00000  -0.00012  -0.00010   2.26779
   A12        2.11817   0.00048   0.00000   0.00053   0.00055   2.11872
   A13        1.86702   0.00275   0.00000   0.00584   0.00583   1.87285
   A14        2.66464   0.01363   0.00000   0.13838   0.13864   2.80329
   A15        1.94770   0.00326   0.00000   0.01292   0.01278   1.96048
   A16        1.97217   0.00346   0.00000   0.00626   0.00646   1.97863
   A17        2.36331  -0.00672   0.00000  -0.01914  -0.01928   2.34404
   A18        2.28235  -0.00043   0.00000  -0.04712  -0.04669   2.23566
   A19        1.58830   0.00044   0.00000   0.01622   0.01672   1.60501
   A20        2.01980  -0.00056   0.00000  -0.03367  -0.03171   1.98809
   A21        1.94935   0.00052   0.00000   0.02022   0.02012   1.96948
   A22        2.95938  -0.01405   0.00000  -0.14264  -0.14313   2.81625
   A23        3.12888  -0.00264   0.00000  -0.04138  -0.04075   3.08813
    D1       -0.00076   0.00005   0.00000  -0.00153  -0.00176  -0.00252
    D2        3.13511   0.00049   0.00000   0.01249   0.01235  -3.13573
    D3       -2.96161  -0.00141   0.00000  -0.03571  -0.03689  -2.99850
    D4        0.17427  -0.00097   0.00000  -0.02169  -0.02278   0.15148
    D5        0.00068   0.00007   0.00000   0.00230   0.00259   0.00327
    D6        2.91672   0.00158   0.00000   0.05607   0.05508   2.97180
    D7       -0.14539  -0.00141   0.00000   0.00641   0.00525  -0.14014
    D8       -2.17203   0.00193   0.00000   0.06399   0.06501  -2.10702
    D9       -3.04645  -0.00061   0.00000  -0.01863  -0.02009  -3.06654
   D10        1.21010   0.00273   0.00000   0.03895   0.03967   1.24976
   D11        0.00050  -0.00014   0.00000   0.00012   0.00019   0.00069
   D12       -3.14120   0.00012   0.00000   0.00359   0.00368  -3.13752
   D13       -3.13533  -0.00056   0.00000  -0.01398  -0.01405   3.13380
   D14        0.00615  -0.00030   0.00000  -0.01051  -0.01056  -0.00441
   D15       -3.12589  -0.00125   0.00000  -0.01308  -0.01353  -3.13942
   D16        0.01280   0.00030   0.00000  -0.00154  -0.00216   0.01064
   D17        0.00901  -0.00073   0.00000   0.00334   0.00295   0.01196
   D18       -3.13549   0.00081   0.00000   0.01487   0.01432  -3.12116
   D19       -0.00010   0.00018   0.00000   0.00127   0.00137   0.00127
   D20       -3.14106   0.00020   0.00000   0.00170   0.00166  -3.13940
   D21       -3.14155  -0.00013   0.00000  -0.00291  -0.00282   3.13881
   D22        0.00067  -0.00011   0.00000  -0.00247  -0.00254  -0.00186
   D23       -0.00035  -0.00016   0.00000  -0.00220  -0.00245  -0.00280
   D24        3.14067  -0.00018   0.00000  -0.00259  -0.00271   3.13796
   D25        0.37299   0.00058   0.00000  -0.01428  -0.01393   0.35906
   D26       -0.09869   0.00090   0.00000   0.00810   0.00825  -0.09044
   D27        1.90416   0.00159   0.00000   0.03168   0.03187   1.93604
   D28       -0.28449  -0.00049   0.00000   0.03688   0.03681  -0.24769
   D29        2.85326   0.00158   0.00000   0.05225   0.05160   2.90486
         Item               Value     Threshold  Converged?
 Maximum Force            0.026558     0.000450     NO 
 RMS     Force            0.005771     0.000300     NO 
 Maximum Displacement     0.233966     0.001800     NO 
 RMS     Displacement     0.045927     0.001200     NO 
 Predicted change in Energy=-7.547737D-03
 GradGradGradGradGradGradGradGradGradGradGradGradGradGradGradGradGradGrad

                          Input orientation:                          
 ---------------------------------------------------------------------
 Center     Atomic      Atomic             Coordinates (Angstroms)
 Number     Number       Type             X           Y           Z
 ---------------------------------------------------------------------
      1          7           0       -0.525133   -0.948830    0.016922
      2          7           0       -0.339294    0.373545    0.011951
      3          6           0       -1.534825    0.984150    0.003830
      4          6           0       -2.456792   -0.045196    0.005090
      5          7           0       -1.791600   -1.221985    0.015434
      6          1           0       -1.605824    2.060015   -0.004993
      7          1           0       -3.534126   -0.009188   -0.001462
      8          1           0        1.990397   -1.042600    0.242145
      9          6           0        1.037177    1.075671    0.004507
     10          8           0        0.938598    2.275034    0.003419
     11          8           0        2.003127    0.276325   -0.008790
     12          1           0        0.585066   -1.747913    0.200039
     13          8           0        1.626427   -2.060233    0.365033
     14          1           0        1.944801   -2.673476   -0.308569
 ---------------------------------------------------------------------
                    Distance matrix (angstroms):
                    1          2          3          4          5
     1  N    0.000000
     2  N    1.335379   0.000000
     3  C    2.180840   1.342460   0.000000
     4  C    2.132605   2.158516   1.381875   0.000000
     5  N    1.295590   2.157526   2.221058   1.351821   0.000000
     6  H    3.197112   2.109163   1.078242   2.270719   3.287317
     7  H    3.152349   3.217704   2.232477   1.077955   2.123102
     8  H    2.527332   2.736039   4.073290   4.563825   3.793029
     9  C    2.557259   1.545221   2.573630   3.669355   3.644355
    10  O    3.540620   2.291012   2.790017   4.112437   4.436582
    11  O    2.809584   2.344529   3.608085   4.471515   4.079886
    12  H    1.380075   2.321724   3.463611   3.491440   2.441151
    13  O    2.446550   3.148333   4.403663   4.567561   3.536635
    14  H    3.030003   3.821538   5.058024   5.136171   4.021504
                    6          7          8          9         10
     6  H    0.000000
     7  H    2.828421   0.000000
     8  H    4.756059   5.625623   0.000000
     9  C    2.820368   4.698273   2.334989   0.000000
    10  O    2.553504   5.022245   3.488547   1.203407   0.000000
    11  O    4.025679   5.544613   1.342644   1.253870   2.264554
    12  H    4.397995   4.475657   1.572957   2.866229   4.043235
    13  O    5.249840   5.565287   1.087729   3.211089   4.404363
    14  H    5.924950   6.100113   1.721953   3.870129   5.059400
                   11         12         13         14
    11  O    0.000000
    12  H    2.480332   0.000000
    13  O    2.396070   1.099636   0.000000
    14  H    2.965568   1.721693   0.964970   0.000000
 Stoichiometry    C3H5N3O3
 Framework group  C1[X(C3H5N3O3)]
 Deg. of freedom    36
 Full point group                 C1      NOp   1
 Largest Abelian subgroup         C1      NOp   1
 Largest concise Abelian subgroup C1      NOp   1
                         Standard orientation:                         
 ---------------------------------------------------------------------
 Center     Atomic      Atomic             Coordinates (Angstroms)
 Number     Number       Type             X           Y           Z
 ---------------------------------------------------------------------
      1          7           0       -0.502460    0.956528    0.065683
      2          7           0       -0.341231   -0.367960    0.011145
      3          6           0       -1.547605   -0.954564   -0.041363
      4          6           0       -2.450074    0.091622   -0.016409
      5          7           0       -1.763260    1.254205    0.047696
      6          1           0       -1.638638   -2.027999   -0.086710
      7          1           0       -3.527677    0.076583   -0.039482
      8          1           0        2.019501    1.011426   -0.089576
      9          6           0        1.021367   -1.096626    0.020034
     10          8           0        0.900699   -2.292474   -0.039756
     11          8           0        2.001187   -0.318042    0.097167
     12          1           0        0.626789    1.741460   -0.049581
     13          8           0        1.677778    2.040771   -0.172202
     14          1           0        1.989245    2.614489    0.538435
 ---------------------------------------------------------------------
 Rotational constants (GHZ):           2.2067229           1.6278114           0.9405188
 Standard basis: 6-31+G(d,p) (6D, 7F)
 There are   196 symmetry adapted cartesian basis functions of A   symmetry.
 There are   196 symmetry adapted basis functions of A   symmetry.
   196 basis functions,   323 primitive gaussians,   196 cartesian basis functions
    34 alpha electrons       34 beta electrons
       nuclear repulsion energy       462.9595811325 Hartrees.
 NAtoms=   14 NActive=   14 NUniq=   14 SFac= 1.00D+00 NAtFMM=   60 NAOKFM=F Big=F
 Integral buffers will be    131072 words long.
 Raffenetti 2 integral format.
 Two-electron integral symmetry is turned on.
 One-electron integrals computed using PRISM.
 NBasis=   196 RedAO= T EigKep=  1.93D-05  NBF=   196
 NBsUse=   196 1.00D-06 EigRej= -1.00D+00 NBFU=   196
 Initial guess from the checkpoint file:  "/home/gau/soft/scratch/Gau-193937.chk"
 B after Tr=    -0.000000    0.000000   -0.000000
         Rot=    0.999819    0.000194    0.000034    0.019031 Ang=   2.18 deg.
 ExpMin= 4.38D-02 ExpMax= 5.48D+03 ExpMxC= 8.25D+02 IAcc=3 IRadAn=         5 AccDes= 0.00D+00
 Harris functional with IExCor= 1009 and IRadAn=       5 diagonalized for initial guess.
 HarFok:  IExCor= 1009 AccDes= 0.00D+00 IRadAn=         5 IDoV= 1 UseB2=F ITyADJ=14
 ICtDFT=  3500011 ScaDFX=  1.000000  1.000000  1.000000  1.000000
 FoFCou: FMM=F IPFlag=           0 FMFlag=      100000 FMFlg1=           0
         NFxFlg=           0 DoJE=T BraDBF=F KetDBF=T FulRan=T
         wScrn=  0.000000 ICntrl=       500 IOpCl=  0 I1Cent=   200000004 NGrid=           0
         NMat0=    1 NMatS0=      1 NMatT0=    0 NMatD0=    1 NMtDS0=    0 NMtDT0=    0
 Petite list used in FoFCou.
 Requested convergence on RMS density matrix=1.00D-08 within 128 cycles.
 Requested convergence on MAX density matrix=1.00D-06.
 Requested convergence on             energy=1.00D-06.
 No special actions if energy rises.
 SCF Done:  E(RM062X) =  -507.052627469     A.U. after   12 cycles
            NFock= 12  Conv=0.10D-07     -V/T= 2.0081
 Calling FoFJK, ICntrl=      2127 FMM=F ISym2X=0 I1Cent= 0 IOpClX= 0 NMat=1 NMatS=1 NMatT=0.
 ***** Axes restored to original set *****
 -------------------------------------------------------------------
 Center     Atomic                   Forces (Hartrees/Bohr)
 Number     Number              X              Y              Z
 -------------------------------------------------------------------
      1        7          -0.000919797    0.002973641    0.000859672
      2        7           0.000144874    0.000556134    0.000243002
      3        6          -0.000546347    0.000591688   -0.000321580
      4        6          -0.000162823    0.000545987   -0.000525834
      5        7           0.000445775    0.000168543    0.000566972
      6        1          -0.000111261   -0.000007367   -0.000000173
      7        1          -0.000025252    0.000056758   -0.000028646
      8        1          -0.001341516    0.005599041   -0.005160070
      9        6          -0.003435033   -0.000256691    0.000627094
     10        8           0.000790299   -0.000320202   -0.000820380
     11        8           0.003380834   -0.000788950    0.002287897
     12        1          -0.003727168   -0.004222654   -0.001829960
     13        8           0.004215742   -0.005940941    0.004473723
     14        1           0.001291673    0.001045014   -0.000371719
 -------------------------------------------------------------------
 Cartesian Forces:  Max     0.005940941 RMS     0.002259942

 GradGradGradGradGradGradGradGradGradGradGradGradGradGradGradGradGradGrad
 Berny optimization.
 FormGI is forming the generalized inverse of G from B-inverse, IUseBI=4.
 Internal  Forces:  Max     0.005657106 RMS     0.001344811
 Search for a saddle point.
 Step number   2 out of a maximum of   77
 All quantities printed in internal units (Hartrees-Bohrs-Radians)
 Swapping is turned off.
 Update second derivatives using D2CorX and points    1    2
 ITU=  0  0
     Eigenvalues ---   -0.02731   0.00056   0.00150   0.00328   0.00601
     Eigenvalues ---    0.01355   0.01715   0.02498   0.02738   0.04287
     Eigenvalues ---    0.04770   0.05380   0.06261   0.06493   0.06608
     Eigenvalues ---    0.07336   0.08921   0.09502   0.10031   0.10685
     Eigenvalues ---    0.18475   0.21491   0.23572   0.26112   0.31218
     Eigenvalues ---    0.33411   0.36811   0.38914   0.39228   0.42954
     Eigenvalues ---    0.47365   0.50355   0.55125   0.60988   0.65997
     Eigenvalues ---    0.94034
 Eigenvectors required to have negative eigenvalues:
                          R10       R11       R3        A14       R14
   1                   -0.70398   0.46225   0.27966   0.25999  -0.18744
                          R5        A22       A17       A18       A20
   1                   -0.16064  -0.13075  -0.12118  -0.11879   0.06772
 RFO step:  Lambda0=1.031057397D-03 Lambda=-1.68216822D-03.
 Linear search not attempted -- option 19 set.
 Iteration  1 RMS(Cart)=  0.07185922 RMS(Int)=  0.01043861
 Iteration  2 RMS(Cart)=  0.00745177 RMS(Int)=  0.00235278
 Iteration  3 RMS(Cart)=  0.00006536 RMS(Int)=  0.00235215
 Iteration  4 RMS(Cart)=  0.00000005 RMS(Int)=  0.00235215
 Variable       Old X    -DE/DX   Delta X   Delta X   Delta X     New X
                                 (Linear)    (Quad)   (Total)
    R1        2.52350   0.00102   0.00000  -0.00324  -0.00153   2.52197
    R2        2.44831  -0.00002   0.00000   0.00310   0.00394   2.45225
    R3        2.60796   0.00409   0.00000  -0.07774  -0.07629   2.53167
    R4        2.53688   0.00066   0.00000  -0.00296  -0.00331   2.53357
    R5        2.92005  -0.00073   0.00000   0.03684   0.03651   2.95656
    R6        2.61137  -0.00042   0.00000   0.00260   0.00166   2.61303
    R7        2.03758  -0.00000   0.00000   0.00016   0.00016   2.03774
    R8        2.55457   0.00057   0.00000  -0.00333  -0.00352   2.55106
    R9        2.03704   0.00003   0.00000   0.00010   0.00010   2.03714
   R10        2.53723  -0.00154   0.00000   0.18507   0.18396   2.72119
   R11        2.05551   0.00453   0.00000  -0.09004  -0.09078   1.96472
   R12        2.27411  -0.00038   0.00000   0.00151   0.00151   2.27562
   R13        2.36947   0.00130   0.00000  -0.01501  -0.01647   2.35300
   R14        2.07801   0.00566   0.00000   0.08495   0.08620   2.16421
   R15        1.82353   0.00002   0.00000   0.00176   0.00176   1.82529
    A1        1.92284  -0.00096   0.00000   0.00428   0.00093   1.92376
    A2        2.05095   0.00163   0.00000   0.06159   0.05490   2.10585
    A3        2.29754  -0.00054   0.00000  -0.03799  -0.04433   2.25321
    A4        1.90339   0.00046   0.00000  -0.00322  -0.00126   1.90213
    A5        2.18211   0.00022   0.00000   0.00273   0.00032   2.18243
    A6        2.19764  -0.00068   0.00000   0.00037   0.00070   2.19834
    A7        1.82901  -0.00019   0.00000   0.00240   0.00197   1.83098
    A8        2.10892   0.00021   0.00000  -0.00183  -0.00161   2.10731
    A9        2.34525  -0.00002   0.00000  -0.00057  -0.00036   2.34489
   A10        1.89668  -0.00000   0.00000  -0.00030  -0.00052   1.89616
   A11        2.26779  -0.00005   0.00000   0.00062   0.00073   2.26852
   A12        2.11872   0.00006   0.00000  -0.00032  -0.00021   2.11850
   A13        1.87285   0.00070   0.00000  -0.00316  -0.00112   1.87173
   A14        2.80329   0.00321   0.00000   0.00861   0.00379   2.80707
   A15        1.96048   0.00037   0.00000  -0.01460  -0.01225   1.94823
   A16        1.97863   0.00100   0.00000  -0.00852  -0.01328   1.96536
   A17        2.34404  -0.00138   0.00000   0.02320   0.02556   2.36960
   A18        2.23566  -0.00093   0.00000   0.02501   0.01727   2.25293
   A19        1.60501  -0.00094   0.00000   0.01130   0.00946   1.61447
   A20        1.98809   0.00006   0.00000  -0.07447  -0.07332   1.91477
   A21        1.96948   0.00058   0.00000   0.02668   0.02716   1.99663
   A22        2.81625  -0.00406   0.00000  -0.03751  -0.03806   2.77819
   A23        3.08813  -0.00110   0.00000   0.00961   0.01112   3.09925
    D1       -0.00252   0.00005   0.00000   0.00139   0.00186  -0.00067
    D2       -3.13573   0.00032   0.00000   0.01618   0.01766  -3.11807
    D3       -2.99850  -0.00064   0.00000  -0.16433  -0.17003   3.11465
    D4        0.15148  -0.00036   0.00000  -0.14954  -0.15423  -0.00275
    D5        0.00327  -0.00003   0.00000  -0.00221  -0.00200   0.00127
    D6        2.97180   0.00101   0.00000   0.20685   0.20019  -3.11120
    D7       -0.14014  -0.00012   0.00000   0.14133   0.14099   0.00086
    D8       -2.10702   0.00133   0.00000   0.22725   0.22714  -1.87988
    D9       -3.06654  -0.00028   0.00000  -0.08253  -0.08171   3.13493
   D10        1.24976   0.00117   0.00000   0.00340   0.00443   1.25420
   D11        0.00069  -0.00004   0.00000   0.00001  -0.00090  -0.00021
   D12       -3.13752   0.00005   0.00000  -0.00145  -0.00141  -3.13893
   D13        3.13380  -0.00031   0.00000  -0.01493  -0.01688   3.11692
   D14       -0.00441  -0.00022   0.00000  -0.01639  -0.01740  -0.02181
   D15       -3.13942  -0.00042   0.00000  -0.00625  -0.00783   3.13594
   D16        0.01064   0.00005   0.00000  -0.01323  -0.01432  -0.00368
   D17        0.01196  -0.00011   0.00000   0.01103   0.01064   0.02260
   D18       -3.12116   0.00037   0.00000   0.00404   0.00415  -3.11701
   D19        0.00127   0.00002   0.00000  -0.00134  -0.00030   0.00097
   D20       -3.13940   0.00006   0.00000  -0.00218  -0.00173  -3.14113
   D21        3.13881  -0.00009   0.00000   0.00042   0.00031   3.13912
   D22       -0.00186  -0.00005   0.00000  -0.00043  -0.00112  -0.00298
   D23       -0.00280   0.00000   0.00000   0.00221   0.00142  -0.00139
   D24        3.13796  -0.00003   0.00000   0.00297   0.00270   3.14066
   D25        0.35906  -0.00015   0.00000  -0.23892  -0.24044   0.11862
   D26       -0.09044   0.00043   0.00000   0.02632   0.02609  -0.06435
   D27        1.93604   0.00062   0.00000   0.04305   0.04263   1.97867
   D28       -0.24769   0.00031   0.00000   0.21588   0.21402  -0.03367
   D29        2.90486   0.00091   0.00000   0.20717   0.20570   3.11056
         Item               Value     Threshold  Converged?
 Maximum Force            0.005657     0.000450     NO 
 RMS     Force            0.001345     0.000300     NO 
 Maximum Displacement     0.273900     0.001800     NO 
 RMS     Displacement     0.075263     0.001200     NO 
 Predicted change in Energy=-6.082373D-04
 GradGradGradGradGradGradGradGradGradGradGradGradGradGradGradGradGradGrad

                          Input orientation:                          
 ---------------------------------------------------------------------
 Center     Atomic      Atomic             Coordinates (Angstroms)
 Number     Number       Type             X           Y           Z
 ---------------------------------------------------------------------
      1          7           0       -0.514412   -0.934945    0.145639
      2          7           0       -0.335895    0.384874    0.060279
      3          6           0       -1.532841    0.981845   -0.031603
      4          6           0       -2.449822   -0.052554    0.002622
      5          7           0       -1.780119   -1.219412    0.113684
      6          1           0       -1.609057    2.054412   -0.112672
      7          1           0       -3.526455   -0.025532   -0.044646
      8          1           0        1.982177   -1.127108    0.249184
      9          6           0        1.053471    1.103828    0.036568
     10          8           0        0.933371    2.298751   -0.052029
     11          8           0        2.006561    0.306040    0.111115
     12          1           0        0.536196   -1.763198    0.216537
     13          8           0        1.626553   -2.102579    0.303390
     14          1           0        1.948272   -2.609102   -0.453511
 ---------------------------------------------------------------------
                    Distance matrix (angstroms):
                    1          2          3          4          5
     1  N    0.000000
     2  N    1.334571   0.000000
     3  C    2.177773   1.340707   0.000000
     4  C    2.131872   2.159481   1.382754   0.000000
     5  N    1.297673   2.159252   2.219861   1.349961   0.000000
     6  H    3.193936   2.106706   1.078324   2.271451   3.286095
     7  H    3.152085   3.218558   2.233714   1.078009   2.121345
     8  H    2.506113   2.774028   4.108755   4.567064   3.765866
     9  C    2.574248   1.564543   2.590084   3.689368   3.665054
    10  O    3.548513   2.299255   2.795865   4.120391   4.446118
    11  O    2.810079   2.344333   3.606167   4.472104   4.082395
    12  H    1.339703   2.323612   3.446410   3.447951   2.381511
    13  O    2.443765   3.177692   4.428054   4.572734   3.524399
    14  H    3.037531   3.800696   5.019068   5.107565   4.019185
                    6          7          8          9         10
     6  H    0.000000
     7  H    2.829702   0.000000
     8  H    4.811441   5.625373   0.000000
     9  C    2.831066   4.717814   2.425856   0.000000
    10  O    2.554862   5.029155   3.595446   1.204207   0.000000
    11  O    4.022384   5.545130   1.439990   1.245152   2.269196
    12  H    4.391427   4.426379   1.580043   2.918869   4.090147
    13  O    5.284208   5.566754   1.039688   3.268129   4.469735
    14  H    5.875298   6.067507   1.640499   3.850545   5.027747
                   11         12         13         14
    11  O    0.000000
    12  H    2.540636   0.000000
    13  O    2.445980   1.145252   0.000000
    14  H    2.969891   1.777211   0.965902   0.000000
 Stoichiometry    C3H5N3O3
 Framework group  C1[X(C3H5N3O3)]
 Deg. of freedom    36
 Full point group                 C1      NOp   1
 Largest Abelian subgroup         C1      NOp   1
 Largest concise Abelian subgroup C1      NOp   1
                         Standard orientation:                         
 ---------------------------------------------------------------------
 Center     Atomic      Atomic             Coordinates (Angstroms)
 Number     Number       Type             X           Y           Z
 ---------------------------------------------------------------------
      1          7           0       -0.497783    0.950413   -0.028533
      2          7           0       -0.339460   -0.374674   -0.016006
      3          6           0       -1.546328   -0.957856    0.013385
      4          6           0       -2.447968    0.090490    0.018272
      5          7           0       -1.759874    1.251595   -0.009258
      6          1           0       -1.639151   -2.032046    0.030142
      7          1           0       -3.525692    0.077005    0.039066
      8          1           0        2.002966    1.110603   -0.063165
      9          6           0        1.038959   -1.114648   -0.002151
     10          8           0        0.900412   -2.310750    0.013990
     11          8           0        2.004402   -0.328336   -0.008178
     12          1           0        0.565471    1.765455   -0.026899
     13          8           0        1.662141    2.092824   -0.068711
     14          1           0        1.972605    2.549817    0.723587
 ---------------------------------------------------------------------
 Rotational constants (GHZ):           2.1625519           1.6340918           0.9328914
 Standard basis: 6-31+G(d,p) (6D, 7F)
 There are   196 symmetry adapted cartesian basis functions of A   symmetry.
 There are   196 symmetry adapted basis functions of A   symmetry.
   196 basis functions,   323 primitive gaussians,   196 cartesian basis functions
    34 alpha electrons       34 beta electrons
       nuclear repulsion energy       461.7933260480 Hartrees.
 NAtoms=   14 NActive=   14 NUniq=   14 SFac= 1.00D+00 NAtFMM=   60 NAOKFM=F Big=F
 Integral buffers will be    131072 words long.
 Raffenetti 2 integral format.
 Two-electron integral symmetry is turned on.
 One-electron integrals computed using PRISM.
 NBasis=   196 RedAO= T EigKep=  1.91D-05  NBF=   196
 NBsUse=   196 1.00D-06 EigRej= -1.00D+00 NBFU=   196
 Initial guess from the checkpoint file:  "/home/gau/soft/scratch/Gau-193937.chk"
 B after Tr=    -0.000000    0.000000   -0.000000
         Rot=    0.999998   -0.000830   -0.000068   -0.001713 Ang=  -0.22 deg.
 ExpMin= 4.38D-02 ExpMax= 5.48D+03 ExpMxC= 8.25D+02 IAcc=3 IRadAn=         5 AccDes= 0.00D+00
 Harris functional with IExCor= 1009 and IRadAn=       5 diagonalized for initial guess.
 HarFok:  IExCor= 1009 AccDes= 0.00D+00 IRadAn=         5 IDoV= 1 UseB2=F ITyADJ=14
 ICtDFT=  3500011 ScaDFX=  1.000000  1.000000  1.000000  1.000000
 FoFCou: FMM=F IPFlag=           0 FMFlag=      100000 FMFlg1=           0
         NFxFlg=           0 DoJE=T BraDBF=F KetDBF=T FulRan=T
         wScrn=  0.000000 ICntrl=       500 IOpCl=  0 I1Cent=   200000004 NGrid=           0
         NMat0=    1 NMatS0=      1 NMatT0=    0 NMatD0=    1 NMtDS0=    0 NMtDT0=    0
 Petite list used in FoFCou.
 Requested convergence on RMS density matrix=1.00D-08 within 128 cycles.
 Requested convergence on MAX density matrix=1.00D-06.
 Requested convergence on             energy=1.00D-06.
 No special actions if energy rises.
 SCF Done:  E(RM062X) =  -507.052320057     A.U. after   14 cycles
            NFock= 14  Conv=0.41D-08     -V/T= 2.0081
 Calling FoFJK, ICntrl=      2127 FMM=F ISym2X=0 I1Cent= 0 IOpClX= 0 NMat=1 NMatS=1 NMatT=0.
 ***** Axes restored to original set *****
 -------------------------------------------------------------------
 Center     Atomic                   Forces (Hartrees/Bohr)
 Number     Number              X              Y              Z
 -------------------------------------------------------------------
      1        7          -0.001704031    0.000520536   -0.000243353
      2        7           0.001553469    0.000036737   -0.000653949
      3        6           0.000625235   -0.000055922    0.000007848
      4        6          -0.000270970   -0.000626464    0.000424826
      5        7          -0.000099976   -0.000950118   -0.000276115
      6        1           0.000064939    0.000022321    0.000090862
      7        1           0.000005244   -0.000029113    0.000091615
      8        1           0.002060203    0.011167972   -0.000479046
      9        6          -0.002408734    0.000657444    0.000644368
     10        8           0.000177668   -0.000681187   -0.000249717
     11        8           0.002320691   -0.003419002    0.000621370
     12        1          -0.003716126    0.003830981   -0.000262551
     13        8           0.001987148   -0.009313137   -0.000194009
     14        1          -0.000594759   -0.001161048    0.000477850
 -------------------------------------------------------------------
 Cartesian Forces:  Max     0.011167972 RMS     0.002596701

 GradGradGradGradGradGradGradGradGradGradGradGradGradGradGradGradGradGrad
 Berny optimization.
 FormGI is forming the generalized inverse of G from B-inverse, IUseBI=4.
 Internal  Forces:  Max     0.008240423 RMS     0.001324682
 Search for a saddle point.
 Step number   3 out of a maximum of   77
 All quantities printed in internal units (Hartrees-Bohrs-Radians)
 Swapping is turned off.
 Update second derivatives using D2CorX and points    2    3
 ITU=  0  0  0
     Eigenvalues ---   -0.02400  -0.00010   0.00218   0.00330   0.00608
     Eigenvalues ---    0.01355   0.01737   0.02486   0.02732   0.04273
     Eigenvalues ---    0.04736   0.05551   0.06175   0.06365   0.06706
     Eigenvalues ---    0.07330   0.08874   0.09470   0.10009   0.10685
     Eigenvalues ---    0.18486   0.21449   0.23578   0.25878   0.31181
     Eigenvalues ---    0.33407   0.36778   0.38914   0.39219   0.42864
     Eigenvalues ---    0.47262   0.50262   0.55125   0.60952   0.65917
     Eigenvalues ---    0.94009
 Eigenvectors required to have negative eigenvalues:
                          R10       R11       R3        A14       R14
   1                   -0.66445   0.43517   0.27424   0.26583  -0.18034
                          R5        A22       D29       D28       D25
   1                   -0.15329  -0.14802   0.13792   0.13210  -0.12861
 RFO step:  Lambda0=8.745572419D-04 Lambda=-9.99288963D-04.
 Linear search not attempted -- option 19 set.
 Iteration  1 RMS(Cart)=  0.04247430 RMS(Int)=  0.00165241
 Iteration  2 RMS(Cart)=  0.00198250 RMS(Int)=  0.00073240
 Iteration  3 RMS(Cart)=  0.00000202 RMS(Int)=  0.00073240
 Iteration  4 RMS(Cart)=  0.00000000 RMS(Int)=  0.00073240
 Variable       Old X    -DE/DX   Delta X   Delta X   Delta X     New X
                                 (Linear)    (Quad)   (Total)
    R1        2.52197  -0.00060   0.00000  -0.00642  -0.00611   2.51586
    R2        2.45225  -0.00010   0.00000   0.00013   0.00035   2.45260
    R3        2.53167  -0.00091   0.00000  -0.08486  -0.08437   2.44730
    R4        2.53357  -0.00026   0.00000  -0.00265  -0.00274   2.53083
    R5        2.95656  -0.00016   0.00000   0.02267   0.02225   2.97881
    R6        2.61303   0.00088   0.00000   0.00573   0.00546   2.61848
    R7        2.03774   0.00001   0.00000   0.00021   0.00021   2.03794
    R8        2.55106  -0.00035   0.00000  -0.00168  -0.00176   2.54930
    R9        2.03714  -0.00001   0.00000   0.00001   0.00001   2.03716
   R10        2.72119  -0.00321   0.00000   0.06485   0.06480   2.78599
   R11        1.96472   0.00824   0.00000  -0.02827  -0.02814   1.93658
   R12        2.27562  -0.00067   0.00000  -0.00114  -0.00114   2.27448
   R13        2.35300   0.00184   0.00000  -0.00352  -0.00406   2.34894
   R14        2.16421   0.00413   0.00000   0.04755   0.04799   2.21221
   R15        1.82529   0.00004   0.00000  -0.00073  -0.00073   1.82456
    A1        1.92376   0.00140   0.00000   0.01127   0.01044   1.93420
    A2        2.10585  -0.00085   0.00000  -0.00820  -0.00942   2.09643
    A3        2.25321  -0.00054   0.00000  -0.00091  -0.00211   2.25110
    A4        1.90213  -0.00088   0.00000  -0.00583  -0.00534   1.89680
    A5        2.18243   0.00088   0.00000  -0.00405  -0.00481   2.17762
    A6        2.19834   0.00001   0.00000   0.01042   0.01043   2.20877
    A7        1.83098   0.00029   0.00000   0.00150   0.00139   1.83237
    A8        2.10731  -0.00022   0.00000  -0.00029  -0.00023   2.10708
    A9        2.34489  -0.00008   0.00000  -0.00121  -0.00116   2.34373
   A10        1.89616  -0.00001   0.00000   0.00109   0.00101   1.89717
   A11        2.26852   0.00004   0.00000  -0.00068  -0.00063   2.26789
   A12        2.11850  -0.00004   0.00000  -0.00042  -0.00037   2.11813
   A13        1.87173  -0.00081   0.00000  -0.00803  -0.00750   1.86424
   A14        2.80707  -0.00052   0.00000  -0.05151  -0.05165   2.75542
   A15        1.94823  -0.00046   0.00000  -0.01026  -0.00962   1.93861
   A16        1.96536   0.00116   0.00000  -0.00396  -0.00525   1.96010
   A17        2.36960  -0.00070   0.00000   0.01421   0.01486   2.38446
   A18        2.25293  -0.00102   0.00000   0.01505   0.01365   2.26658
   A19        1.61447  -0.00137   0.00000   0.00229   0.00225   1.61672
   A20        1.91477   0.00090   0.00000   0.02663   0.02438   1.93915
   A21        1.99663   0.00022   0.00000   0.01628   0.01660   2.01324
   A22        2.77819   0.00173   0.00000   0.04915   0.04918   2.82737
   A23        3.09925   0.00001   0.00000  -0.02264  -0.02254   3.07671
    D1       -0.00067   0.00000   0.00000   0.00045  -0.00045  -0.00112
    D2       -3.11807  -0.00025   0.00000  -0.02285  -0.02398   3.14114
    D3        3.11465   0.00014   0.00000   0.07927   0.07878  -3.08975
    D4       -0.00275  -0.00011   0.00000   0.05597   0.05525   0.05250
    D5        0.00127  -0.00008   0.00000  -0.00020   0.00063   0.00190
    D6       -3.11120  -0.00024   0.00000  -0.08746  -0.08742   3.08456
    D7        0.00086   0.00004   0.00000  -0.07108  -0.07281  -0.07196
    D8       -1.87988  -0.00086   0.00000  -0.12069  -0.12147  -2.00135
    D9        3.13493   0.00030   0.00000   0.04289   0.04072  -3.10753
   D10        1.25420  -0.00060   0.00000  -0.00672  -0.00794   1.24625
   D11       -0.00021   0.00008   0.00000  -0.00049   0.00008  -0.00013
   D12       -3.13893  -0.00010   0.00000  -0.00226  -0.00213  -3.14106
   D13        3.11692   0.00035   0.00000   0.02282   0.02386   3.14078
   D14       -0.02181   0.00017   0.00000   0.02105   0.02166  -0.00015
   D15        3.13594  -0.00008   0.00000   0.00864   0.00860  -3.13865
   D16       -0.00368   0.00005   0.00000   0.01338   0.01250   0.00882
   D17        0.02260  -0.00037   0.00000  -0.01831  -0.01888   0.00373
   D18       -3.11701  -0.00024   0.00000  -0.01357  -0.01498  -3.13199
   D19        0.00097  -0.00013   0.00000   0.00037   0.00031   0.00128
   D20       -3.14113  -0.00012   0.00000   0.00093   0.00058  -3.14055
   D21        3.13912   0.00009   0.00000   0.00250   0.00295  -3.14111
   D22       -0.00298   0.00010   0.00000   0.00306   0.00322   0.00024
   D23       -0.00139   0.00013   0.00000  -0.00010  -0.00057  -0.00195
   D24        3.14066   0.00013   0.00000  -0.00060  -0.00081   3.13985
   D25        0.11862  -0.00013   0.00000   0.04329   0.04335   0.16197
   D26       -0.06435   0.00004   0.00000   0.05990   0.05907  -0.00528
   D27        1.97867  -0.00009   0.00000   0.08474   0.08427   2.06293
   D28       -0.03367  -0.00002   0.00000  -0.09147  -0.09091  -0.12458
   D29        3.11056   0.00015   0.00000  -0.08511  -0.08556   3.02499
         Item               Value     Threshold  Converged?
 Maximum Force            0.008240     0.000450     NO 
 RMS     Force            0.001325     0.000300     NO 
 Maximum Displacement     0.163647     0.001800     NO 
 RMS     Displacement     0.042806     0.001200     NO 
 Predicted change in Energy=-7.449267D-05
 GradGradGradGradGradGradGradGradGradGradGradGradGradGradGradGradGradGrad

                          Input orientation:                          
 ---------------------------------------------------------------------
 Center     Atomic      Atomic             Coordinates (Angstroms)
 Number     Number       Type             X           Y           Z
 ---------------------------------------------------------------------
      1          7           0       -0.507872   -0.925763    0.076600
      2          7           0       -0.335502    0.393459    0.027607
      3          6           0       -1.537815    0.981745   -0.016880
      4          6           0       -2.448663   -0.062160    0.008008
      5          7           0       -1.770324   -1.226720    0.067490
      6          1           0       -1.624433    2.055776   -0.061278
      7          1           0       -3.526271   -0.041036   -0.012815
      8          1           0        2.002905   -1.149050    0.247270
      9          6           0        1.064682    1.117501    0.022962
     10          8           0        0.933529    2.313052   -0.023027
     11          8           0        2.011766    0.313338    0.060599
     12          1           0        0.516106   -1.711347    0.183813
     13          8           0        1.612937   -2.093031    0.331119
     14          1           0        1.946955   -2.670443   -0.366913
 ---------------------------------------------------------------------
                    Distance matrix (angstroms):
                    1          2          3          4          5
     1  N    0.000000
     2  N    1.331337   0.000000
     3  C    2.169818   1.339259   0.000000
     4  C    2.125367   2.161810   1.385642   0.000000
     5  N    1.297861   2.164552   2.222273   1.349030   0.000000
     6  H    3.186738   2.105361   1.078433   2.273722   3.288259
     7  H    3.146660   3.220470   2.236081   1.078016   2.120294
     8  H    2.526457   2.809934   4.140864   4.588576   3.778308
     9  C    2.578901   1.576317   2.606340   3.706133   3.678942
    10  O    3.546475   2.301704   2.807126   4.133016   4.455221
    11  O    2.807882   2.348867   3.612796   4.476516   4.083630
    12  H    1.295055   2.275928   3.392877   3.397143   2.340119
    13  O    2.434158   3.173510   4.416174   4.552519   3.502349
    14  H    3.044140   3.840931   5.060101   5.124955   4.011384
                    6          7          8          9         10
     6  H    0.000000
     7  H    2.831247   0.000000
     8  H    4.850123   5.645098   0.000000
     9  C    2.849350   4.735012   2.463296   0.000000
    10  O    2.571152   5.042980   3.633562   1.203602   0.000000
    11  O    4.033967   5.549849   1.474281   1.243005   2.273421
    12  H    4.339724   4.378289   1.590841   2.886034   4.051273
    13  O    5.277039   5.544406   1.024796   3.271553   4.472201
    14  H    5.931726   6.082382   1.641642   3.908827   5.097108
                   11         12         13         14
    11  O    0.000000
    12  H    2.520225   0.000000
    13  O    2.454151   1.170649   0.000000
    14  H    3.014949   1.808450   0.965516   0.000000
 Stoichiometry    C3H5N3O3
 Framework group  C1[X(C3H5N3O3)]
 Deg. of freedom    36
 Full point group                 C1      NOp   1
 Largest Abelian subgroup         C1      NOp   1
 Largest concise Abelian subgroup C1      NOp   1
                         Standard orientation:                         
 ---------------------------------------------------------------------
 Center     Atomic      Atomic             Coordinates (Angstroms)
 Number     Number       Type             X           Y           Z
 ---------------------------------------------------------------------
      1          7           0       -0.509756    0.933934    0.022007
      2          7           0       -0.334326   -0.385696    0.005924
      3          6           0       -1.535434   -0.977878   -0.010719
      4          6           0       -2.448805    0.064094   -0.003553
      5          7           0       -1.773026    1.231505    0.015261
      6          1           0       -1.619601   -2.052926   -0.024999
      7          1           0       -3.526522    0.039779   -0.010893
      8          1           0        2.003748    1.170840   -0.073691
      9          6           0        1.067679   -1.106218    0.007625
     10          8           0        0.939351   -2.302789   -0.012570
     11          8           0        2.012759   -0.299323    0.036048
     12          1           0        0.513989    1.726088   -0.018076
     13          8           0        1.612891    2.117154   -0.117577
     14          1           0        1.927500    2.657702    0.617984
 ---------------------------------------------------------------------
 Rotational constants (GHZ):           2.1578358           1.6338067           0.9319710
 Standard basis: 6-31+G(d,p) (6D, 7F)
 There are   196 symmetry adapted cartesian basis functions of A   symmetry.
 There are   196 symmetry adapted basis functions of A   symmetry.
   196 basis functions,   323 primitive gaussians,   196 cartesian basis functions
    34 alpha electrons       34 beta electrons
       nuclear repulsion energy       461.6089375746 Hartrees.
 NAtoms=   14 NActive=   14 NUniq=   14 SFac= 1.00D+00 NAtFMM=   60 NAOKFM=F Big=F
 Integral buffers will be    131072 words long.
 Raffenetti 2 integral format.
 Two-electron integral symmetry is turned on.
 One-electron integrals computed using PRISM.
 NBasis=   196 RedAO= T EigKep=  1.92D-05  NBF=   196
 NBsUse=   196 1.00D-06 EigRej= -1.00D+00 NBFU=   196
 Initial guess from the checkpoint file:  "/home/gau/soft/scratch/Gau-193937.chk"
 B after Tr=     0.000000   -0.000000    0.000000
         Rot=    0.999969    0.000421   -0.000055   -0.007848 Ang=   0.90 deg.
 ExpMin= 4.38D-02 ExpMax= 5.48D+03 ExpMxC= 8.25D+02 IAcc=3 IRadAn=         5 AccDes= 0.00D+00
 Harris functional with IExCor= 1009 and IRadAn=       5 diagonalized for initial guess.
 HarFok:  IExCor= 1009 AccDes= 0.00D+00 IRadAn=         5 IDoV= 1 UseB2=F ITyADJ=14
 ICtDFT=  3500011 ScaDFX=  1.000000  1.000000  1.000000  1.000000
 FoFCou: FMM=F IPFlag=           0 FMFlag=      100000 FMFlg1=           0
         NFxFlg=           0 DoJE=T BraDBF=F KetDBF=T FulRan=T
         wScrn=  0.000000 ICntrl=       500 IOpCl=  0 I1Cent=   200000004 NGrid=           0
         NMat0=    1 NMatS0=      1 NMatT0=    0 NMatD0=    1 NMtDS0=    0 NMtDT0=    0
 Petite list used in FoFCou.
 Requested convergence on RMS density matrix=1.00D-08 within 128 cycles.
 Requested convergence on MAX density matrix=1.00D-06.
 Requested convergence on             energy=1.00D-06.
 No special actions if energy rises.
 SCF Done:  E(RM062X) =  -507.052319744     A.U. after   13 cycles
            NFock= 13  Conv=0.49D-08     -V/T= 2.0081
 Calling FoFJK, ICntrl=      2127 FMM=F ISym2X=0 I1Cent= 0 IOpClX= 0 NMat=1 NMatS=1 NMatT=0.
 ***** Axes restored to original set *****
 -------------------------------------------------------------------
 Center     Atomic                   Forces (Hartrees/Bohr)
 Number     Number              X              Y              Z
 -------------------------------------------------------------------
      1        7           0.000824929   -0.001089477    0.000466879
      2        7           0.000175626   -0.000452348    0.000231254
      3        6          -0.000408016   -0.000162317   -0.000105136
      4        6           0.000086884    0.000393529   -0.000174131
      5        7           0.000082135    0.000696632   -0.000036320
      6        1          -0.000021612   -0.000009405    0.000005097
      7        1          -0.000001564    0.000037272    0.000008301
      8        1           0.002942177    0.010363741   -0.001765834
      9        6          -0.000557108   -0.000020735   -0.000140468
     10        8           0.000333344   -0.000348184   -0.000197520
     11        8           0.000247425   -0.000338354    0.000802013
     12        1          -0.007715157    0.003221511   -0.000845157
     13        8           0.003782594   -0.012554806    0.001362412
     14        1           0.000228342    0.000262941    0.000388609
 -------------------------------------------------------------------
 Cartesian Forces:  Max     0.012554806 RMS     0.002962241

 GradGradGradGradGradGradGradGradGradGradGradGradGradGradGradGradGradGrad
 Berny optimization.
 FormGI is forming the generalized inverse of G from B-inverse, IUseBI=4.
 Internal  Forces:  Max     0.009700695 RMS     0.001560710
 Search for a saddle point.
 Step number   4 out of a maximum of   77
 All quantities printed in internal units (Hartrees-Bohrs-Radians)
 Swapping is turned off.
 Update second derivatives using D2CorX and points    2    3    4
 ITU=  0  0  0  0
     Eigenvalues ---   -0.01091  -0.00469   0.00286   0.00352   0.00595
     Eigenvalues ---    0.01355   0.01688   0.02459   0.02732   0.04277
     Eigenvalues ---    0.04612   0.05398   0.06251   0.06432   0.06651
     Eigenvalues ---    0.07323   0.08903   0.09483   0.10013   0.10685
     Eigenvalues ---    0.18484   0.21515   0.23590   0.26061   0.31219
     Eigenvalues ---    0.33429   0.36802   0.38914   0.39226   0.42936
     Eigenvalues ---    0.47358   0.50328   0.55126   0.60979   0.65986
     Eigenvalues ---    0.94027
 Eigenvectors required to have negative eigenvalues:
                          R10       R3        R14       R11       A14
   1                   -0.62802   0.45671  -0.33409   0.29277   0.24959
                          R5        A22       A17       D25       A18
   1                   -0.16734  -0.15979  -0.12246  -0.10828  -0.09929
 RFO step:  Lambda0=1.131187900D-04 Lambda=-6.00322145D-03.
 Linear search not attempted -- option 19 set.
 Maximum step size (   0.300) exceeded in Quadratic search.
[...]
 ! D3    D(12,1,2,3)          -179.7578         -DE/DX =    0.0                 !
 ! D4    D(12,1,2,9)             0.5501         -DE/DX =    0.0                 !
 ! D5    D(2,1,5,4)             -0.0396         -DE/DX =    0.0                 !
 ! D6    D(12,1,5,4)           179.7375         -DE/DX =    0.0                 !
 ! D7    D(2,1,13,8)            -1.9829         -DE/DX =    0.0                 !
 ! D8    D(2,1,13,14)         -111.7529         -DE/DX =    0.0                 !
 ! D9    D(5,1,13,8)          -179.7304         -DE/DX =    0.0                 !
 ! D10   D(5,1,13,14)           70.4996         -DE/DX =    0.0                 !
 ! D11   D(1,2,3,4)             -0.0294         -DE/DX =    0.0                 !
 ! D12   D(1,2,3,6)            179.9755         -DE/DX =    0.0                 !
 ! D13   D(9,2,3,4)            179.6605         -DE/DX =    0.0                 !
 ! D14   D(9,2,3,6)             -0.3346         -DE/DX =    0.0                 !
 ! D15   D(1,2,9,10)           179.1185         -DE/DX =    0.0                 !
 ! D16   D(1,2,9,11)            -0.7194         -DE/DX =    0.0                 !
 ! D17   D(3,2,9,10)            -0.5213         -DE/DX =    0.0                 !
 ! D18   D(3,2,9,11)           179.6408         -DE/DX =    0.0                 !
 ! D19   D(2,3,4,5)              0.0059         -DE/DX =    0.0                 !
 ! D20   D(2,3,4,7)            179.9698         -DE/DX =    0.0                 !
 ! D21   D(6,3,4,5)            179.9999         -DE/DX =    0.0                 !
 ! D22   D(6,3,4,7)             -0.0362         -DE/DX =    0.0                 !
 ! D23   D(3,4,5,1)              0.0203         -DE/DX =    0.0                 !
 ! D24   D(7,4,5,1)           -179.9472         -DE/DX =    0.0                 !
 ! D25   D(13,8,11,9)           -0.7555         -DE/DX =    0.0                 !
 ! D26   D(11,8,13,12)           3.7626         -DE/DX =    0.0                 !
 ! D27   D(11,8,13,14)         122.0845         -DE/DX =    0.0                 !
 ! D28   D(2,9,11,8)            -0.9299         -DE/DX =    0.0                 !
 ! D29   D(10,9,11,8)          179.2848         -DE/DX =    0.0                 !
 --------------------------------------------------------------------------------
 GradGradGradGradGradGradGradGradGradGradGradGradGradGradGradGradGradGrad


 ----------------------------------------------------------------------

 Electric dipole moment (input orientation):
 (Debye = 10**-18 statcoulomb cm , SI units = C m)
                  (au)            (Debye)         (10**-30 SI)
   Tot        0.153131D+01      0.389219D+01      0.129830D+02
   x         -0.959923D+00     -0.243988D+01     -0.813857D+01
   y         -0.107497D+01     -0.273230D+01     -0.911397D+01
   z         -0.517576D+00     -0.131555D+01     -0.438819D+01

 Dipole polarizability, Alpha (input orientation).
 (esu units = cm**3 , SI units = C**2 m**2 J**-1)
 Alpha(0;0):
               (au)            (10**-24 esu)      (10**-40 SI)
   iso        0.680719D+02      0.100872D+02      0.112235D+02
   aniso      0.426097D+02      0.631411D+01      0.702539D+01
   xx         0.834047D+02      0.123593D+02      0.137516D+02
   yx        -0.323689D+01     -0.479657D+00     -0.533691D+00
   yy         0.807739D+02      0.119695D+02      0.133178D+02
   zx         0.810881D+00      0.120160D+00      0.133696D+00
   zy        -0.169288D+01     -0.250858D+00     -0.279117D+00
   zz         0.400370D+02      0.593288D+01      0.660122D+01

 ----------------------------------------------------------------------

 Dipole orientation:
     7         -0.24305695          0.95456612          1.79084940
     7         -0.72818865         -0.59675138         -0.13406946
     6         -2.61620893         -2.15005034          0.52995269
     6         -3.24244773         -1.44689200          2.96971372
     7         -1.72932434          0.47993109          3.67917484
     1         -3.30646788         -3.56293558         -0.76619737
     1         -4.66097874         -2.19808036          4.22388602
     1          3.03663974          2.82345792         -1.04954286
     6          0.68839853         -0.60124660         -2.72414712
     8         -0.10778547         -2.21764596         -4.11031800
     8          2.36466370          1.05218158         -2.86049307
     1          1.51352732          2.63576987          1.57745228
     8          3.10351673          3.91323202          0.64739542
     1          4.74531655          3.83253235          1.43531034

 Electric dipole moment (dipole orientation):
 (Debye = 10**-18 statcoulomb cm , SI units = C m)
                  (au)            (Debye)         (10**-30 SI)
   Tot        0.153131D+01      0.389219D+01      0.129830D+02
   x          0.000000D+00      0.000000D+00      0.000000D+00
   y          0.000000D+00      0.000000D+00      0.000000D+00
   z          0.153131D+01      0.389219D+01      0.129830D+02

 Dipole polarizability, Alpha (dipole orientation).
 (esu units = cm**3 , SI units = C**2 m**2 J**-1)
 Alpha(0;0):
               (au)            (10**-24 esu)      (10**-40 SI)
   iso        0.680719D+02      0.100872D+02      0.112235D+02
   aniso      0.426097D+02      0.631411D+01      0.702539D+01
   xx         0.661661D+02      0.980481D+01      0.109093D+02
   yx         0.202874D+02      0.300628D+01      0.334494D+01
   yy         0.642043D+02      0.951409D+01      0.105859D+02
   zx        -0.966659D+01     -0.143244D+01     -0.159381D+01
   zy         0.861474D+01      0.127657D+01      0.142038D+01
   zz         0.738453D+02      0.109427D+02      0.121754D+02

 ----------------------------------------------------------------------
 Unable to Open any file for archive entry.
 1\1\GINC-NODE01\Freq\RM062X\6-31+G(d,p)\C3H5N3O3\GAU\07-Dec-2023\0\\#N
  Geom=AllCheck Guess=TCheck SCRF=Check GenChk RM062X/6-31+G(d,p) Freq\
 \test\\0,1\N,-0.5187764528,-0.94205097,0.11491834\N,-0.3315548756,0.37
 60194256,0.0438554765\C,-1.5278352379,0.9771744629,-0.0256311137\C,-2.
 4488448437,-0.0552047421,0.0069401502\N,-1.7832935583,-1.2261935031,0.
 0938841091\H,-1.6017663518,2.051096095,-0.0896853582\H,-3.5258134615,-
 0.0231159567,-0.0258731478\H,1.9745375437,-1.0824338335,0.2292558827\C
 ,1.0563169085,1.0931378777,0.0355324072\O,0.937237011,2.2869657601,-0.
 0528843432\O,2.0158357408,0.2993452653,0.1180788523\H,0.5011563265,-1.
 7304842476,0.1949205353\O,1.6262868297,-2.0887371151,0.3083859841\H,1.
 9645134314,-2.6401985185,-0.4071417746\\Version=ES64L-G16RevC.01\State
 =1-A\HF=-507.0530386\RMSD=2.252e-09\RMSF=6.770e-06\ZeroPoint=0.0956376
 \Thermal=0.1032261\ETot=-506.9498125\HTot=-506.9488683\GTot=-506.99029
 95\Dipole=-0.9599233,-1.0749697,-0.5175761\DipoleDeriv=-0.7051178,0.76
 83659,-0.0542221,0.829173,-0.1661972,0.0229457,-0.0491322,0.0240751,-0
 .0534929,-1.1238528,-0.6162305,0.0056106,-0.7068855,-0.2818103,0.00253
 93,0.0143118,0.0017121,0.0118977,0.1510494,0.35537,-0.013164,-0.061550
 9,0.0590577,-0.0049978,0.0083853,0.0067354,-0.0073382,0.166814,-0.0311
 119,0.009197,0.0945449,-0.26317,0.0096575,-0.0008752,0.010006,-0.09147
 05,-0.1731368,-0.4845367,0.0281983,-0.1423952,-0.152583,-0.0089621,0.0
 064873,-0.0223973,-0.2003299,0.1438988,-0.0210525,-0.0000019,0.0053516
 ,0.1484712,0.0023841,-0.0021041,0.0017399,0.1823072,0.038277,0.0130682
 ,-0.0047284,-0.010783,0.0990801,0.0035353,-0.0034883,0.0044244,0.17175
 07,0.3612065,0.1028868,0.0329779,-0.1365303,1.4946725,-0.0561967,0.054
 2431,-0.0693001,0.2917628,2.6505992,-0.0294261,0.0607322,0.2390901,2.3
 81205,-0.1190987,0.0502085,-0.1400046,0.4241653,-0.7653216,0.0029806,-
 0.0092495,-0.1797099,-1.534423,0.0661667,0.0021046,0.0826876,-0.410592
 ,-1.3698272,0.4700115,-0.05244,0.4679745,-1.5323088,0.0686576,-0.05904
 85,0.0845509,-0.4340959,1.5509358,-0.8656541,0.0529641,-0.7378351,0.73
 38572,-0.058057,0.065636,-0.073966,0.258951,-1.2559261,0.3695275,-0.06
 54414,0.4045119,-1.3800914,0.0787229,-0.0805344,0.0923149,-0.4380064,0
 .3304016,-0.0341987,0.0095672,-0.064956,0.39424,-0.0072968,-0.0061939,
 -0.0025784,0.2944911\Polar=83.4047262,-3.2368887,80.7739401,0.810881,-
 1.6928755,40.037045\Quadrupole=1.9576362,-1.9879774,0.0303412,-10.2177
 81,-1.6531685,3.1111493\PG=C01 [X(C3H5N3O3)]\NImag=1\\0.76390107,-0.07
 776768,0.59755584,0.02311242,-0.02972195,0.13171656,-0.11719758,0.0455
 6483,-0.00418306,0.74875868,-0.02736204,-0.29626136,0.01246531,-0.0304
 6920,0.66983012,0.00018305,0.01402638,-0.07231752,0.01978720,-0.033911
 12,0.11851785,-0.05037147,0.07082106,-0.00540324,-0.30970034,0.0954443
 4,-0.01244449,0.62374529,0.01575565,-0.09157343,0.00647262,0.10137895,
 -0.17848363,0.00944642,-0.01558165,0.94848691,-0.00287477,0.00830802,0
 .01491840,-0.01274931,0.00908327,-0.06993477,0.01480395,-0.04716771,0.
 14049739,-0.10722288,0.01990681,-0.00489187,-0.08332942,0.01959950,-0.
 00381477,-0.23525685,-0.14333115,0.00349594,0.94602249,0.09690602,-0.0
 2306332,0.00463186,-0.08519548,0.02881545,-0.00355820,-0.09798172,-0.2
 5162728,0.00766963,0.01290493,0.58937975,-0.00918727,0.00297438,0.0183
 0238,0.00209683,-0.00043981,0.01128159,0.00087757,0.00621307,-0.071027
 21,0.02266254,-0.02553123,0.13977461,-0.38176233,-0.09169916,-0.004270
 19,-0.10579100,-0.08396933,0.00085962,0.05779907,0.03878450,-0.0010123
 9,-0.15838678,0.08026500,-0.00702374,0.59445422,-0.02285726,-0.1171163
 5,0.00143173,-0.03412110,-0.08156131,0.00538438,-0.05491131,-0.0786604
 3,0.00402282,0.08442680,-0.29091660,0.01490529,0.02187194,0.56275379,-
 0.00755540,-0.00073023,-0.08613157,-0.00192898,0.00384870,0.02766314,0
 .00413014,0.00679754,0.01984115,-0.00740491,0.01509726,-0.07355642,0.0
 1307384,-0.02527980,0.11472850,-0.00796282,0.00371546,-0.00060457,0.00
 353836,0.03188521,-0.00166870,-0.05711398,0.01213457,-0.00143744,0.011
 84279,-0.01425901,0.00115094,-0.00232596,-0.00644192,0.00011808,0.0501
 4081,-0.00095515,0.00177058,0.00025824,0.00014210,-0.00807576,0.000367
 83,0.02516647,-0.37396538,0.02036143,0.00486054,-0.00269934,0.00032771
 ,0.00018891,-0.00111739,0.00041519,-0.02774906,0.38559218,-0.00035769,
 0.00036759,0.00634206,0.00012505,0.00133743,-0.00186028,-0.00212868,0.
 01998306,-0.03445872,0.00004794,-0.00025201,0.00057860,-0.00025693,0.0
 0023891,0.00606597,0.00236621,-0.02157717,0.02659492,0.00102911,0.0017
 4195,-0.00032593,-0.00075914,-0.00118180,-0.00013145,-0.00512984,0.004
 82053,-0.00040280,-0.37282141,0.00527868,-0.01016969,-0.00915972,-0.00
 018418,-0.00003050,-0.00033267,-0.00029518,0.00005978,0.38702574,0.006
 50532,-0.00575117,0.00102295,-0.00489659,-0.00562775,0.00058407,-0.020
 03253,0.00901734,-0.00115279,-0.00151644,-0.05729238,0.00144066,0.0297
 3547,0.00451812,0.00014764,0.00051237,-0.00019083,-0.00007832,-0.01023
 617,0.05315275,-0.00050770,0.00088855,0.00843525,0.00007195,0.00062833
 ,0.00657354,0.00100675,-0.00042046,-0.00069902,-0.00971862,0.00157603,
 -0.03165560,-0.00184710,-0.00064961,-0.00756702,0.00001531,-0.00010457
 ,-0.00185896,0.01103628,-0.00190129,0.02541073,0.00217083,0.00218179,-
 0.00037181,-0.00384295,0.00203724,-0.00019330,0.00149995,-0.00040731,0
 .00009197,0.00060407,-0.00148811,0.00007651,-0.00095985,-0.00130845,0.
 00019694,0.00019985,0.00011161,0.00000947,0.00003597,-0.00016611,0.000
 00980,0.11217155,0.01712060,-0.00264722,-0.00013713,-0.01368273,-0.000
 82779,-0.00037059,0.00588147,-0.00492077,0.00047079,-0.00032249,-0.005
 46081,0.00041802,-0.00753223,-0.00343395,-0.00019613,0.00110477,0.0000
 0439,0.00003651,-0.00004572,-0.00064820,0.00005891,0.06180763,0.133048
 44,0.00006281,0.00000791,-0.00078926,0.00063591,0.00018543,0.00027813,
 -0.00012319,0.00019472,-0.00013234,0.00012682,0.00011788,0.00022788,0.
 00040507,-0.00009883,-0.00030746,-0.00004027,0.00001509,0.00002580,0.0
 0001141,0.00000969,0.00009181,-0.01555961,-0.00083413,0.06014579,-0.00
 261314,-0.02274062,0.00198832,-0.05304770,0.03307389,-0.00212479,-0.03
 259990,0.00327855,-0.00098059,0.00079930,0.01563674,-0.00096522,0.0298
 5788,0.01507515,-0.00012331,0.00015663,0.00076088,-0.00002243,0.000413
 03,0.00113532,-0.00008965,0.00499490,0.06868117,-0.00338305,0.48668718
 ,-0.02034887,-0.01988203,-0.00017874,0.03712174,-0.06221309,0.00203092
 ,-0.00162233,0.02324164,-0.00163326,0.01073923,0.00268788,0.00039737,0
 .00994581,-0.00476006,0.00093798,0.00456672,-0.00051501,0.00002825,0.0
 0064447,0.00155759,0.00001005,0.01274295,-0.02078897,0.00121311,-0.344
 11708,1.10642478,0.00123849,-0.00010451,-0.01171058,-0.00236894,0.0017
 3364,-0.04715674,-0.00065260,-0.00161978,-0.00381802,-0.00078498,0.000
 49427,0.00336693,0.00003033,0.00101044,0.00623964,-0.00027011,-0.00004
 370,-0.00171578,-0.00006833,-0.00000174,0.00126411,-0.00073531,0.00259
 118,-0.00528501,0.03157994,-0.07301801,0.21603894,-0.00314528,0.001947
 45,-0.00033463,-0.00743942,-0.05112237,0.00277542,-0.00057491,-0.00086
 970,0.00007665,0.00270646,-0.00191664,0.00020409,-0.00499039,-0.006315
 85,0.00021008,0.00002873,-0.00222877,0.00015024,-0.00002954,-0.0000945
 5,0.00000979,-0.00233251,-0.01745752,0.00084587,-0.09609456,0.06069281
 ,-0.00463873,0.11653346,-0.01084006,0.01187847,-0.00058651,-0.04056043
 ,-0.07151868,0.00474200,0.00643964,-0.00523777,0.00049755,-0.00197076,
 -0.00229369,0.00008967,-0.00672961,-0.00435086,-0.00014266,-0.00281377
 ,-0.00062929,-0.00006875,-0.00026195,-0.00023540,-0.00000278,0.0010635
 3,0.01981828,-0.00096955,0.07821936,-0.73772176,0.04896825,-0.07090765
 ,0.88278851,0.00066438,-0.00048903,0.00417154,0.00209549,0.00469790,0.
 01606031,-0.00043404,0.00034889,0.00051435,0.00019392,0.00010709,0.000
 32667,0.00035840,0.00005508,-0.00191326,0.00020073,-0.00007052,-0.0007
 8785,0.00002063,0.00000596,-0.00013969,-0.00022952,-0.00143377,0.00320
 986,-0.00592476,0.04804448,-0.08566897,0.00744306,-0.06197843,0.039561
 76,0.00917046,0.00569465,-0.00039521,-0.08027124,0.01628437,-0.0037554
 8,0.00423823,-0.01160418,0.00070808,-0.00369896,-0.00450184,0.00017486
 ,-0.00979325,-0.00273252,-0.00012179,0.00098977,-0.00009479,0.00002238
 ,-0.00031235,-0.00112761,0.00007985,-0.02665424,-0.04451733,0.00249251
 ,-0.34710076,0.23266333,-0.02367327,-0.00300522,0.04961922,-0.00450885
 ,0.44672702,-0.00710248,0.00253574,0.00006107,0.00666204,0.01438454,0.
 00029768,-0.00538766,0.00143216,-0.00010774,-0.00164128,0.00486083,-0.
 00041697,0.00689958,0.00440200,-0.00006559,-0.00205224,-0.00005075,-0.
 00003245,-0.00007216,0.00037802,-0.00005629,-0.00731761,0.02559206,-0.
 00122642,0.20467957,-0.29204409,0.02136185,0.07476108,-0.08230230,0.00
 970400,-0.26592409,0.42464709,0.00077957,0.00013558,0.00121738,-0.0031
 5962,0.00052992,0.01409809,0.00033401,-0.00025737,0.00265417,0.0000184
 4,-0.00044879,-0.00053927,-0.00066159,-0.00032414,-0.00030680,0.000163
 14,0.00001352,0.00017578,0.00001305,-0.00008419,-0.00055239,0.00040708
 ,-0.00582534,-0.01664057,-0.02252178,0.02282966,-0.07372215,-0.0061191
 0,0.00871889,0.02562376,0.03076449,-0.03487529,0.03881655,-0.03247596,
 -0.00443786,0.00123684,0.00918365,-0.00510460,0.00084305,0.01087253,-0
 .01014020,0.00077717,0.00293151,-0.01332447,0.00066426,-0.01093670,-0.
 00182467,0.00002502,0.00207141,0.00029814,-0.00003610,0.00036386,-0.00
 104661,0.00000501,-0.02303000,-0.04561183,-0.00247732,0.04134737,-0.00
 295735,0.00139857,-0.00991224,0.00191153,-0.00045085,-0.01847492,0.029
 11261,-0.00190515,0.04929836,-0.00343823,-0.05500263,0.00073491,0.0134
 5458,-0.01000423,0.00070095,-0.00835572,0.00107234,-0.00020355,-0.0061
 0662,0.00735084,-0.00023547,-0.00341496,0.01446969,-0.00173951,-0.0002
 0628,-0.00021471,0.00009553,-0.00038014,0.00141615,0.00000299,-0.01944
 829,0.02721220,-0.00178407,-0.01686484,-0.00432361,-0.00019799,0.00406
 999,0.00084025,0.00010187,0.01021109,-0.01214474,0.00072977,0.04915782
 ,0.07482667,-0.00130371,0.00141134,-0.02849807,0.00004859,0.00017744,-
 0.00350839,0.00052590,-0.00023143,0.00218303,0.00038467,-0.00044712,0.
 00378045,0.00038085,-0.00140650,-0.00609706,0.00004532,0.00008995,0.00
 116443,0.00000303,-0.00005224,0.00101066,0.00126658,-0.00025780,0.0055
 6844,0.00147548,0.00056302,0.00054385,-0.00036103,-0.00019948,-0.00006
 607,-0.00078297,0.00050744,-0.00175890,0.00362734,0.00844895,0.0665867
 5,-0.06723582,0.04295231,-0.00220592,0.00001145,0.00067355,-0.00010738
 ,-0.00727980,0.00567079,-0.00062350,-0.00368665,0.00760924,-0.00075358
 ,0.00275280,0.00849262,-0.00007550,-0.00118930,-0.00024392,-0.00006614
 ,-0.00028975,0.00113443,-0.00013893,-0.07240177,-0.02643182,0.03011561
 ,-0.03112970,-0.00113095,-0.00122308,0.00780869,-0.00231467,0.00062578
 ,0.02765698,-0.02748943,0.00042304,-0.02982989,-0.02599614,-0.02590089
 ,0.27613075,0.03516898,-0.00461901,0.00376218,0.00479745,0.00234037,0.
 00015931,0.00047445,0.00114596,-0.00009696,0.00260321,-0.00031059,-0.0
 0004039,0.00506477,-0.00407098,0.00075124,-0.00036986,0.00012577,-0.00
 008994,0.00019013,-0.00032240,-0.00001821,-0.06556175,-0.16185802,0.02
 887608,-0.03676514,0.00991929,-0.00157466,0.00935573,-0.01162682,0.001
 16376,0.01754185,-0.08829599,0.00618495,0.00039517,-0.04112839,-0.0075
 0471,-0.06645126,0.49262967,0.00035925,0.00127980,0.01508561,-0.000378
 63,-0.00018683,0.00023988,-0.00028336,0.00008381,-0.00053518,-0.000034
 61,0.00033146,-0.00089761,0.00031333,0.00025189,0.00149048,-0.00000977
 ,-0.00004970,-0.00029706,0.00002209,-0.00000053,-0.00033034,0.01742315
 ,0.00571887,-0.04849913,0.00027912,-0.00052339,0.00135931,0.00000585,0
 .00036081,-0.00079267,-0.00135650,0.00061237,0.01182311,-0.01002926,-0
 .00718912,-0.04391640,-0.14027589,0.20367374,0.36925158,-0.00628418,0.
 00211900,-0.00335117,-0.00011336,0.00021124,-0.00020798,-0.00012799,0.
 00011064,0.00012703,-0.00050367,0.00006666,0.00019188,-0.00075799,0.00
 083075,-0.00051370,-0.00004364,0.00003821,0.00008690,-0.00003329,0.000
 09369,0.00006727,0.00754418,0.00100603,-0.01311256,-0.00167055,0.00105
 952,0.00016803,0.00044675,-0.00085438,-0.00005438,0.00052847,-0.005127
 92,0.00146442,0.00859102,0.00731774,0.02059084,-0.10131800,0.09355628,
 0.13396522,0.09374224,-0.00078480,0.00217589,-0.00021655,-0.00019617,-
 0.00079688,0.00009997,-0.00035451,0.00007235,-0.00005151,-0.00015229,0
 .00056927,-0.00010230,0.00058933,-0.00015567,0.00015836,-0.00002698,-0
 .00003446,0.00001137,-0.00001846,0.00002816,-0.00001164,0.01575287,-0.
 00508965,-0.02570691,-0.00005294,-0.00158256,0.00040076,0.00008598,0.0
 0059104,-0.00025729,-0.00151216,-0.00339458,0.00267283,0.00357231,-0.0
 0436984,-0.00109886,0.08352527,-0.19392886,-0.20436317,-0.10042744,0.2
 0591580,-0.00461344,0.00164618,-0.00074219,-0.00009249,-0.00014962,0.0
 0006517,-0.00020871,0.00015663,-0.00000324,-0.00028053,0.00021186,0.00
 003699,-0.00034951,0.00045832,-0.00014931,-0.00002887,-0.00000330,0.00
 003110,-0.00003756,0.00006013,0.00001692,-0.00239196,-0.00023940,0.002
 10606,0.00081273,-0.00070145,0.00026448,-0.00026755,0.00057100,-0.0000
 9973,0.00035189,0.00423634,-0.00088878,0.00632140,0.00053475,0.0030072
 7,0.14020639,-0.23524638,-0.30398160,-0.13942181,0.22846494,0.30033684
 \\0.00001675,-0.00000287,0.00000807,-0.00000381,-0.00000045,0.00000095
 ,0.00000074,-0.00000028,-0.00000232,0.00000046,0.00000130,-0.00000258,
 -0.00000014,-0.00000011,0.00000125,0.00000084,0.00000069,-0.00000037,0
 .00000015,0.00000162,-0.00000038,0.00000296,0.00000919,0.00000901,0.00
 000214,0.00000196,0.00000076,0.00000132,-0.00000234,0.00000107,0.00000
 033,0.00000938,-0.00000726,0.00000339,0.00000164,-0.00000043,-0.000027
 87,-0.00001848,-0.00000780,0.00000274,-0.00000126,0.00000004\\\@
 The archive entry for this job was punched.


 AND THIS OUR LIFE, EXEMPT FROM PUBLIC HAUNT,
 FINDS TONGUES IN TREES, BOOKS IN THE RUNNING BROOKS,
 SERMONS IN STONES, AND GOOD IN EVERYTHING.
 I WOULD NOT CHANGE IT. -- W. SHAKESPEARE
 AS YOU LIKE IT, ACT II, SCENE 1.
 Job cpu time:       0 days  0 hours 33 minutes 36.4 seconds.
 Elapsed time:       0 days  0 hours  0 minutes 43.1 seconds.
 File lengths (MBytes):  RWF=     66 Int=      0 D2E=      0 Chk=      4 Scr=      1
 Normal termination of Gaussian 16 at Thu Dec  7 02:11:04 2023.
