 Entering Gaussian System, Link 0=/opt/soft/g16/g16
 Initial command:
 /opt/soft/g16/l1.exe "/scratch/gongke2021/RC/Gau-20965.inp" -scrdir="/scratch/gongke2021/RC/"
 Entering Link 1 = /opt/soft/g16/l1.exe PID=     20966.
  
 Copyright (c) 1988,1990,1992,1993,1995,1998,2003,2009,2016,
            Gaussian, Inc.  All Rights Reserved.
  
 This is part of the Gaussian(R) 16 program.  It is based on
 the Gaussian(R) 09 system (copyright 2009, Gaussian, Inc.),
 the Gaussian(R) 03 system (copyright 2003, Gaussian, Inc.),
 the Gaussian(R) 98 system (copyright 1998, Gaussian, Inc.),
 the Gaussian(R) 94 system (copyright 1995, Gaussian, Inc.),
 the Gaussian 92(TM) system (copyright 1992, Gaussian, Inc.),
 the Gaussian 90(TM) system (copyright 1990, Gaussian, Inc.),
 the Gaussian 88(TM) system (copyright 1988, Gaussian, Inc.),
 the Gaussian 86(TM) system (copyright 1986, Carnegie Mellon
 University), and the Gaussian 82(TM) system (copyright 1983,
 Carnegie Mellon University). Gaussian is a federally registered
 trademark of Gaussian, Inc.
  
 This software contains proprietary and confidential information,
 including trade secrets, belonging to Gaussian, Inc.
  
 This software is provided under written license and may be
 used, copied, transmitted, or stored only in accord with that
 written license.
  
 The following legend is applicable only to US Government
 contracts under FAR:
  
                    RESTRICTED RIGHTS LEGEND
  
 Use, reproduction and disclosure by the US Government is
 subject to restrictions as set forth in subparagraphs (a)
 and (c) of the Commercial Computer Software - Restricted
 Rights clause in FAR 52.227-19.
  
 Gaussian, Inc.
 340 Quinnipiac St., Bldg. 40, Wallingford CT 06492
  
  
 ---------------------------------------------------------------
 Warning -- This program may not be used in any manner that
 competes with the business of Gaussian, Inc. or will provide
 assistance to any competitor of Gaussian, Inc.  The licensee
 of this program is prohibited from giving any competitor of
 Gaussian, Inc. access to this program.  By using this program,
 the user acknowledges that Gaussian, Inc. is engaged in the
 business of creating and licensing software in the field of
 computational chemistry and represents and warrants to the
 licensee that it is not a competitor of Gaussian, Inc. and that
 it will not use this program in any manner prohibited above.
 ---------------------------------------------------------------
  

 Cite this work as:
 Gaussian 16, Revision A.03,
 M. J. Frisch, G. W. Trucks, H. B. Schlegel, G. E. Scuseria, 
 M. A. Robb, J. R. Cheeseman, G. Scalmani, V. Barone, 
 G. A. Petersson, H. Nakatsuji, X. Li, M. Caricato, A. V. Marenich, 
 J. Bloino, B. G. Janesko, R. Gomperts, B. Mennucci, H. P. Hratchian, 
 J. V. Ortiz, A. F. Izmaylov, J. L. Sonnenberg, D. Williams-Young, 
 F. Ding, F. Lipparini, F. Egidi, J. Goings, B. Peng, A. Petrone, 
 T. Henderson, D. Ranasinghe, V. G. Zakrzewski, J. Gao, N. Rega, 
 G. Zheng, W. Liang, M. Hada, M. Ehara, K. Toyota, R. Fukuda, 
 J. Hasegawa, M. Ishida, T. Nakajima, Y. Honda, O. Kitao, H. Nakai, 
 T. Vreven, K. Throssell, J. A. Montgomery, Jr., J. E. Peralta, 
 F. Ogliaro, M. J. Bearpark, J. J. Heyd, E. N. Brothers, K. N. Kudin, 
 V. N. Staroverov, T. A. Keith, R. Kobayashi, J. Normand, 
 K. Raghavachari, A. P. Rendell, J. C. Burant, S. S. Iyengar, 
 J. Tomasi, M. Cossi, J. M. Millam, M. Klene, C. Adamo, R. Cammi, 
 J. W. Ochterski, R. L. Martin, K. Morokuma, O. Farkas, 
 J. B. Foresman, and D. J. Fox, Gaussian, Inc., Wallingford CT, 2016.
 
 ******************************************
 Gaussian 16:  ES64L-G16RevA.03 25-Dec-2016
                 5-Jun-2023 
 ******************************************
 %mem=10GB
 %nprocshared=24
 Will use up to   24 processors via shared memory.
 ----------------------------
 # opt freq 6-31+g(d,p) m062x
 ----------------------------
 1/18=20,19=15,26=3,38=1/1,3;
 2/9=110,12=2,17=6,18=5,40=1/2;
 3/5=1,6=6,7=111,11=2,25=1,30=1,71=1,74=-55/1,2,3;
 4//1;
 5/5=2,38=5/2;
 6/7=2,8=2,9=2,10=2,28=1/1;
 7//1,2,3,16;
 1/18=20,19=15,26=3/3(2);
 2/9=110/2;
 99//99;
 2/9=110/2;
 3/5=1,6=6,7=111,11=2,25=1,30=1,71=1,74=-55/1,2,3;
 4/5=5,16=3,69=1/1;
 5/5=2,38=5/2;
 7//1,2,3,16;
 1/18=20,19=15,26=3/3(-5);
 2/9=110/2;
 6/7=2,8=2,9=2,10=2,19=2,28=1/1;
 99/9=1/99;
 ----
 test
 ----
 Symbolic Z-matrix:
 Charge =  0 Multiplicity = 1
 N                     1.04231   1.09222   0.02838 
 N                     0.87277  -0.21603  -0.00408 
 C                     2.11198  -0.69765  -0.1162 
 C                     2.99796   0.38822  -0.1459 
 N                     2.28547   1.5113   -0.05138 
 H                     2.29386  -1.76018  -0.16558 
 H                     4.07325   0.41361  -0.22693 
 H                     0.24897   1.74103   0.11835 
 C                    -0.91106  -2.28506   0.11877 
 O                     0.01639  -2.98124   0.11327 
 O                    -1.89046  -1.6522    0.12685 
 H                    -2.04617   2.17128   0.08633 
 O                    -1.24692   2.70593   0.25936 
 H                    -1.43357   3.26544   1.01851 
 H                    -2.88137   0.05077  -0.20941 
 O                    -3.27079   0.93051  -0.30177 
 H                    -3.71793   0.94865  -1.15345 
 
 Add virtual bond connecting atoms O13        and H8         Dist= 3.37D+00.
 Add virtual bond connecting atoms O16        and H12        Dist= 3.38D+00.
 Add virtual bond connecting atoms H15        and O11        Dist= 3.78D+00.

 GradGradGradGradGradGradGradGradGradGradGradGradGradGradGradGradGradGrad
 Berny optimization.
 Initialization pass.
                           ----------------------------
                           !    Initial Parameters    !
                           ! (Angstroms and Degrees)  !
 --------------------------                            --------------------------
 ! Name  Definition              Value          Derivative Info.                !
 --------------------------------------------------------------------------------
 ! R1    R(1,2)                  1.3196         estimate D2E/DX2                !
 ! R2    R(1,5)                  1.3143         estimate D2E/DX2                !
 ! R3    R(1,8)                  1.0288         estimate D2E/DX2                !
 ! R4    R(2,3)                  1.3342         estimate D2E/DX2                !
 ! R5    R(3,4)                  1.4018         estimate D2E/DX2                !
 ! R6    R(3,6)                  1.0791         estimate D2E/DX2                !
 ! R7    R(4,5)                  1.3334         estimate D2E/DX2                !
 ! R8    R(4,7)                  1.0786         estimate D2E/DX2                !
 ! R9    R(8,13)                 1.7857         estimate D2E/DX2                !
 ! R10   R(9,10)                 1.1597         estimate D2E/DX2                !
 ! R11   R(9,11)                 1.1661         estimate D2E/DX2                !
 ! R12   R(11,15)                1.9988         estimate D2E/DX2                !
 ! R13   R(12,13)                0.977          estimate D2E/DX2                !
 ! R14   R(12,16)                1.786          estimate D2E/DX2                !
 ! R15   R(13,14)                0.9614         estimate D2E/DX2                !
 ! R16   R(15,16)                0.9665         estimate D2E/DX2                !
 ! R17   R(16,17)                0.9621         estimate D2E/DX2                !
 ! A1    A(2,1,5)              115.858          estimate D2E/DX2                !
 ! A2    A(2,1,8)              121.8905         estimate D2E/DX2                !
 ! A3    A(5,1,8)              122.2497         estimate D2E/DX2                !
 ! A4    A(1,2,3)              103.9226         estimate D2E/DX2                !
 ! A5    A(2,3,4)              108.0103         estimate D2E/DX2                !
 ! A6    A(2,3,6)              121.0521         estimate D2E/DX2                !
 ! A7    A(4,3,6)              130.9374         estimate D2E/DX2                !
 ! A8    A(3,4,5)              108.2542         estimate D2E/DX2                !
 ! A9    A(3,4,7)              130.5349         estimate D2E/DX2                !
 ! A10   A(5,4,7)              121.2109         estimate D2E/DX2                !
 ! A11   A(1,5,4)              103.9548         estimate D2E/DX2                !
 ! A12   A(9,11,15)            151.3558         estimate D2E/DX2                !
 ! A13   A(8,13,12)            112.0619         estimate D2E/DX2                !
 ! A14   A(8,13,14)            122.6488         estimate D2E/DX2                !
 ! A15   A(12,13,14)           107.428          estimate D2E/DX2                !
 ! A16   A(12,16,15)           109.5913         estimate D2E/DX2                !
 ! A17   A(12,16,17)           119.8632         estimate D2E/DX2                !
 ! A18   A(15,16,17)           106.7992         estimate D2E/DX2                !
 ! A19   L(1,8,13,11,-1)       173.5734         estimate D2E/DX2                !
 ! A20   L(10,9,11,1,-1)       184.0258         estimate D2E/DX2                !
 ! A21   L(13,12,16,2,-1)      168.5099         estimate D2E/DX2                !
 ! A22   L(11,15,16,1,-1)      173.6164         estimate D2E/DX2                !
 ! A23   L(1,8,13,11,-2)       180.5394         estimate D2E/DX2                !
 ! A24   L(10,9,11,1,-2)       180.0296         estimate D2E/DX2                !
 ! A25   L(13,12,16,2,-2)      181.669          estimate D2E/DX2                !
 ! A26   L(11,15,16,1,-2)      184.1097         estimate D2E/DX2                !
 ! D1    D(5,1,2,3)             -0.064          estimate D2E/DX2                !
 ! D2    D(8,1,2,3)           -179.585          estimate D2E/DX2                !
 ! D3    D(2,1,5,4)              0.0696         estimate D2E/DX2                !
 ! D4    D(8,1,5,4)            179.5888         estimate D2E/DX2                !
 ! D5    D(2,1,13,12)          -13.506          estimate D2E/DX2                !
 ! D6    D(2,1,13,14)          115.0932         estimate D2E/DX2                !
 ! D7    D(5,1,13,12)          166.5314         estimate D2E/DX2                !
 ! D8    D(5,1,13,14)          -64.8694         estimate D2E/DX2                !
 ! D9    D(1,2,3,4)              0.0302         estimate D2E/DX2                !
 ! D10   D(1,2,3,6)            179.9027         estimate D2E/DX2                !
 ! D11   D(2,3,4,5)              0.0091         estimate D2E/DX2                !
 ! D12   D(2,3,4,7)            179.9573         estimate D2E/DX2                !
 ! D13   D(6,3,4,5)           -179.8463         estimate D2E/DX2                !
 ! D14   D(6,3,4,7)              0.1019         estimate D2E/DX2                !
 ! D15   D(3,4,5,1)             -0.0444         estimate D2E/DX2                !
 ! D16   D(7,4,5,1)           -179.9984         estimate D2E/DX2                !
 ! D17   D(9,11,16,12)         -30.8023         estimate D2E/DX2                !
 ! D18   D(9,11,16,17)         100.0789         estimate D2E/DX2                !
 ! D19   D(8,13,16,15)          17.1251         estimate D2E/DX2                !
 ! D20   D(8,13,16,17)        -103.9911         estimate D2E/DX2                !
 ! D21   D(14,13,16,15)       -118.7532         estimate D2E/DX2                !
 ! D22   D(14,13,16,17)        120.1306         estimate D2E/DX2                !
 --------------------------------------------------------------------------------
 Trust Radius=3.00D-01 FncErr=1.00D-07 GrdErr=1.00D-06 EigMax=2.50D+02 EigMin=1.00D-04
 Number of steps in this run=     75 maximum allowed number of steps=    102.
 GradGradGradGradGradGradGradGradGradGradGradGradGradGradGradGradGradGrad

                          Input orientation:                          
 ---------------------------------------------------------------------
 Center     Atomic      Atomic             Coordinates (Angstroms)
 Number     Number       Type             X           Y           Z
 ---------------------------------------------------------------------
      1          7           0        1.042313    1.092222    0.028384
      2          7           0        0.872774   -0.216033   -0.004080
      3          6           0        2.111976   -0.697652   -0.116196
      4          6           0        2.997961    0.388219   -0.145896
      5          7           0        2.285475    1.511297   -0.051378
      6          1           0        2.293861   -1.760178   -0.165580
      7          1           0        4.073251    0.413610   -0.226929
      8          1           0        0.248969    1.741025    0.118354
      9          6           0       -0.911059   -2.285060    0.118769
     10          8           0        0.016392   -2.981242    0.113265
     11          8           0       -1.890457   -1.652203    0.126848
     12          1           0       -2.046172    2.171280    0.086331
     13          8           0       -1.246922    2.705931    0.259356
     14          1           0       -1.433568    3.265441    1.018511
     15          1           0       -2.881366    0.050774   -0.209405
     16          8           0       -3.270794    0.930508   -0.301767
     17          1           0       -3.717926    0.948647   -1.153449
 ---------------------------------------------------------------------
                    Distance matrix (angstroms):
                    1          2          3          4          5
     1  N    0.000000
     2  N    1.319594   0.000000
     3  C    2.090151   1.334222   0.000000
     4  C    2.085798   2.213967   1.401773   0.000000
     5  N    1.314320   2.231957   2.216700   1.333369   0.000000
     6  H    3.120926   2.104746   1.079112   2.260919   3.273478
     7  H    3.116454   3.269429   2.256937   1.078638   2.105203
     8  H    1.028803   2.057717   3.077816   3.075202   2.056439
     9  C    3.902546   2.734598   3.422545   4.743090   4.965794
    10  O    4.201527   2.897161   3.107878   4.506682   5.035747
    11  O    4.017798   3.116917   4.121857   5.304182   5.241937
    12  H    3.272073   3.771960   5.055886   5.355046   4.383801
    13  O    2.810338   3.619445   4.796625   4.853354   3.741862
    14  H    3.439945   4.299485   5.437329   5.410425   4.248878
    15  H    4.066499   3.769206   5.049980   5.889345   5.371624
    16  O    4.328746   4.309563   5.626682   6.294097   5.592149
    17  H    4.906854   4.873608   6.146052   6.814131   6.129597
                    6          7          8          9         10
     6  H    0.000000
     7  H    2.809866   0.000000
     8  H    4.064557   4.062805   0.000000
     9  C    3.260041   5.678527   4.189872   0.000000
    10  O    2.599157   5.300836   4.727994   1.159683   0.000000
    11  O    4.195913   6.321278   4.011385   1.166102   2.324350
    12  H    5.861374   6.374549   2.335341   4.598750   5.550079
    13  O    5.715229   5.813385   1.785669   5.004254   5.827627
    14  H    6.368096   6.325276   2.442347   5.647177   6.476334
    15  H    5.483105   6.964098   3.572586   3.073423   4.206452
    16  O    6.182534   7.362593   3.636230   4.010621   5.126366
    17  H    6.667473   7.864295   4.240472   4.466979   5.567201
                   11         12         13         14         15
    11  O    0.000000
    12  H    3.826867   0.000000
    13  O    4.407383   0.977031   0.000000
    14  H    5.018668   1.562508   0.961356   0.000000
    15  H    1.998774   2.298163   3.152936   3.733361   0.000000
    16  O    2.959635   1.786011   2.750099   3.251222   0.966497
    17  H    3.426839   2.413845   3.345135   3.911935   1.548298
                   16         17
    16  O    0.000000
    17  H    0.962091   0.000000
 Stoichiometry    C3H7N3O4
 Framework group  C1[X(C3H7N3O4)]
 Deg. of freedom    45
 Full point group                 C1      NOp   1
 Largest Abelian subgroup         C1      NOp   1
 Largest concise Abelian subgroup C1      NOp   1
                         Standard orientation:                         
 ---------------------------------------------------------------------
 Center     Atomic      Atomic             Coordinates (Angstroms)
 Number     Number       Type             X           Y           Z
 ---------------------------------------------------------------------
      1          7           0        1.042313   -1.092222   -0.028384
      2          7           0        0.872774    0.216033    0.004080
      3          6           0        2.111976    0.697652    0.116196
      4          6           0        2.997961   -0.388218    0.145896
      5          7           0        2.285475   -1.511297    0.051378
      6          1           0        2.293861    1.760178    0.165580
      7          1           0        4.073251   -0.413609    0.226929
      8          1           0        0.248969   -1.741025   -0.118354
      9          6           0       -0.911060    2.285060   -0.118769
     10          8           0        0.016391    2.981242   -0.113265
     11          8           0       -1.890457    1.652203   -0.126848
     12          1           0       -2.046172   -2.171280   -0.086331
     13          8           0       -1.246921   -2.705931   -0.259356
     14          1           0       -1.433567   -3.265441   -1.018511
     15          1           0       -2.881366   -0.050775    0.209405
     16          8           0       -3.270794   -0.930509    0.301767
     17          1           0       -3.717926   -0.948648    1.153449
 ---------------------------------------------------------------------
 Rotational constants (GHZ):           1.0911338           0.8681656           0.4892259
 Standard basis: 6-31+G(d,p) (6D, 7F)
 There are   225 symmetry adapted cartesian basis functions of A   symmetry.
 There are   225 symmetry adapted basis functions of A   symmetry.
   225 basis functions,   369 primitive gaussians,   225 cartesian basis functions
    39 alpha electrons       39 beta electrons
       nuclear repulsion energy       510.1477278288 Hartrees.
 NAtoms=   17 NActive=   17 NUniq=   17 SFac= 1.00D+00 NAtFMM=   60 NAOKFM=F Big=F
 Integral buffers will be    131072 words long.
 Raffenetti 2 integral format.
 Two-electron integral symmetry is turned on.
 One-electron integrals computed using PRISM.
 NBasis=   225 RedAO= T EigKep=  2.88D-05  NBF=   225
 NBsUse=   225 1.00D-06 EigRej= -1.00D+00 NBFU=   225
 ExpMin= 4.38D-02 ExpMax= 5.48D+03 ExpMxC= 8.25D+02 IAcc=3 IRadAn=         5 AccDes= 0.00D+00
 Harris functional with IExCor= 1009 and IRadAn=       5 diagonalized for initial guess.
 HarFok:  IExCor= 1009 AccDes= 0.00D+00 IRadAn=         5 IDoV= 1 UseB2=F ITyADJ=14
 ICtDFT=  3500011 ScaDFX=  1.000000  1.000000  1.000000  1.000000
 FoFCou: FMM=F IPFlag=           0 FMFlag=      100000 FMFlg1=           0
         NFxFlg=           0 DoJE=T BraDBF=F KetDBF=T FulRan=T
         wScrn=  0.000000 ICntrl=       500 IOpCl=  0 I1Cent=   200000004 NGrid=           0
         NMat0=    1 NMatS0=      1 NMatT0=    0 NMatD0=    1 NMtDS0=    0 NMtDT0=    0
 Petite list used in FoFCou.
 Requested convergence on RMS density matrix=1.00D-08 within 128 cycles.
 Requested convergence on MAX density matrix=1.00D-06.
 Requested convergence on             energy=1.00D-06.
 No special actions if energy rises.
 SCF Done:  E(RM062X) =  -583.492213953     A.U. after   14 cycles
            NFock= 14  Conv=0.45D-08     -V/T= 2.0083

 **********************************************************************

            Population analysis using the SCF density.

 **********************************************************************

 Orbital symmetries:
       Occupied  (A) (A) (A) (A) (A) (A) (A) (A) (A) (A) (A) (A)
                 (A) (A) (A) (A) (A) (A) (A) (A) (A) (A) (A) (A)
                 (A) (A) (A) (A) (A) (A) (A) (A) (A) (A) (A) (A)
                 (A) (A) (A)
       Virtual   (A) (A) (A) (A) (A) (A) (A) (A) (A) (A) (A) (A)
                 (A) (A) (A) (A) (A) (A) (A) (A) (A) (A) (A) (A)
                 (A) (A) (A) (A) (A) (A) (A) (A) (A) (A) (A) (A)
                 (A) (A) (A) (A) (A) (A) (A) (A) (A) (A) (A) (A)
                 (A) (A) (A) (A) (A) (A) (A) (A) (A) (A) (A) (A)
                 (A) (A) (A) (A) (A) (A) (A) (A) (A) (A) (A) (A)
                 (A) (A) (A) (A) (A) (A) (A) (A) (A) (A) (A) (A)
                 (A) (A) (A) (A) (A) (A) (A) (A) (A) (A) (A) (A)
                 (A) (A) (A) (A) (A) (A) (A) (A) (A) (A) (A) (A)
                 (A) (A) (A) (A) (A) (A) (A) (A) (A) (A) (A) (A)
                 (A) (A) (A) (A) (A) (A) (A) (A) (A) (A) (A) (A)
                 (A) (A) (A) (A) (A) (A) (A) (A) (A) (A) (A) (A)
                 (A) (A) (A) (A) (A) (A) (A) (A) (A) (A) (A) (A)
                 (A) (A) (A) (A) (A) (A) (A) (A) (A) (A) (A) (A)
                 (A) (A) (A) (A) (A) (A) (A) (A) (A) (A) (A) (A)
                 (A) (A) (A) (A) (A) (A)
 The electronic state is 1-A.
 Alpha  occ. eigenvalues --  -19.74060 -19.73845 -19.67488 -19.65163 -14.86040
 Alpha  occ. eigenvalues --  -14.80238 -14.79709 -10.76341 -10.57507 -10.57246
 Alpha  occ. eigenvalues --   -1.30190  -1.25187  -1.22404  -1.16132  -1.13477
 Alpha  occ. eigenvalues --   -0.99532  -0.91811  -0.71052  -0.70762  -0.67872
 Alpha  occ. eigenvalues --   -0.63867  -0.62981  -0.62170  -0.61156  -0.61143
 Alpha  occ. eigenvalues --   -0.60068  -0.54835  -0.52822  -0.51070  -0.50273
 Alpha  occ. eigenvalues --   -0.46488  -0.45371  -0.45304  -0.42332  -0.40554
 Alpha  occ. eigenvalues --   -0.39485  -0.36726  -0.34798  -0.32394
 Alpha virt. eigenvalues --    0.00211   0.03350   0.03621   0.03691   0.04232
 Alpha virt. eigenvalues --    0.05367   0.05916   0.06979   0.07166   0.07817
 Alpha virt. eigenvalues --    0.07901   0.08937   0.09173   0.10041   0.10776
 Alpha virt. eigenvalues --    0.13530   0.14550   0.14696   0.15474   0.15950
 Alpha virt. eigenvalues --    0.16561   0.17236   0.18153   0.19058   0.21329
 Alpha virt. eigenvalues --    0.21654   0.22972   0.23399   0.24304   0.24522
 Alpha virt. eigenvalues --    0.24765   0.25742   0.25989   0.26497   0.26997
 Alpha virt. eigenvalues --    0.27436   0.28492   0.28625   0.30157   0.30423
 Alpha virt. eigenvalues --    0.31903   0.32595   0.33413   0.33930   0.34337
 Alpha virt. eigenvalues --    0.35374   0.35796   0.36697   0.38241   0.40104
 Alpha virt. eigenvalues --    0.42201   0.42731   0.43994   0.44593   0.45806
 Alpha virt. eigenvalues --    0.52579   0.57248   0.72616   0.73926   0.75301
 Alpha virt. eigenvalues --    0.77402   0.78015   0.80678   0.88068   0.92095
 Alpha virt. eigenvalues --    0.93257   0.94370   0.94842   0.95454   0.96650
 Alpha virt. eigenvalues --    0.98720   1.00346   1.02351   1.03176   1.03959
 Alpha virt. eigenvalues --    1.04325   1.05729   1.08591   1.10783   1.11348
 Alpha virt. eigenvalues --    1.15529   1.16701   1.17867   1.19079   1.19627
 Alpha virt. eigenvalues --    1.20506   1.22678   1.22941   1.24022   1.27366
 Alpha virt. eigenvalues --    1.28055   1.28740   1.30241   1.31057   1.33095
 Alpha virt. eigenvalues --    1.33632   1.35614   1.38083   1.38808   1.40158
 Alpha virt. eigenvalues --    1.43643   1.44639   1.45192   1.47537   1.48289
 Alpha virt. eigenvalues --    1.51170   1.52241   1.56089   1.57218   1.58256
 Alpha virt. eigenvalues --    1.59521   1.60049   1.61336   1.63849   1.65473
 Alpha virt. eigenvalues --    1.66772   1.67939   1.77493   1.77642   1.81303
 Alpha virt. eigenvalues --    1.82722   1.91822   1.95016   1.98137   2.05800
 Alpha virt. eigenvalues --    2.07213   2.08910   2.10057   2.17125   2.18490
 Alpha virt. eigenvalues --    2.19535   2.21649   2.22024   2.24779   2.26033
 Alpha virt. eigenvalues --    2.27734   2.28678   2.30586   2.33793   2.35420
 Alpha virt. eigenvalues --    2.42874   2.45066   2.46215   2.54287   2.56052
 Alpha virt. eigenvalues --    2.57117   2.61755   2.62755   2.64407   2.65124
 Alpha virt. eigenvalues --    2.67223   2.68266   2.70416   2.70849   2.73863
 Alpha virt. eigenvalues --    2.74507   2.77069   2.82677   2.84868   2.92868
 Alpha virt. eigenvalues --    3.02764   3.04302   3.04587   3.05946   3.07472
 Alpha virt. eigenvalues --    3.14578   3.16060   3.30905   3.33650   3.38247
 Alpha virt. eigenvalues --    3.40940   3.46546   3.58117   3.62304   3.64695
 Alpha virt. eigenvalues --    3.73526   4.05277   4.17910   4.22386   4.25443
 Alpha virt. eigenvalues --    4.31019   4.43681   4.47958   4.67606   4.69510
 Alpha virt. eigenvalues --    4.95914
          Condensed to atoms (all electrons):
               1          2          3          4          5          6
     1  N    7.377809  -0.340904  -0.015599  -0.012468  -0.165875   0.027970
     2  N   -0.340904   7.383147   0.169763   0.038520   0.137536  -0.065375
     3  C   -0.015599   0.169763   5.872828  -0.300791  -0.046904   0.395806
     4  C   -0.012468   0.038520  -0.300791   5.880407   0.290479  -0.016326
     5  N   -0.165875   0.137536  -0.046904   0.290479   6.987602  -0.012001
     6  H    0.027970  -0.065375   0.395806  -0.016326  -0.012001   0.489798
     7  H    0.037204  -0.026477  -0.004861   0.381372  -0.062421   0.000505
     8  H    0.308656  -0.049014   0.012441   0.006831  -0.024069  -0.000049
     9  C    0.001912  -0.009975  -0.012139  -0.015519   0.002840  -0.000045
    10  O    0.007138   0.001784  -0.035340   0.040446  -0.004020  -0.002165
    11  O   -0.004636   0.014517   0.003377  -0.009900   0.002335  -0.000357
    12  H   -0.006727   0.009294   0.000050   0.000150  -0.002376  -0.000000
    13  O   -0.047996  -0.029491   0.010725  -0.010842   0.039666   0.000029
    14  H    0.004229   0.003496  -0.000704   0.000796  -0.004680  -0.000000
    15  H   -0.000008   0.000260  -0.000690   0.000438  -0.000160   0.000000
    16  O    0.011027  -0.012335   0.001769  -0.001245   0.003151  -0.000001
    17  H   -0.000919   0.000593  -0.000174   0.000149  -0.000241   0.000000
               7          8          9         10         11         12
     1  N    0.037204   0.308656   0.001912   0.007138  -0.004636  -0.006727
     2  N   -0.026477  -0.049014  -0.009975   0.001784   0.014517   0.009294
     3  C   -0.004861   0.012441  -0.012139  -0.035340   0.003377   0.000050
     4  C    0.381372   0.006831  -0.015519   0.040446  -0.009900   0.000150
     5  N   -0.062421  -0.024069   0.002840  -0.004020   0.002335  -0.002376
     6  H    0.000505  -0.000049  -0.000045  -0.002165  -0.000357  -0.000000
     7  H    0.501009  -0.000025   0.000063  -0.000032  -0.000002  -0.000000
     8  H   -0.000025   0.297646   0.000531   0.000060  -0.000097  -0.000022
     9  C    0.000063   0.000531   4.342905   0.425890   0.442936   0.000017
    10  O   -0.000032   0.000060   0.425890   8.025808  -0.120514   0.000021
    11  O   -0.000002  -0.000097   0.442936  -0.120514   8.113703   0.000084
    12  H   -0.000000  -0.000022   0.000017   0.000021   0.000084   0.273768
    13  O    0.000025  -0.009670  -0.001624  -0.000037  -0.000384   0.276923
    14  H   -0.000000  -0.001093   0.000016  -0.000001   0.000029  -0.019067
    15  H   -0.000000  -0.000000   0.000339  -0.000114   0.012064  -0.000324
    16  O    0.000000   0.000425  -0.004070  -0.000448   0.001326  -0.003269
    17  H   -0.000000  -0.000006   0.000530  -0.000003  -0.000530  -0.001280
              13         14         15         16         17
     1  N   -0.047996   0.004229  -0.000008   0.011027  -0.000919
     2  N   -0.029491   0.003496   0.000260  -0.012335   0.000593
     3  C    0.010725  -0.000704  -0.000690   0.001769  -0.000174
     4  C   -0.010842   0.000796   0.000438  -0.001245   0.000149
     5  N    0.039666  -0.004680  -0.000160   0.003151  -0.000241
     6  H    0.000029  -0.000000   0.000000  -0.000001   0.000000
     7  H    0.000025  -0.000000  -0.000000   0.000000  -0.000000
     8  H   -0.009670  -0.001093  -0.000000   0.000425  -0.000006
     9  C   -0.001624   0.000016   0.000339  -0.004070   0.000530
    10  O   -0.000037  -0.000001  -0.000114  -0.000448  -0.000003
    11  O   -0.000384   0.000029   0.012064   0.001326  -0.000530
    12  H    0.276923  -0.019067  -0.000324  -0.003269  -0.001280
    13  O    8.361243   0.286971   0.001632  -0.041922   0.003042
    14  H    0.286971   0.344032  -0.000014   0.002261  -0.000031
    15  H    0.001632  -0.000014   0.302877   0.262750  -0.018742
    16  O   -0.041922   0.002261   0.262750   8.319879   0.287823
    17  H    0.003042  -0.000031  -0.018742   0.287823   0.337795
 Mulliken charges:
               1
     1  N   -0.180815
     2  N   -0.225338
     3  C   -0.049557
     4  C   -0.272497
     5  N   -0.140862
     6  H    0.182212
     7  H    0.173641
     8  H    0.457455
     9  C    0.825393
    10  O   -0.338470
    11  O   -0.453952
    12  H    0.472757
    13  O   -0.838291
    14  H    0.383759
    15  H    0.439693
    16  O   -0.827120
    17  H    0.391993
 Sum of Mulliken charges =  -0.00000
 Mulliken charges with hydrogens summed into heavy atoms:
               1
     1  N    0.276641
     2  N   -0.225338
     3  C    0.132655
     4  C   -0.098857
     5  N   -0.140862
     9  C    0.825393
    10  O   -0.338470
    11  O   -0.453952
    13  O    0.018225
    16  O    0.004566
 Electronic spatial extent (au):  <R**2>=           2113.3561
 Charge=             -0.0000 electrons
 Dipole moment (field-independent basis, Debye):
    X=             -2.4186    Y=              1.2635    Z=              0.3546  Tot=              2.7517
 Quadrupole moment (field-independent basis, Debye-Ang):
   XX=            -50.9989   YY=            -59.2064   ZZ=            -55.7946
   XY=              5.1520   XZ=             -3.7758   YZ=              3.7890
 Traceless Quadrupole moment (field-independent basis, Debye-Ang):
   XX=              4.3344   YY=             -3.8731   ZZ=             -0.4613
   XY=              5.1520   XZ=             -3.7758   YZ=              3.7890
 Octapole moment (field-independent basis, Debye-Ang**2):
  XXX=            -22.2640  YYY=             -5.6154  ZZZ=             -0.4117  XYY=            -32.7405
  XXY=              8.0324  XXZ=             24.4351  XZZ=            -24.2593  YZZ=             -5.6164
  YYZ=            -16.4167  XYZ=             -1.0196
 Hexadecapole moment (field-independent basis, Debye-Ang**3):
 XXXX=          -1293.3350 YYYY=          -1076.2637 ZZZZ=            -65.8429 XXXY=             63.4882
 XXXZ=            -88.0658 YYYX=             53.4460 YYYZ=             64.6572 ZZZX=            -14.7715
 ZZZY=              4.8947 XXYY=           -422.3703 XXZZ=           -228.9967 YYZZ=           -168.8116
 XXYZ=            -10.0527 YYXZ=             19.7482 ZZXY=             19.5353
 N-N= 5.101477278288D+02 E-N=-2.387182770866D+03  KE= 5.787084090483D+02
 Calling FoFJK, ICntrl=      2127 FMM=F ISym2X=0 I1Cent= 0 IOpClX= 0 NMat=1 NMatS=1 NMatT=0.
 ***** Axes restored to original set *****
 -------------------------------------------------------------------
 Center     Atomic                   Forces (Hartrees/Bohr)
 Number     Number              X              Y              Z
 -------------------------------------------------------------------
      1        7           0.000099484    0.000077141   -0.000072936
      2        7           0.000117707    0.000265785    0.000041283
      3        6           0.000112180   -0.000017009   -0.000037647
      4        6          -0.000054606    0.000022019    0.000028382
      5        7           0.000031021   -0.000019236   -0.000008509
      6        1           0.000004350    0.000040019    0.000018152
      7        1           0.000002903   -0.000003419   -0.000005532
      8        1          -0.000210655   -0.000058804    0.000047260
      9        6           0.000150555   -0.000038297   -0.000008007
     10        8          -0.000248783   -0.000212196    0.000021053
     11        8          -0.000095962   -0.000036785   -0.000129221
     12        1           0.000046451    0.000063173   -0.000161758
     13        8           0.000063021   -0.000044323    0.000091796
     14        1           0.000032216    0.000022695    0.000008804
     15        1           0.000111226   -0.000220639    0.000345172
     16        8          -0.000134745    0.000111259   -0.000123288
     17        1          -0.000026365    0.000048616   -0.000055005
 -------------------------------------------------------------------
 Cartesian Forces:  Max     0.000345172 RMS     0.000110129

 GradGradGradGradGradGradGradGradGradGradGradGradGradGradGradGradGradGrad
 Berny optimization.
 FormGI is forming the generalized inverse of G from B-inverse, IUseBI=4.
 Internal  Forces:  Max     0.002552004 RMS     0.000673480
 Search for a local minimum.
 Step number   1 out of a maximum of   75
 All quantities printed in internal units (Hartrees-Bohrs-Radians)
 Mixed Optimization -- En-DIIS/RFO-DIIS
 Second derivative matrix not updated -- first step.
 ITU=  0
     Eigenvalues ---    0.00230   0.00230   0.00230   0.00230   0.00230
     Eigenvalues ---    0.00230   0.00230   0.01369   0.01468   0.01586
     Eigenvalues ---    0.02151   0.02165   0.02260   0.02320   0.02442
     Eigenvalues ---    0.03381   0.04315   0.04786   0.04786   0.06276
     Eigenvalues ---    0.06280   0.12295   0.12840   0.15998   0.16000
     Eigenvalues ---    0.16000   0.16000   0.16000   0.16000   0.22616
     Eigenvalues ---    0.23228   0.36102   0.36159   0.41979   0.42962
     Eigenvalues ---    0.51960   0.53165   0.54099   0.55026   0.55183
     Eigenvalues ---    0.56304   0.59559   0.62111   1.23882   1.28001
 RFO step:  Lambda=-2.46735767D-03 EMin= 2.30000000D-03
 Linear search not attempted -- first point.
 Maximum step size (   0.300) exceeded in Quadratic search.
    -- Step size scaled by   0.470
 Iteration  1 RMS(Cart)=  0.36610813 RMS(Int)=  0.02055182
 Iteration  2 RMS(Cart)=  0.27205528 RMS(Int)=  0.00586055
 Iteration  3 RMS(Cart)=  0.01291903 RMS(Int)=  0.00079896
 Iteration  4 RMS(Cart)=  0.00002006 RMS(Int)=  0.00079896
 Iteration  5 RMS(Cart)=  0.00000003 RMS(Int)=  0.00079896
 Variable       Old X    -DE/DX   Delta X   Delta X   Delta X     New X
                                 (Linear)    (Quad)   (Total)
    R1        2.49367  -0.00023   0.00000  -0.00018  -0.00018   2.49349
    R2        2.48371   0.00005   0.00000   0.00003   0.00003   2.48374
    R3        1.94416   0.00002   0.00000   0.00002   0.00001   1.94416
    R4        2.52131   0.00009   0.00000   0.00007   0.00007   2.52139
    R5        2.64897  -0.00009   0.00000  -0.00009  -0.00009   2.64888
    R6        2.03923  -0.00004   0.00000  -0.00005  -0.00005   2.03917
    R7        2.51970  -0.00009   0.00000  -0.00007  -0.00007   2.51964
    R8        2.03833   0.00000   0.00000   0.00000   0.00000   2.03833
    R9        3.37443  -0.00008   0.00000  -0.00061  -0.00061   3.37382
   R10        2.19148  -0.00007   0.00000  -0.00003  -0.00003   2.19146
   R11        2.20361   0.00005   0.00000   0.00002   0.00002   2.20363
   R12        3.77714   0.00013   0.00000   0.00131   0.00131   3.77844
   R13        1.84632   0.00035   0.00000   0.00031   0.00029   1.84662
   R14        3.37507   0.00040   0.00000   0.00287   0.00288   3.37795
   R15        1.81670   0.00001   0.00000   0.00001   0.00001   1.81671
   R16        1.82641   0.00045   0.00000   0.00039   0.00039   1.82681
   R17        1.81809   0.00006   0.00000   0.00005   0.00005   1.81814
    A1        2.02210  -0.00004   0.00000  -0.00010  -0.00010   2.02200
    A2        2.12739   0.00032   0.00000   0.00090   0.00090   2.12829
    A3        2.13366  -0.00027   0.00000  -0.00080  -0.00079   2.13287
    A4        1.81379   0.00004   0.00000   0.00007   0.00007   1.81386
    A5        1.88514  -0.00001   0.00000  -0.00001  -0.00001   1.88512
    A6        2.11276   0.00002   0.00000   0.00004   0.00003   2.11279
    A7        2.28529  -0.00000   0.00000  -0.00002  -0.00002   2.28527
    A8        1.88939  -0.00004   0.00000  -0.00006  -0.00006   1.88933
    A9        2.27826   0.00001   0.00000   0.00002   0.00002   2.27828
   A10        2.11553   0.00002   0.00000   0.00004   0.00004   2.11557
   A11        1.81435   0.00006   0.00000   0.00011   0.00011   1.81446
   A12        2.64166   0.00125   0.00000   0.00361   0.00361   2.64527
   A13        1.95585   0.00183   0.00000   0.00546   0.00614   1.96199
   A14        2.14063  -0.00076   0.00000  -0.00218   0.00071   2.14133
   A15        1.87497  -0.00080   0.00000  -0.00202  -0.00215   1.87282
   A16        1.91273   0.00226   0.00000   0.00754   0.00726   1.91998
   A17        2.09201  -0.00076   0.00000  -0.00093  -0.00069   2.09132
   A18        1.86400  -0.00089   0.00000  -0.00138  -0.00215   1.86185
   A19        3.02943   0.00142   0.00000   0.14255   0.14188   3.17131
   A20        3.21186   0.00070   0.00000   0.00654   0.00654   3.21840
   A21        2.94105   0.00255   0.00000   0.25447   0.25488   3.19594
   A22        3.03018   0.00235   0.00000   0.06609   0.06629   3.09647
   A23        3.15101  -0.00012   0.00000  -0.00798  -0.00776   3.14325
   A24        3.14211   0.00003   0.00000   0.00027   0.00027   3.14238
   A25        3.17072  -0.00008   0.00000  -0.01261  -0.01087   3.15986
   A26        3.21332  -0.00040   0.00000  -0.00916  -0.00889   3.20443
    D1       -0.00112  -0.00000   0.00000   0.00007   0.00049  -0.00063
    D2       -3.13435   0.00002   0.00000   0.00011  -0.00051  -3.13486
    D3        0.00121   0.00000   0.00000  -0.00012  -0.00054   0.00068
    D4        3.13442  -0.00002   0.00000  -0.00015   0.00048   3.13489
    D5       -0.23572  -0.00026   0.00000  -0.02221  -0.02409  -0.25982
    D6        2.00876   0.00019   0.00000   0.01275   0.01345   2.02220
    D7        2.90652  -0.00023   0.00000  -0.01685  -0.01754   2.88898
    D8       -1.13218   0.00022   0.00000   0.01812   0.02000  -1.11219
    D9        0.00053   0.00001   0.00000   0.00001  -0.00023   0.00030
   D10        3.13989  -0.00001   0.00000  -0.00018  -0.00031   3.13958
   D11        0.00016  -0.00000   0.00000  -0.00008  -0.00008   0.00008
   D12        3.14085  -0.00000   0.00000  -0.00000   0.00011   3.14096
   D13       -3.13891   0.00001   0.00000   0.00013   0.00002  -3.13889
   D14        0.00178   0.00001   0.00000   0.00021   0.00021   0.00199
   D15       -0.00078   0.00000   0.00000   0.00011   0.00035  -0.00043
   D16       -3.14156   0.00000   0.00000   0.00005   0.00018  -3.14139
   D17       -0.53760  -0.00045   0.00000  -0.02054  -0.01972  -0.55733
   D18        1.74671   0.00025   0.00000   0.00087   0.00005   1.74676
   D19        0.29889   0.00076   0.00000   0.06848   0.06693   0.36582
   D20       -1.81499  -0.00003   0.00000   0.00805   0.00552  -1.80946
   D21       -2.07264   0.00028   0.00000   0.01567   0.01819  -2.05445
   D22        2.09667  -0.00051   0.00000  -0.04476  -0.04322   2.05345
         Item               Value     Threshold  Converged?
 Maximum Force            0.002552     0.000450     NO 
 RMS     Force            0.000673     0.000300     NO 
 Maximum Displacement     2.422515     0.001800     NO 
 RMS     Displacement     0.628226     0.001200     NO 
 Predicted change in Energy=-1.007860D-03
 GradGradGradGradGradGradGradGradGradGradGradGradGradGradGradGradGradGrad

                          Input orientation:                          
 ---------------------------------------------------------------------
 Center     Atomic      Atomic             Coordinates (Angstroms)
 Number     Number       Type             X           Y           Z
 ---------------------------------------------------------------------
      1          7           0        1.319161    1.139124    0.001934
      2          7           0        1.410464   -0.177135   -0.012406
      3          6           0        2.720686   -0.407034   -0.115921
      4          6           0        3.375848    0.831381   -0.159860
      5          7           0        2.455930    1.793429   -0.082452
      6          1           0        3.108255   -1.413546   -0.149822
      7          1           0        4.425452    1.066751   -0.239841
      8          1           0        0.413691    1.621093    0.081135
      9          6           0       -1.948858   -2.772326    0.175823
     10          8           0       -1.265548   -3.709298    0.173818
     11          8           0       -2.706158   -1.885603    0.181918
     12          1           0       -1.904901    1.930392    0.045805
     13          8           0       -1.132217    2.504040    0.215458
     14          1           0       -1.348824    3.059987    0.969262
     15          1           0       -3.180806    0.023662   -0.174842
     16          8           0       -3.372210    0.964738   -0.285559
     17          1           0       -3.825257    1.056932   -1.129313
 ---------------------------------------------------------------------
                    Distance matrix (angstroms):
                    1          2          3          4          5
     1  N    0.000000
     2  N    1.319500   0.000000
     3  C    2.090161   1.334260   0.000000
     4  C    2.085868   2.213951   1.401727   0.000000
     5  N    1.314336   2.231821   2.216587   1.333334   0.000000
     6  H    3.120900   2.104778   1.079085   2.260841   3.273340
     7  H    3.116527   3.269423   2.256906   1.078640   2.105196
     8  H    1.028806   2.058138   3.078045   3.075077   2.056016
     9  C    5.099963   4.249176   5.242553   6.438313   6.349408
    10  O    5.497041   4.435301   5.184492   6.501666   6.647938
    11  O    5.038309   4.461301   5.632540   6.670053   6.344472
    12  H    3.320030   3.928957   5.185149   5.397818   4.364866
    13  O    2.813865   3.702140   4.840354   4.822997   3.669947
    14  H    3.426890   4.365352   5.455160   5.344542   4.145651
    15  H    4.639526   4.598529   5.917481   6.606235   5.908756
    16  O    4.703406   4.924679   6.247714   6.750546   5.890263
    17  H    5.267970   5.493923   6.783770   7.269569   6.410278
                    6          7          8          9         10
     6  H    0.000000
     7  H    2.809801   0.000000
     8  H    4.064856   4.062579   0.000000
     9  C    5.246591   7.452725   4.989262   0.000000
    10  O    4.950290   7.441051   5.589410   1.159669   0.000000
    11  O    5.842969   7.730080   4.694734   1.166113   2.324067
    12  H    6.029256   6.395376   2.339398   4.704721   5.677259
    13  O    5.784678   5.758539   1.785348   5.339336   6.214908
    14  H    6.413298   6.227133   2.442466   5.916542   6.816369
    15  H    6.451239   7.677722   3.941791   3.075421   4.210080
    16  O    6.904426   7.798464   3.859833   4.025476   5.147395
    17  H    7.425379   8.298522   4.444339   4.459538   5.564819
                   11         12         13         14         15
    11  O    0.000000
    12  H    3.901584   0.000000
    13  O    4.663409   0.977187   0.000000
    14  H    5.188557   1.561403   0.961362   0.000000
    15  H    1.999466   2.304829   3.240575   3.726178   0.000000
    16  O    2.964221   1.787536   2.763700   3.171551   0.966705
    17  H    3.410311   2.414871   3.339910   3.814311   1.547249
                   16         17
    16  O    0.000000
    17  H    0.962118   0.000000
 Stoichiometry    C3H7N3O4
 Framework group  C1[X(C3H7N3O4)]
 Deg. of freedom    45
 Full point group                 C1      NOp   1
 Largest Abelian subgroup         C1      NOp   1
 Largest concise Abelian subgroup C1      NOp   1
                         Standard orientation:                         
 ---------------------------------------------------------------------
 Center     Atomic      Atomic             Coordinates (Angstroms)
 Number     Number       Type             X           Y           Z
 ---------------------------------------------------------------------
      1          7           0        1.826935   -0.384173   -0.039675
      2          7           0        1.291046    0.820727    0.006372
      3          6           0        2.342547    1.636362    0.102997
      4          6           0        3.502387    0.849240    0.109989
      5          7           0        3.139211   -0.430348    0.017599
      6          1           0        2.213857    2.706328    0.158093
      7          1           0        4.541275    1.132209    0.174065
      8          1           0        1.251512   -1.233016   -0.122110
      9          6           0       -2.895741    1.540372   -0.085379
     10          8           0       -2.731293    2.688170   -0.066720
     11          8           0       -3.149165    0.402320   -0.106172
     12          1           0       -0.650564   -2.594046   -0.072250
     13          8           0        0.297266   -2.735316   -0.263442
     14          1           0        0.351362   -3.314727   -1.028670
     15          1           0       -2.666502   -1.512454    0.207739
     16          8           0       -2.392325   -2.435160    0.296953
     17          1           0       -2.732313   -2.743688    1.142465
 ---------------------------------------------------------------------
 Rotational constants (GHZ):           1.1026607           0.5366308           0.3638977
 Standard basis: 6-31+G(d,p) (6D, 7F)
 There are   225 symmetry adapted cartesian basis functions of A   symmetry.
 There are   225 symmetry adapted basis functions of A   symmetry.
   225 basis functions,   369 primitive gaussians,   225 cartesian basis functions
    39 alpha electrons       39 beta electrons
       nuclear repulsion energy       475.1693478634 Hartrees.
 NAtoms=   17 NActive=   17 NUniq=   17 SFac= 1.00D+00 NAtFMM=   60 NAOKFM=F Big=F
 Integral buffers will be    131072 words long.
 Raffenetti 2 integral format.
 Two-electron integral symmetry is turned on.
 One-electron integrals computed using PRISM.
 NBasis=   225 RedAO= T EigKep=  5.65D-05  NBF=   225
 NBsUse=   225 1.00D-06 EigRej= -1.00D+00 NBFU=   225
 Initial guess from the checkpoint file:  "/scratch/gongke2021/RC/Gau-20966.chk"
 B after Tr=     0.000000    0.000000   -0.000000
         Rot=    0.964154   -0.007824   -0.007755   -0.265115 Ang= -30.77 deg.
 ExpMin= 4.38D-02 ExpMax= 5.48D+03 ExpMxC= 8.25D+02 IAcc=2 IRadAn=         4 AccDes= 0.00D+00
 Harris functional with IExCor= 1009 and IRadAn=       4 diagonalized for initial guess.
 HarFok:  IExCor= 1009 AccDes= 0.00D+00 IRadAn=         4 IDoV= 1 UseB2=F ITyADJ=14
 ICtDFT=  3500011 ScaDFX=  1.000000  1.000000  1.000000  1.000000
 FoFCou: FMM=F IPFlag=           0 FMFlag=      100000 FMFlg1=           0
         NFxFlg=           0 DoJE=T BraDBF=F KetDBF=T FulRan=T
         wScrn=  0.000000 ICntrl=       500 IOpCl=  0 I1Cent=   200000004 NGrid=           0
         NMat0=    1 NMatS0=      1 NMatT0=    0 NMatD0=    1 NMtDS0=    0 NMtDT0=    0
 Petite list used in FoFCou.
 Requested convergence on RMS density matrix=1.00D-08 within 128 cycles.
 Requested convergence on MAX density matrix=1.00D-06.
 Requested convergence on             energy=1.00D-06.
 No special actions if energy rises.
 SCF Done:  E(RM062X) =  -583.484754232     A.U. after   15 cycles
            NFock= 15  Conv=0.27D-08     -V/T= 2.0083
 Calling FoFJK, ICntrl=      2127 FMM=F ISym2X=0 I1Cent= 0 IOpClX= 0 NMat=1 NMatS=1 NMatT=0.
 ***** Axes restored to original set *****
 -------------------------------------------------------------------
 Center     Atomic                   Forces (Hartrees/Bohr)
 Number     Number              X              Y              Z
 -------------------------------------------------------------------
      1        7           0.000479753   -0.003336415   -0.000243648
      2        7          -0.002097784   -0.001099723    0.000217207
      3        6          -0.002341548    0.000329300    0.000186222
      4        6           0.000215571    0.000559182    0.000066552
      5        7           0.001445044    0.001813824   -0.000052097
      6        1           0.000236331    0.000286250   -0.000122956
      7        1           0.000052184    0.000177962   -0.000008293
      8        1           0.001916631    0.001492754    0.000177314
      9        6          -0.003477779   -0.009799824    0.000490145
     10        8           0.001854563    0.005738783   -0.000129766
     11        8           0.002958340    0.003864732   -0.000445739
     12        1          -0.001475609    0.004140509    0.000379555
     13        8           0.000655696   -0.002940885   -0.000761607
     14        1          -0.000324971   -0.000279330   -0.000000767
     15        1          -0.001501384    0.000792317    0.000126793
     16        8           0.001362408   -0.002321886    0.000368635
     17        1           0.000042554    0.000582451   -0.000247550
 -------------------------------------------------------------------
 Cartesian Forces:  Max     0.009799824 RMS     0.002183759

 GradGradGradGradGradGradGradGradGradGradGradGradGradGradGradGradGradGrad
 Berny optimization.
 Using GEDIIS/GDIIS optimizer.
 FormGI is forming the generalized inverse of G from B-inverse, IUseBI=4.
 Internal  Forces:  Max     0.011052132 RMS     0.002672492
 Search for a local minimum.
 Step number   2 out of a maximum of   75
 All quantities printed in internal units (Hartrees-Bohrs-Radians)
 Mixed Optimization -- RFO/linear search
 Update second derivatives using D2CorX and points    2    1
 DE=  7.46D-03 DEPred=-1.01D-03 R=-7.40D+00
 Trust test=-7.40D+00 RLast= 3.14D-01 DXMaxT set to 1.50D-01
 ITU= -1  0
 Use linear search instead of GDIIS.
     Eigenvalues ---    0.00228   0.00230   0.00230   0.00230   0.00230
     Eigenvalues ---    0.00230   0.01013   0.01394   0.01569   0.02028
     Eigenvalues ---    0.02164   0.02259   0.02320   0.02442   0.02943
     Eigenvalues ---    0.03185   0.04315   0.04786   0.06261   0.06280
     Eigenvalues ---    0.08505   0.13472   0.13559   0.15956   0.16000
     Eigenvalues ---    0.16000   0.16000   0.16000   0.18903   0.22632
     Eigenvalues ---    0.23945   0.36102   0.36160   0.42003   0.42996
     Eigenvalues ---    0.52042   0.53175   0.54107   0.55027   0.55183
     Eigenvalues ---    0.56357   0.59563   0.62127   1.23952   1.28230
 RFO step:  Lambda=-3.01243145D-04 EMin= 2.28135286D-03
 Quartic linear search produced a step of -0.97019.
 Maximum step size (   0.150) exceeded in Quadratic search.
    -- Step size scaled by   0.992
 Iteration  1 RMS(Cart)=  0.35184792 RMS(Int)=  0.02325070
 Iteration  2 RMS(Cart)=  0.27129687 RMS(Int)=  0.00489752
 Iteration  3 RMS(Cart)=  0.00965179 RMS(Int)=  0.00031154
 Iteration  4 RMS(Cart)=  0.00001047 RMS(Int)=  0.00031153
 Iteration  5 RMS(Cart)=  0.00000001 RMS(Int)=  0.00031153
 Variable       Old X    -DE/DX   Delta X   Delta X   Delta X     New X
                                 (Linear)    (Quad)   (Total)
    R1        2.49349  -0.00050   0.00017  -0.00045  -0.00028   2.49321
    R2        2.48374   0.00122  -0.00003   0.00014   0.00011   2.48384
    R3        1.94416  -0.00116  -0.00001  -0.00005  -0.00004   1.94412
    R4        2.52139  -0.00103  -0.00007   0.00011   0.00004   2.52143
    R5        2.64888   0.00131   0.00008  -0.00012  -0.00004   2.64884
    R6        2.03917  -0.00018   0.00005  -0.00014  -0.00009   2.03909
    R7        2.51964  -0.00068   0.00007  -0.00019  -0.00013   2.51951
    R8        2.03833   0.00009  -0.00000   0.00002   0.00001   2.03835
    R9        3.37382  -0.00020   0.00059  -0.00150  -0.00091   3.37291
   R10        2.19146  -0.00355   0.00003  -0.00015  -0.00012   2.19134
   R11        2.20363   0.00203  -0.00002   0.00010   0.00008   2.20371
   R12        3.77844   0.00049  -0.00127   0.00330   0.00204   3.78048
   R13        1.84662  -0.00168  -0.00029   0.00064   0.00037   1.84699
   R14        3.37795  -0.00044  -0.00280   0.00635   0.00355   3.38150
   R15        1.81671  -0.00009  -0.00001   0.00002   0.00001   1.81672
   R16        1.82681  -0.00063  -0.00038   0.00090   0.00052   1.82733
   R17        1.81814   0.00025  -0.00005   0.00014   0.00009   1.81823
    A1        2.02200   0.00231   0.00010   0.00006   0.00015   2.02216
    A2        2.12829  -0.00308  -0.00087   0.00160   0.00074   2.12903
    A3        2.13287   0.00076   0.00077  -0.00166  -0.00090   2.13197
    A4        1.81386  -0.00179  -0.00006  -0.00009  -0.00015   1.81370
    A5        1.88512   0.00113   0.00001   0.00011   0.00012   1.88524
    A6        2.11279  -0.00023  -0.00003   0.00008   0.00004   2.11284
    A7        2.28527  -0.00090   0.00002  -0.00019  -0.00017   2.28510
    A8        1.88933   0.00008   0.00006  -0.00013  -0.00007   1.88926
    A9        2.27828   0.00013  -0.00002   0.00007   0.00005   2.27833
   A10        2.11557  -0.00020  -0.00004   0.00006   0.00002   2.11559
   A11        1.81446  -0.00173  -0.00010   0.00005  -0.00005   1.81441
   A12        2.64527  -0.00185  -0.00350   0.00813   0.00463   2.64990
   A13        1.96199  -0.00493  -0.00596   0.01221   0.00656   1.96855
   A14        2.14133   0.00223  -0.00069  -0.00348  -0.00290   2.13843
   A15        1.87282   0.00212   0.00209  -0.00436  -0.00251   1.87031
   A16        1.91998  -0.00461  -0.00704   0.01648   0.00921   1.92919
   A17        2.09132   0.00121   0.00067  -0.00226  -0.00207   2.08924
   A18        1.86185   0.00269   0.00209  -0.00323  -0.00132   1.86053
   A19        3.17131  -0.00749  -0.13765  -0.05439  -0.19227   2.97904
   A20        3.21840  -0.01070  -0.00635   0.00809   0.00174   3.22014
   A21        3.19594  -0.01105  -0.24728  -0.06579  -0.31270   2.88324
   A22        3.09647  -0.00648  -0.06432   0.11857   0.05414   3.15061
   A23        3.14325   0.00038   0.00753   0.00379   0.01136   3.15461
   A24        3.14238   0.00008  -0.00026   0.00066   0.00040   3.14278
   A25        3.15986  -0.00073   0.01054  -0.00932   0.00173   3.16158
   A26        3.20443  -0.00045   0.00862  -0.01967  -0.01120   3.19324
    D1       -0.00063  -0.00016  -0.00047   0.00004  -0.00033  -0.00096
    D2       -3.13486   0.00008   0.00050   0.00021   0.00057  -3.13429
    D3        0.00068   0.00012   0.00052  -0.00020   0.00023   0.00091
    D4        3.13489  -0.00013  -0.00046  -0.00035  -0.00067   3.13422
    D5       -0.25982   0.00108   0.02338   0.00722   0.03000  -0.22982
    D6        2.02220  -0.00063  -0.01305  -0.00122  -0.01392   2.00829
    D7        2.88898   0.00079   0.01702   0.00331   0.01998   2.90895
    D8       -1.11219  -0.00092  -0.01940  -0.00514  -0.02394  -1.13613
    D9        0.00030   0.00012   0.00022   0.00012   0.00029   0.00059
   D10        3.13958   0.00011   0.00030  -0.00027  -0.00000   3.13958
   D11        0.00008  -0.00006   0.00008  -0.00025  -0.00017  -0.00009
   D12        3.14096  -0.00003  -0.00011  -0.00002  -0.00011   3.14085
   D13       -3.13889  -0.00005  -0.00002   0.00020   0.00016  -3.13873
   D14        0.00199  -0.00002  -0.00021   0.00043   0.00022   0.00221
   D15       -0.00043  -0.00003  -0.00034   0.00026  -0.00003  -0.00045
   D16       -3.14139  -0.00006  -0.00017   0.00006  -0.00008  -3.14147
   D17       -0.55733   0.00123   0.01914  -0.01400   0.00470  -0.55263
   D18        1.74676  -0.00060  -0.00005   0.01672   0.01710   1.76386
   D19        0.36582  -0.00202  -0.06494  -0.00855  -0.07431   0.29151
   D20       -1.80946  -0.00011  -0.00536  -0.00401  -0.01008  -1.81954
   D21       -2.05445  -0.00071  -0.01764   0.00315  -0.01379  -2.06824
   D22        2.05345   0.00120   0.04193   0.00768   0.05043   2.10389
         Item               Value     Threshold  Converged?
 Maximum Force            0.011052     0.000450     NO 
 RMS     Force            0.002672     0.000300     NO 
 Maximum Displacement     2.213355     0.001800     NO 
 RMS     Displacement     0.618484     0.001200     NO 
 Predicted change in Energy=-5.648962D-03
 GradGradGradGradGradGradGradGradGradGradGradGradGradGradGradGradGradGrad

                          Input orientation:                          
 ---------------------------------------------------------------------
 Center     Atomic      Atomic             Coordinates (Angstroms)
 Number     Number       Type             X           Y           Z
 ---------------------------------------------------------------------
      1          7           0        1.046054    1.158635    0.027155
      2          7           0        0.833627   -0.143154   -0.002942
      3          6           0        2.056197   -0.665274   -0.117065
      4          6           0        2.977268    0.390809   -0.150287
      5          7           0        2.302154    1.536653   -0.056169
      6          1           0        2.203182   -1.733182   -0.164957
      7          1           0        4.052638    0.380819   -0.233709
      8          1           0        0.275762    1.834518    0.117890
      9          6           0       -0.958963   -2.429550    0.109939
     10          8           0       -0.094290   -3.202218    0.106888
     11          8           0       -1.886767   -1.723113    0.116305
     12          1           0       -2.032762    2.237101    0.084278
     13          8           0       -1.234863    2.775319    0.254439
     14          1           0       -1.427470    3.336897    1.010588
     15          1           0       -2.751428    0.055193   -0.187276
     16          8           0       -3.181339    0.915751   -0.285591
     17          1           0       -3.634291    0.901383   -1.134348
 ---------------------------------------------------------------------
                    Distance matrix (angstroms):
                    1          2          3          4          5
     1  N    0.000000
     2  N    1.319350   0.000000
     3  C    2.089937   1.334283   0.000000
     4  C    2.085817   2.214051   1.401708   0.000000
     5  N    1.314393   2.231850   2.216459   1.333266   0.000000
     6  H    3.120651   2.104785   1.079039   2.260699   3.273141
     7  H    3.116504   3.269531   2.256921   1.078647   2.105153
     8  H    1.028786   2.058397   3.078005   3.074793   2.055549
     9  C    4.111206   2.907530   3.500770   4.849335   5.137435
    10  O    4.508190   3.198589   3.333292   4.733968   5.312855
    11  O    4.112646   3.148180   4.089065   5.310233   5.310638
    12  H    3.262738   3.726850   5.018358   5.344551   4.393387
    13  O    2.804979   3.586416   4.775645   4.857133   3.760487
    14  H    3.439518   4.272067   5.424474   5.424831   4.276557
    15  H    3.960358   3.595267   4.861817   5.738638   5.267884
    16  O    4.245898   4.161865   5.473557   6.182420   5.523300
    17  H    4.829172   4.725826   5.989236   6.703863   6.066912
                    6          7          8          9         10
     6  H    0.000000
     7  H    2.809664   0.000000
     8  H    4.064903   4.062223   0.000000
     9  C    3.249563   5.756076   4.439243   0.000000
    10  O    2.740501   5.491009   5.050323   1.159605   0.000000
    11  O    4.099622   6.310751   4.163324   1.166154   2.323965
    12  H    5.811066   6.370165   2.343606   4.788667   5.774459
    13  O    5.685300   5.824911   1.784865   5.214179   6.087169
    14  H    6.345806   6.349666   2.440298   5.855133   6.734543
    15  H    5.267537   6.812012   3.524628   3.078184   4.213981
    16  O    6.002039   7.253914   3.599789   4.035645   5.161548
    17  H    6.477403   7.756998   4.210387   4.449803   5.559839
                   11         12         13         14         15
    11  O    0.000000
    12  H    3.963033   0.000000
    13  O    4.547521   0.977383   0.000000
    14  H    5.158914   1.560122   0.961368   0.000000
    15  H    2.000543   2.313210   3.145500   3.735950   0.000000
    16  O    2.966654   1.789412   2.745614   3.258541   0.966979
    17  H    3.392042   2.415386   3.346285   3.924607   1.546749
                   16         17
    16  O    0.000000
    17  H    0.962165   0.000000
 Stoichiometry    C3H7N3O4
 Framework group  C1[X(C3H7N3O4)]
 Deg. of freedom    45
 Full point group                 C1      NOp   1
 Largest Abelian subgroup         C1      NOp   1
 Largest concise Abelian subgroup C1      NOp   1
                         Standard orientation:                         
 ---------------------------------------------------------------------
 Center     Atomic      Atomic             Coordinates (Angstroms)
 Number     Number       Type             X           Y           Z
 ---------------------------------------------------------------------
      1          7           0        1.261442   -0.950085   -0.030470
      2          7           0        0.803435    0.286873   -0.001339
      3          6           0        1.903495    1.033906    0.108765
      4          6           0        3.010044    0.174072    0.140691
      5          7           0        2.566921   -1.080114    0.049818
      6          1           0        1.843117    2.110263    0.154973
      7          1           0        4.063752    0.390200    0.221116
      8          1           0        0.634808   -1.761270   -0.118259
      9          6           0       -1.394554    2.186961   -0.111975
     10          8           0       -0.694067    3.111082   -0.112247
     11          8           0       -2.169710    1.315731   -0.114921
     12          1           0       -1.553605   -2.598942   -0.077757
     13          8           0       -0.667742   -2.974483   -0.249489
     14          1           0       -0.750988   -3.563859   -1.004429
     15          1           0       -2.676605   -0.594844    0.193184
     16          8           0       -2.933294   -1.521695    0.293720
     17          1           0       -3.378478   -1.592991    1.143714
 ---------------------------------------------------------------------
 Rotational constants (GHZ):           1.0240638           0.8730348           0.4764305
 Standard basis: 6-31+G(d,p) (6D, 7F)
 There are   225 symmetry adapted cartesian basis functions of A   symmetry.
 There are   225 symmetry adapted basis functions of A   symmetry.
   225 basis functions,   369 primitive gaussians,   225 cartesian basis functions
    39 alpha electrons       39 beta electrons
       nuclear repulsion energy       505.9650723982 Hartrees.
 NAtoms=   17 NActive=   17 NUniq=   17 SFac= 1.00D+00 NAtFMM=   60 NAOKFM=F Big=F
 Integral buffers will be    131072 words long.
 Raffenetti 2 integral format.
 Two-electron integral symmetry is turned on.
 One-electron integrals computed using PRISM.
 NBasis=   225 RedAO= T EigKep=  2.81D-05  NBF=   225
 NBsUse=   225 1.00D-06 EigRej= -1.00D+00 NBFU=   225
 Lowest energy guess from the checkpoint file:  "/scratch/gongke2021/RC/Gau-20966.chk"
 B after Tr=     0.000000    0.000000   -0.000000
         Rot=    0.995197   -0.000106   -0.001204   -0.097880 Ang= -11.24 deg.
 B after Tr=     0.000000   -0.000000    0.000000
         Rot=    0.985028    0.006983    0.007118    0.172108 Ang=  19.85 deg.
 Requested convergence on RMS density matrix=1.00D-08 within 128 cycles.
 Requested convergence on MAX density matrix=1.00D-06.
 Requested convergence on             energy=1.00D-06.
 No special actions if energy rises.
 SCF Done:  E(RM062X) =  -583.491115589     A.U. after   12 cycles
            NFock= 12  Conv=0.50D-08     -V/T= 2.0083
 Calling FoFJK, ICntrl=      2127 FMM=F ISym2X=0 I1Cent= 0 IOpClX= 0 NMat=1 NMatS=1 NMatT=0.
 ***** Axes restored to original set *****
 -------------------------------------------------------------------
 Center     Atomic                   Forces (Hartrees/Bohr)
 Number     Number              X              Y              Z
 -------------------------------------------------------------------
      1        7           0.000334016    0.000257751    0.000016981
      2        7          -0.000834057   -0.002205701    0.000087667
      3        6          -0.000202353    0.000554935    0.000023067
      4        6           0.000529809    0.000187190   -0.000030714
      5        7           0.000459359   -0.000390907   -0.000026275
      6        1           0.000306216   -0.000198489   -0.000041446
      7        1           0.000018743    0.000020820   -0.000006128
      8        1          -0.000822502   -0.001125754   -0.000105479
      9        6          -0.005288403    0.000553372    0.000309586
     10        8           0.003578257    0.002612811   -0.000199463
     11        8           0.001576266   -0.000717208   -0.000262870
     12        1           0.001343607   -0.000932123   -0.000251803
     13        8          -0.001083297    0.000804553    0.000387021
     14        1           0.000333099    0.000307680    0.000067191
     15        1           0.000195498    0.000358715    0.000484132
     16        8          -0.000351932   -0.000090528   -0.000471441
     17        1          -0.000092326    0.000002883    0.000019975
 -------------------------------------------------------------------
 Cartesian Forces:  Max     0.005288403 RMS     0.001134648

 GradGradGradGradGradGradGradGradGradGradGradGradGradGradGradGradGradGrad
 Berny optimization.
 Using GEDIIS/GDIIS optimizer.
 FormGI is forming the generalized inverse of G from B-inverse, IUseBI=4.
 Internal  Forces:  Max     0.015388059 RMS     0.003929565
 Search for a local minimum.
 Step number   3 out of a maximum of   75
 All quantities printed in internal units (Hartrees-Bohrs-Radians)
 Mixed Optimization -- RFO/linear search
 Update second derivatives using D2CorX and points    2    3    1
 DE=  1.10D-03 DEPred=-5.65D-03 R=-1.94D-01
 Trust test=-1.94D-01 RLast= 1.49D-01 DXMaxT set to 7.50D-02
 ITU= -1 -1  0
 Use linear search instead of GDIIS.
 Energy rises -- skip Quadratic/GDIIS search.
 Quartic linear search produced a step of -0.95637.
 Iteration  1 RMS(Cart)=  0.09120930 RMS(Int)=  0.00178015
 Iteration  2 RMS(Cart)=  0.00384149 RMS(Int)=  0.00000579
 Iteration  3 RMS(Cart)=  0.00000252 RMS(Int)=  0.00000577
 Iteration  4 RMS(Cart)=  0.00000000 RMS(Int)=  0.00000577
 Variable       Old X    -DE/DX   Delta X   Delta X   Delta X     New X
                                 (Linear)    (Quad)   (Total)
    R1        2.49321   0.00196   0.00044   0.00000   0.00044   2.49365
    R2        2.48384   0.00045  -0.00013   0.00000  -0.00013   2.48371
    R3        1.94412   0.00163   0.00003   0.00000   0.00003   1.94415
    R4        2.52143   0.00047  -0.00011   0.00000  -0.00011   2.52132
    R5        2.64884   0.00026   0.00012   0.00000   0.00012   2.64896
    R6        2.03909   0.00024   0.00013   0.00000   0.00013   2.03922
    R7        2.51951  -0.00025   0.00019   0.00000   0.00019   2.51969
    R8        2.03835   0.00002  -0.00002   0.00000  -0.00002   2.03833
    R9        3.37291   0.00138   0.00145   0.00000   0.00145   3.37436
   R10        2.19134   0.00093   0.00014   0.00000   0.00014   2.19148
   R11        2.20371  -0.00328  -0.00009   0.00000  -0.00009   2.20362
   R12        3.78048  -0.00224  -0.00320   0.00000  -0.00320   3.77728
   R13        1.84699  -0.00178  -0.00064   0.00000  -0.00064   1.84635
   R14        3.38150  -0.00173  -0.00615   0.00000  -0.00615   3.37535
   R15        1.81672   0.00017  -0.00002   0.00000  -0.00002   1.81670
   R16        1.82733  -0.00247  -0.00087   0.00000  -0.00087   1.82645
   R17        1.81823   0.00003  -0.00013   0.00000  -0.00013   1.81809
    A1        2.02216  -0.00033  -0.00005   0.00000  -0.00005   2.02211
    A2        2.12903   0.00055  -0.00156   0.00000  -0.00156   2.12746
    A3        2.13197  -0.00022   0.00162   0.00000   0.00162   2.13359
    A4        1.81370  -0.00064   0.00008   0.00000   0.00008   1.81379
    A5        1.88524   0.00057  -0.00010   0.00000  -0.00010   1.88514
    A6        2.11284   0.00000  -0.00007   0.00000  -0.00007   2.11276
    A7        2.28510  -0.00057   0.00018   0.00000   0.00018   2.28528
    A8        1.88926  -0.00003   0.00013   0.00000   0.00013   1.88939
    A9        2.27833   0.00004  -0.00007   0.00000  -0.00007   2.27827
   A10        2.11559  -0.00000  -0.00006   0.00000  -0.00006   2.11553
   A11        1.81441   0.00044  -0.00005   0.00000  -0.00005   1.81436
   A12        2.64990  -0.01224  -0.00788   0.00000  -0.00788   2.64202
   A13        1.96855  -0.00724  -0.01215   0.00000  -0.01215   1.95640
   A14        2.13843   0.00280   0.00210   0.00000   0.00209   2.14053
   A15        1.87031   0.00331   0.00446   0.00000   0.00446   1.87477
   A16        1.92919  -0.01447  -0.01574   0.00000  -0.01575   1.91344
   A17        2.08924   0.00441   0.00264   0.00000   0.00262   2.09187
   A18        1.86053   0.00567   0.00332   0.00000   0.00332   1.86385
   A19        2.97904  -0.00085   0.04819   0.00000   0.04819   3.02723
   A20        3.22014  -0.00950  -0.00792   0.00000  -0.00792   3.21222
   A21        2.88324  -0.01067   0.05529   0.00000   0.05529   2.93853
   A22        3.15061  -0.01539  -0.11518   0.00000  -0.11518   3.03542
   A23        3.15461   0.00013  -0.00344   0.00000  -0.00344   3.15116
   A24        3.14278  -0.00022  -0.00064   0.00000  -0.00064   3.14214
   A25        3.16158  -0.00004   0.00874   0.00000   0.00874   3.17032
   A26        3.19324  -0.00006   0.01921   0.00000   0.01920   3.21244
    D1       -0.00096   0.00004  -0.00015   0.00000  -0.00015  -0.00111
    D2       -3.13429  -0.00010  -0.00005   0.00000  -0.00005  -3.13435
    D3        0.00091  -0.00004   0.00030   0.00000   0.00029   0.00120
    D4        3.13422   0.00010   0.00018   0.00000   0.00018   3.13441
    D5       -0.22982   0.00018  -0.00565   0.00000  -0.00565  -0.23547
    D6        2.00829  -0.00056   0.00045   0.00000   0.00045   2.00873
    D7        2.90895   0.00044  -0.00233   0.00000  -0.00233   2.90663
    D8       -1.13613  -0.00029   0.00377   0.00000   0.00377  -1.13236
    D9        0.00059  -0.00002  -0.00006   0.00000  -0.00006   0.00053
   D10        3.13958  -0.00001   0.00030   0.00000   0.00030   3.13988
   D11       -0.00009  -0.00001   0.00024   0.00000   0.00024   0.00015
   D12        3.14085   0.00001  -0.00001   0.00000  -0.00001   3.14085
   D13       -3.13873  -0.00002  -0.00017   0.00000  -0.00017  -3.13890
   D14        0.00221   0.00000  -0.00041   0.00000  -0.00041   0.00180
   D15       -0.00045   0.00003  -0.00031   0.00000  -0.00031  -0.00076
   D16       -3.14147   0.00001  -0.00009   0.00000  -0.00009  -3.14156
   D17       -0.55263   0.00345   0.01437   0.00000   0.01435  -0.53828
   D18        1.76386  -0.00158  -0.01641   0.00000  -0.01638   1.74748
   D19        0.29151  -0.00394   0.00705   0.00000   0.00705   0.29856
   D20       -1.81954   0.00025   0.00436   0.00000   0.00437  -1.81517
   D21       -2.06824  -0.00150  -0.00420   0.00000  -0.00421  -2.07245
   D22        2.10389   0.00269  -0.00690   0.00000  -0.00689   2.09699
         Item               Value     Threshold  Converged?
 Maximum Force            0.015388     0.000450     NO 
 RMS     Force            0.003930     0.000300     NO 
 Maximum Displacement     0.398358     0.001800     NO 
 RMS     Displacement     0.093394     0.001200     NO 
 Predicted change in Energy=-2.684749D-04
 GradGradGradGradGradGradGradGradGradGradGradGradGradGradGradGradGradGrad

                          Input orientation:                          
 ---------------------------------------------------------------------
 Center     Atomic      Atomic             Coordinates (Angstroms)
 Number     Number       Type             X           Y           Z
 ---------------------------------------------------------------------
      1          7           0        1.045622    1.090693    0.026187
      2          7           0        0.868846   -0.216651   -0.003852
      3          6           0        2.105280   -0.705286   -0.116211
      4          6           0        2.997210    0.375627   -0.148569
      5          7           0        2.291006    1.502772   -0.055396
      6          1           0        2.281269   -1.768879   -0.163892
      7          1           0        4.072552    0.394950   -0.230583
      8          1           0        0.255993    1.744071    0.115720
      9          6           0       -0.923594   -2.288011    0.123410
     10          8           0       -0.001610   -2.991416    0.118453
     11          8           0       -1.898251   -1.647868    0.131122
     12          1           0       -2.037994    2.182437    0.084691
     13          8           0       -1.236492    2.714265    0.256077
     14          1           0       -1.420516    3.275886    1.014314
     15          1           0       -2.877076    0.062035   -0.205833
     16          8           0       -3.264774    0.942405   -0.299622
     17          1           0       -3.712761    0.959558   -1.150878
 ---------------------------------------------------------------------
                    Distance matrix (angstroms):
                    1          2          3          4          5
     1  N    0.000000
     2  N    1.319583   0.000000
     3  C    2.090142   1.334225   0.000000
     4  C    2.085799   2.213971   1.401770   0.000000
     5  N    1.314323   2.231952   2.216689   1.333365   0.000000
     6  H    3.120914   2.104747   1.079109   2.260909   3.273464
     7  H    3.116456   3.269433   2.256936   1.078638   2.105200
     8  H    1.028802   2.057747   3.077825   3.075184   2.056400
     9  C    3.911893   2.742184   3.425860   4.747804   4.973496
    10  O    4.215308   2.910665   3.117763   4.516769   5.048172
    11  O    4.022078   3.118241   4.120424   5.304555   5.245111
    12  H    3.271699   3.770038   5.054308   5.354648   4.384268
    13  O    2.810139   3.618050   4.795766   4.853577   3.742723
    14  H    3.439957   4.298333   5.436824   5.411110   4.250130
    15  H    4.061961   3.761702   5.041893   5.882929   5.367255
    16  O    4.325234   4.303221   5.620143   6.289396   5.589306
    17  H    4.903559   4.867265   6.139369   6.809502   6.127020
                    6          7          8          9         10
     6  H    0.000000
     7  H    2.809857   0.000000
     8  H    4.064572   4.062780   0.000000
     9  C    3.259324   5.681995   4.201093   0.000000
    10  O    2.604968   5.309247   4.742490   1.159680   0.000000
    11  O    4.191667   6.320952   4.018241   1.166104   2.324334
    12  H    5.859243   6.374425   2.335702   4.607418   5.560284
    13  O    5.713983   5.813950   1.785634   5.013809   5.839407
    14  H    6.367185   6.326402   2.442255   5.656642   6.488061
    15  H    5.473804   6.957642   3.570542   3.073632   4.206784
    16  O    6.174794   7.358045   3.634691   4.011941   5.128155
    17  H    6.659348   7.859824   4.239192   4.466539   5.567229
                   11         12         13         14         15
    11  O    0.000000
    12  H    3.833135   0.000000
    13  O    4.413813   0.977046   0.000000
    14  H    5.025099   1.562405   0.961356   0.000000
    15  H    1.998851   2.298819   3.152650   3.733519   0.000000
    16  O    2.960142   1.786159   2.749948   3.251592   0.966518
    17  H    3.425587   2.413899   3.345210   3.912521   1.548234
                   16         17
    16  O    0.000000
    17  H    0.962094   0.000000
 Stoichiometry    C3H7N3O4
 Framework group  C1[X(C3H7N3O4)]
 Deg. of freedom    45
 Full point group                 C1      NOp   1
 Largest Abelian subgroup         C1      NOp   1
 Largest concise Abelian subgroup C1      NOp   1
                         Standard orientation:                         
 ---------------------------------------------------------------------
 Center     Atomic      Atomic             Coordinates (Angstroms)
 Number     Number       Type             X           Y           Z
 ---------------------------------------------------------------------
      1          7           0        1.048402   -1.090643   -0.028482
      2          7           0        0.870381    0.216478    0.003833
      3          6           0        2.106439    0.706135    0.115875
      4          6           0        2.999450   -0.373959    0.145684
      5          7           0        2.294259   -1.501639    0.051318
      6          1           0        2.281436    1.769820    0.165121
      7          1           0        4.074883   -0.392366    0.226702
      8          1           0        0.259330   -1.744646   -0.118365
      9          6           0       -0.924188    2.286293   -0.118467
     10          8           0       -0.002886    2.990587   -0.113197
     11          8           0       -1.898228    1.645213   -0.126342
     12          1           0       -2.034201   -2.185297   -0.085991
     13          8           0       -1.232336   -2.716066   -0.258957
     14          1           0       -1.416493   -3.276637   -1.017937
     15          1           0       -2.875085   -0.066187    0.208719
     16          8           0       -3.261842   -0.947086    0.301429
     17          1           0       -3.709048   -0.966054    1.153058
 ---------------------------------------------------------------------
 Rotational constants (GHZ):           1.0872757           0.8688100           0.4886394
 Standard basis: 6-31+G(d,p) (6D, 7F)
 There are   225 symmetry adapted cartesian basis functions of A   symmetry.
 There are   225 symmetry adapted basis functions of A   symmetry.
   225 basis functions,   369 primitive gaussians,   225 cartesian basis functions
    39 alpha electrons       39 beta electrons
       nuclear repulsion energy       509.9423290062 Hartrees.
 NAtoms=   17 NActive=   17 NUniq=   17 SFac= 1.00D+00 NAtFMM=   60 NAOKFM=F Big=F
 Integral buffers will be    131072 words long.
 Raffenetti 2 integral format.
 Two-electron integral symmetry is turned on.
 One-electron integrals computed using PRISM.
 NBasis=   225 RedAO= T EigKep=  2.88D-05  NBF=   225
 NBsUse=   225 1.00D-06 EigRej= -1.00D+00 NBFU=   225
 Lowest energy guess from the checkpoint file:  "/scratch/gongke2021/RC/Gau-20966.chk"
 B after Tr=     0.000000    0.000000   -0.000000
         Rot=    0.999997   -0.000014   -0.000049   -0.002580 Ang=  -0.30 deg.
 B after Tr=    -0.000000    0.000000   -0.000000
         Rot=    0.995447    0.000093    0.001153    0.095312 Ang=  10.94 deg.
 Requested convergence on RMS density matrix=1.00D-08 within 128 cycles.
 Requested convergence on MAX density matrix=1.00D-06.
 Requested convergence on             energy=1.00D-06.
 No special actions if energy rises.
 SCF Done:  E(RM062X) =  -583.492217247     A.U. after    7 cycles
            NFock=  7  Conv=0.88D-08     -V/T= 2.0083
 Calling FoFJK, ICntrl=      2127 FMM=F ISym2X=0 I1Cent= 0 IOpClX= 0 NMat=1 NMatS=1 NMatT=0.
 ***** Axes restored to original set *****
 -------------------------------------------------------------------
 Center     Atomic                   Forces (Hartrees/Bohr)
 Number     Number              X              Y              Z
 -------------------------------------------------------------------
      1        7           0.000093248    0.000083433   -0.000066704
      2        7           0.000056193    0.000025829    0.000043889
      3        6           0.000098799    0.000011741   -0.000033450
      4        6          -0.000028143    0.000027238    0.000025424
      5        7           0.000050232   -0.000039157   -0.000009539
      6        1           0.000010472    0.000023129    0.000016714
      7        1           0.000004453   -0.000001850   -0.000005543
      8        1          -0.000238063   -0.000103872    0.000041298
      9        6          -0.000107243    0.000035334    0.000006360
     10        8          -0.000015822    0.000018895    0.000004999
     11        8          -0.000028741   -0.000079372   -0.000134413
     12        1           0.000101958    0.000017441   -0.000165922
     13        8           0.000014358   -0.000006711    0.000105041
     14        1           0.000044569    0.000034034    0.000010013
[...]
   zx        -0.218658D+01     -0.324018D+00     -0.360518D+00
   zy         0.758472D+01      0.112394D+01      0.125055D+01
   zz         0.830225D+02      0.123027D+02      0.136886D+02

 ----------------------------------------------------------------------
 1\1\GINC-NODE4\Freq\RM062X\6-31+G(d,p)\C3H7N3O4\GONGKE2021\05-Jun-2023
 \0\\#N Geom=AllCheck Guess=TCheck SCRF=Check GenChk RM062X/6-31+G(d,p)
  Freq\\test\\0,1\N,1.0475605677,1.0817533917,-0.0063200712\N,0.8797568
 89,-0.2269798451,-0.0181952336\C,2.1229346541,-0.7097189172,-0.0608919
 879\C,3.0093039347,0.376153025,-0.0715391976\N,2.2931335648,1.50027490
 57,-0.0353557131\H,2.3068207204,-1.7728557637,-0.0794903291\H,4.087234
 0848,0.4008565272,-0.1019823067\H,0.2514734523,1.7326761006,0.03497011
 72\C,-0.917087875,-2.305605368,-0.0229715662\O,0.00753954,-3.004385420
 5,0.0135101631\O,-1.8943182415,-1.6704584631,-0.0618039983\H,-2.037638
 2777,2.2002558185,0.0491530105\O,-1.2220719741,2.732211425,0.128584352
 1\H,-1.3571651333,3.3601235571,0.844053616\H,-2.8831582004,0.068242692
 ,-0.0688789064\O,-3.2953725206,0.9404798259,-0.1322862472\H,-3.8542371
 853,0.9235625087,-0.9154177018\\Version=ES64L-G16RevA.03\State=1-A\HF=
 -583.492262\RMSD=2.396e-09\RMSF=9.320e-06\ZeroPoint=0.1235358\Thermal=
 0.1374437\Dipole=-0.9934373,-0.4685389,-0.0658621\DipoleDeriv=-0.45404
 44,0.541705,0.0273897,0.5530712,-0.1323833,-0.0240666,0.0239678,-0.019
 4799,-0.0819372,-0.4079574,-0.2795877,0.0018649,-0.4630222,-0.1469677,
 0.0120275,0.0041413,0.0044233,-0.1899153,-0.0646642,0.215542,0.0035409
 ,0.0216163,0.1760513,0.0022796,-0.0010361,-0.003532,-0.0924087,0.18173
 12,0.0344218,-0.0065875,0.2228828,-0.066098,-0.0068266,-0.004987,-0.00
 05897,-0.0991005,0.0217528,-0.3567205,-0.0101958,-0.1718576,-0.4123442
 ,-0.0018362,-0.0090444,0.002964,-0.1937623,0.1264984,-0.0044562,0.0020
 376,0.0318348,0.0186386,-0.0029892,-0.0001352,-0.0018173,0.1625563,-0.
 0071645,0.0056631,0.0049074,-0.0217046,0.0923959,-0.0007143,0.0044461,
 -0.0009466,0.1673524,0.7689856,-0.4361413,-0.0444417,-0.448959,0.49424
 38,0.0301316,-0.0437719,0.0296997,0.2786221,2.1208437,-0.7144358,0.059
 5849,-0.7030605,1.4099123,-0.0413122,0.0556179,-0.0359962,0.5612572,-0
 .9569216,0.4178279,-0.028833,0.3977629,-0.7433524,0.0227734,-0.0235041
 ,0.020913,-0.2667694,-1.1966828,0.4486535,-0.0382698,0.4943683,-0.7294
 353,0.0276331,-0.0382819,0.0196799,-0.2936574,0.578456,0.2385762,0.095
 8231,0.2488508,0.5423658,0.0457761,0.1069238,0.0304794,0.3062326,-0.95
 05346,0.0396148,-0.0977107,0.0863605,-0.8823606,0.0208822,-0.0920199,0
 .0399096,-0.5650365,0.2718311,0.0271706,0.04619,-0.0093884,0.3433875,-
 0.0405824,0.0358331,-0.0510728,0.273251,0.470051,-0.1084978,-0.0073833
 ,-0.1509768,0.457373,-0.0468387,-0.0130705,-0.055284,0.3011306,-0.8754
 907,-0.0501141,0.0311224,-0.0417204,-0.7234424,0.0521653,0.0355342,0.0
 610498,-0.5363898,0.3733105,-0.0192215,-0.0390391,-0.046058,0.302016,-
 0.0485027,-0.040613,-0.0404001,0.2685749\Polar=89.9646858,-6.820389,80
 .8808858,0.4813215,0.8940168,48.4267824\Quadrupole=4.0262114,-2.425568
 3,-1.6006431,-3.7947157,2.8180669,2.747581\PG=C01 [X(C3H7N3O4)]\NImag=
 0\\0.90362024,-0.19168658,0.81487765,-0.02849029,0.01750661,0.12769138
 ,-0.11437281,0.00484079,0.00154460,0.61345889,-0.06372479,-0.33129106,
 -0.00193505,-0.00252623,0.55487747,0.00067944,-0.00335911,-0.07743384,
 -0.01443683,0.00598855,0.11275119,-0.05602105,0.09385585,0.00309170,-0
 .35521275,0.08634642,0.00948241,0.62678045,0.03379738,-0.10031066,-0.0
 0277383,0.07703695,-0.14111734,-0.00297781,-0.07655612,0.91579320,0.00
 230683,-0.00426752,0.01364801,0.00917396,-0.00327695,-0.07536997,-0.01
 505705,0.01236507,0.13966883,-0.12360937,0.02089817,0.00433227,-0.0743
 3493,0.02196203,0.00303873,-0.19727265,-0.12139222,0.00195398,0.936333
 49,0.08378896,-0.02972637,-0.00272945,-0.07838221,0.03722437,0.0022608
 3,-0.07664224,-0.23567929,0.00011127,-0.01663361,0.60517657,0.00511112
 ,-0.00103871,0.01369286,0.00155933,-0.00034958,0.01930413,0.00261396,0
 .00131977,-0.07154225,-0.02320250,0.00678837,0.13941682,-0.32039474,-0
 .10534495,0.00567614,-0.07533225,-0.06356761,0.00195964,0.04822687,0.0
 4750586,-0.00008734,-0.18070864,0.12010360,0.00463245,0.55790651,-0.03
 928464,-0.13599881,0.00008623,-0.01675073,-0.08760193,-0.00119968,-0.0
 5270912,-0.08074697,0.00013811,0.11261636,-0.31623293,-0.00669111,-0.0
 1598776,0.60180742,0.00617174,0.00192242,-0.07764206,0.00291964,0.0002
 0781,0.03292192,-0.00151158,-0.00278074,0.02025011,0.00446900,-0.00678
 714,-0.07508966,-0.01281329,0.00740536,0.11156070,-0.00815586,0.004521
 00,0.00055909,0.00006125,0.03130124,0.00016714,-0.06360405,0.04055991,
 0.00140333,0.01171307,-0.01488859,-0.00055645,-0.00230694,-0.00612589,
 0.00015526,0.06204790,-0.00015141,0.00139600,-0.00006941,0.00102097,-0
 .00550506,-0.00000639,0.05052065,-0.36195703,-0.00566246,0.00772167,-0
 .00561431,-0.00027437,-0.00056130,-0.00241227,-0.00010213,-0.05727070,
 0.37489015,0.00043958,-0.00021304,0.00751543,-0.00019934,-0.00093277,-
 0.00732678,0.00149400,-0.00526402,-0.03093901,-0.00024824,0.00034359,-
 0.00107966,0.00025767,0.00005104,0.00651663,-0.00166530,0.00610508,0.0
 2517144,-0.00002857,0.00176765,0.00027376,-0.00122803,-0.00054085,0.00
 021885,-0.00401414,0.00497212,0.00014561,-0.36819558,-0.01098587,0.009
 60983,-0.01109096,-0.00124573,0.00006883,-0.00039747,-0.00043471,-0.00
 003495,0.38507493,0.00636527,-0.00655063,-0.00040641,-0.00585777,-0.00
 387354,0.00002361,-0.01864599,0.00954124,0.00067890,-0.01960921,-0.058
 14197,0.00016047,0.02945941,0.00576978,-0.00064382,0.00049524,-0.00035
 731,0.00000042,0.00684771,0.05234618,0.00034447,-0.00025048,0.00786738
 ,0.00014176,-0.00014836,0.00665783,-0.00018992,0.00001178,-0.00131483,
 0.00950824,-0.00011684,-0.03073339,0.00049056,0.00027261,-0.00778612,-
 0.00002303,0.00002206,-0.00139198,-0.01032138,0.00020703,0.02498791,-0
 .26925338,0.16111864,0.01139231,0.01554304,-0.00627580,-0.00111626,0.0
 0648672,-0.00642401,-0.00001707,-0.00297883,-0.00833434,0.00022356,-0.
 01871845,0.01715711,0.00044064,0.00145775,-0.00021443,0.00003842,0.000
 00261,0.00064781,0.00007453,0.26414261,0.16081376,-0.20714035,-0.00918
 799,0.02471552,-0.01580408,-0.00087127,-0.00649678,-0.00589271,-0.0000
 1678,-0.00799269,0.00376256,0.00013609,-0.01246963,0.01799499,0.000964
 14,0.00094938,0.00003383,-0.00004452,-0.00056158,0.00143367,-0.0000108
 6,-0.15022284,0.20813500,0.01150183,-0.00940093,-0.01826064,-0.0006910
 7,0.00035372,-0.01124910,-0.00010760,0.00017190,0.00563598,-0.00002190
 ,0.00016309,0.00593822,-0.00028912,0.00023811,-0.01139019,-0.00000244,
 -0.00000178,0.00186243,0.00002122,0.00001290,0.00179590,-0.00839296,0.
 00893319,0.03201942,0.00220571,0.00251373,-0.00006125,-0.00802434,0.00
 204896,-0.00012741,-0.00170999,-0.00383460,-0.00001392,-0.00235685,0.0
 0066815,0.00008265,0.00235402,0.00458039,0.00005015,-0.00299024,0.0000
 6343,0.00011807,0.00003927,0.00007208,0.00001641,0.00457732,-0.0017430
 0,-0.00019728,1.38784680,0.00062265,-0.00674335,0.00000814,-0.00006012
 ,-0.00106648,0.00030979,-0.00132485,0.00507136,0.00011233,0.00267106,0
 .00082828,-0.00008624,0.00275300,-0.00006286,-0.00013527,0.00234680,0.
 00041561,-0.00011816,0.00020903,0.00033157,-0.00001178,-0.00121257,-0.
 00046867,0.00000417,-0.88340251,0.75876034,0.00001290,0.00011477,-0.00
 069316,-0.00018616,0.00005441,-0.00263925,0.00004528,-0.00009059,-0.00
 001777,-0.00005455,0.00001535,0.00015249,0.00004498,0.00007500,0.00045
 557,-0.00009031,-0.00002606,0.00014167,0.00000218,-0.00000073,0.000089
 14,0.00008414,-0.00002555,0.00022591,0.04937839,-0.03480968,0.15179870
 ,-0.00066151,-0.00217618,0.00005218,0.00115137,-0.00308315,0.00009995,
 -0.00107754,0.00187082,0.00007370,0.00185721,-0.00017317,-0.00004658,-
 0.00049876,-0.00224163,-0.00005624,0.00129637,-0.00078524,-0.00009973,
 0.00000672,0.00002008,-0.00000740,-0.00206190,0.00071754,0.00008110,-0
 .67804864,0.45476804,-0.02404477,0.73588359,-0.00185454,0.00264648,0.0
 0008539,-0.00003505,-0.00734567,-0.00006213,0.00003822,-0.00176624,-0.
 00003394,-0.00049416,-0.00021418,0.00002519,-0.00111173,-0.00080412,0.
 00001309,-0.00099789,-0.00077143,0.00002196,-0.00009305,-0.00011143,0.
 00000549,0.00048468,0.00014507,0.00000301,0.45723218,-0.40856589,0.018
 07192,-0.51402383,0.42778420,0.00001710,-0.00003225,0.00061400,0.00002
 777,-0.00006727,0.00084119,0.00009837,0.00003586,0.00007845,0.00000554
 ,-0.00000335,0.00018132,-0.00003199,-0.00000220,-0.00029397,-0.0000325
 9,0.00001122,-0.00046606,0.00000017,0.00000091,-0.00003489,-0.00004045
 ,0.00001046,-0.00007660,-0.02415610,0.01808682,-0.07522402,0.02771176,
 -0.02062680,0.03839620,-0.00061353,-0.00086958,-0.00000604,-0.00036897
 ,-0.00083232,-0.00006224,-0.00032706,0.00077578,0.00002828,0.00075587,
 -0.00049708,0.00000154,-0.00132688,-0.00206614,-0.00000281,0.00130427,
 0.00002689,-0.00010062,-0.00003953,-0.00010144,-0.00000683,-0.00238096
 ,0.00106596,0.00011186,-0.69726502,0.41931884,-0.02496549,-0.06091500,
 0.06229166,-0.00368780,0.76030455,0.00019346,0.00276418,0.00000324,-0.
 00402994,-0.00018805,-0.00019084,0.00000490,-0.00261947,-0.00005561,-0
 .00140089,-0.00002156,0.00005149,-0.00047484,0.00074814,0.00005561,-0.
 00119022,-0.00008885,0.00006893,-0.00007656,-0.00011878,0.00000844,0.0
 0148091,-0.00019674,-0.00003655,0.41559646,-0.34610595,0.01628754,0.06
 870011,-0.01302526,0.00274380,-0.48073192,0.36582963,-0.00000986,-0.00
 007546,0.00017718,0.00004629,0.00003196,0.00119942,-0.00004255,0.00003
 873,0.00008304,0.00002523,0.00000253,-0.00010135,-0.00001801,-0.000062
 13,-0.00010104,0.00006877,0.00001152,0.00008283,-0.00000277,-0.0000015
 5,-0.00004375,-0.00004399,0.00002697,-0.00019709,-0.02475930,0.0162989
 7,-0.07386775,-0.00388778,0.00263740,0.03571388,0.02856109,-0.01904293
 ,0.03713378,0.00070409,0.00031253,-0.00014285,-0.00014465,0.00064771,-
 0.00004715,0.00073400,0.00001304,-0.00002789,0.00034918,-0.00063963,-0
 .00000650,-0.00071231,-0.00071902,-0.00001426,0.00010173,-0.00001445,0
 .00000155,0.00004175,-0.00004684,0.00000777,-0.00544702,0.00019218,0.0
 0039427,0.00281531,-0.00065031,0.00015122,-0.00144595,0.00058467,-0.00
 005288,-0.00198711,0.00119338,-0.00017113,0.34431112,0.00267017,-0.001
 75596,-0.00048798,-0.00008754,0.00013339,-0.00006891,0.00073176,-0.000
 61492,-0.00001210,-0.00005665,-0.00056585,0.00000492,-0.00104882,-0.00
 057582,-0.00001453,0.00014527,-0.00001973,0.00000716,0.00000491,-0.000
 06908,0.00001302,-0.00313018,0.00731050,0.00120109,0.00385256,-0.00208
 979,0.00015144,-0.00195300,0.00108990,-0.00007197,-0.00218429,0.001985
 23,-0.00007593,0.19679238,0.16759361,0.00051157,-0.00036967,-0.0000491
 7,0.00004850,0.00006792,-0.00020030,0.00020046,-0.00009718,-0.00006322
 ,0.00006696,-0.00017528,0.00005558,-0.00017009,-0.00018175,-0.00012419
 ,0.00003325,-0.00000877,0.00000533,0.00001415,-0.00001895,0.00003132,-
 0.00161791,0.00166745,0.00093912,0.00067403,-0.00018614,0.00029651,-0.
 00035268,0.00014811,-0.00005187,-0.00046447,0.00032053,-0.00031166,0.0
 2377051,0.03953110,0.04389887,-0.01053704,0.00876755,0.00239492,-0.001
 54125,-0.00111763,0.00023177,-0.00238573,0.00142645,0.00001832,-0.0010
 8697,0.00209350,-0.00006233,0.00213160,0.00206851,0.00033070,-0.000375
 35,0.00008018,-0.00003629,-0.00014337,0.00025391,-0.00005745,0.0018032
 9,-0.00666118,-0.00540948,-0.00401653,0.00100351,-0.00017902,0.0019163
 8,-0.00060146,0.00007127,0.00240252,-0.00142430,0.00014565,-0.34851058
 ,-0.17898458,0.00607242,0.42564424,0.00903805,-0.00283925,-0.00035661,
 0.00024005,0.00218390,-0.00002543,0.00125382,0.00005573,-0.00009007,0.
 00165395,-0.00119064,-0.00001319,0.00021503,-0.00171058,-0.00020881,0.
 00009637,-0.00002408,-0.00000627,0.00015174,-0.00021711,0.00001706,-0.
 00625635,-0.00637548,0.00026787,-0.00150356,0.00176572,0.00000224,0.00
 084589,-0.00082580,0.00003120,0.00078952,-0.00115028,-0.00003451,-0.21
 418349,-0.15551303,-0.02356324,0.16402581,0.41118292,0.00278721,-0.000
 96583,0.00289105,-0.00001153,0.00003372,0.00071679,-0.00001886,-0.0000
 2917,-0.00010614,0.00022048,0.00005573,-0.00020742,0.00043620,-0.00036
 167,0.00075780,0.00000560,-0.00000764,-0.00011293,0.00002200,-0.000035
 60,-0.00013734,-0.00368003,-0.00035919,-0.00724595,-0.00038819,0.00013
 184,-0.00038670,0.00020640,-0.00009902,0.00008704,0.00026497,-0.000185
 70,0.00032032,-0.03007290,-0.04251605,-0.03467781,-0.04635683,0.299845
 01,0.34000481,-0.00201780,0.00145120,-0.00069026,-0.00015913,-0.000292
 45,-0.00015270,-0.00011723,-0.00002397,0.00007363,-0.00039665,0.000131
 44,0.00004212,-0.00020789,0.00017208,-0.00021695,-0.00002849,-0.000000
 09,0.00003519,-0.00002663,0.00004721,0.00002675,0.00457928,-0.00054343
 ,0.00324704,0.00029177,-0.00011843,0.00003905,-0.00013661,0.00005770,-
 0.00001794,-0.00016049,0.00010751,-0.00002253,0.00892414,-0.02366255,-
 0.02948987,-0.05471426,0.05614106,0.07991276,0.04649320,0.00024155,0.0
 0052928,0.00017334,-0.00013470,-0.00036652,0.00016022,-0.00022228,-0.0
 0002622,0.00000002,-0.00003495,0.00028079,-0.00002726,0.00040496,-0.00
 017602,0.00008416,-0.00000440,0.00000016,-0.00001480,-0.00000947,0.000
 00081,-0.00001333,0.00029557,-0.00128123,-0.00163361,0.00031632,-0.000
 36002,-0.00007513,-0.00016914,0.00016797,0.00001021,-0.00016540,0.0002
 3096,0.00007326,0.01033476,-0.01331892,-0.01951959,0.02214588,-0.23868
 325,-0.25256766,-0.03227562,0.25312704,-0.00125275,0.00042635,-0.00003
 671,0.00002030,-0.00002759,-0.00005650,-0.00004319,0.00002900,0.000002
 80,-0.00009219,0.00003313,0.00001013,-0.00016339,0.00016098,-0.0000640
 8,-0.00000518,0.00000965,0.00001429,-0.00001880,0.00001615,0.00001011,
 0.00237976,-0.00089392,0.00016180,0.00015230,-0.00012950,0.00008747,-0
 .00008866,0.00006579,-0.00002661,-0.00009304,0.00010614,-0.00006516,0.
 00579968,0.00006118,-0.00344523,0.04612554,-0.27324874,-0.30523670,-0.
 05328803,0.27297664,0.30857404,-0.00058432,-0.00065516,0.00003192,0.00
 074802,-0.00002420,0.00003407,-0.00016133,0.00038063,0.00001752,0.0001
 6644,0.00004938,-0.00001034,0.00047041,0.00038560,0.00000050,-0.000106
 49,-0.00001802,0.00000601,0.00004038,0.00004907,-0.00000401,0.00009781
 ,-0.00098986,-0.00009035,-0.00742579,0.00433458,-0.00032229,0.00348620
 ,-0.00196427,0.00013916,0.00174564,-0.00090763,0.00000485,0.00610843,-
 0.00131544,0.00124591,-0.00348481,0.00039516,-0.00054059,0.00017365,0.
 00005617,-0.00000757,0.11984812,0.00015908,-0.00009430,-0.00000643,-0.
 00018325,-0.00012354,0.00001234,0.00038101,0.00008730,-0.00000267,0.00
 022897,-0.00031032,-0.00001338,-0.00059966,-0.00062024,0.00002370,0.00
 021853,0.00001226,-0.00001221,0.00000148,-0.00003170,-0.00000477,-0.00
 154748,0.00056246,0.00000147,0.00990213,-0.00404092,0.00049480,-0.0055
 6811,0.00336073,-0.00026243,-0.00258106,-0.00347382,0.00005028,-0.0001
 7534,-0.00513539,-0.00055295,0.00106323,0.00161126,0.00046955,0.000032
 57,-0.00009492,-0.00018018,-0.20090406,0.44371356,-0.00006038,0.000021
 91,-0.00010794,0.00000874,-0.00002074,-0.00038135,-0.00004607,0.000012
 60,-0.00004517,-0.00001147,0.00003831,0.00003129,0.00007037,0.00005692
 ,-0.00001083,-0.00001374,-0.00000100,0.00002391,0.00000044,0.00000370,
 0.00003014,0.00017675,-0.00014362,0.00039848,-0.00079630,0.00040434,-0
 .00038469,0.00029335,-0.00017133,0.00039897,0.00046241,-0.00021164,-0.
 00136601,0.00176216,0.00064394,0.00136732,-0.00099012,-0.00005368,-0.0
 0103029,0.00005799,-0.00022619,0.00021922,0.03866566,-0.03029204,0.039
 88755,-0.00030913,0.00089189,-0.00000862,-0.00037381,-0.00044764,-0.00
 007796,-0.00035231,-0.00015387,-0.00000548,-0.00026171,0.00040494,0.00
 002231,0.00022586,0.00012600,-0.00000921,-0.00000132,0.00001865,-0.000
 00009,-0.00005102,-0.00000113,0.00001061,0.00237268,-0.00082860,0.0000
 5817,0.00261562,-0.00204199,0.00019734,-0.00126129,0.00088515,-0.00005
 390,-0.00160120,0.00339161,-0.00021001,-0.00478972,0.00759277,0.002253
 49,-0.00713623,-0.01250347,-0.00366479,-0.00249805,-0.00057202,0.00054
 589,-0.11113266,0.20502999,-0.02189996,0.31217178,-0.00103831,0.000182
 52,0.00007985,0.00025525,-0.00007880,0.00002597,-0.00057569,0.00018673
 ,0.00001716,-0.00014149,0.00043669,0.00000821,0.00079576,0.00069987,-0
 .00002254,-0.00018007,0.00000005,0.00000678,-0.00000333,0.00005038,0.0
 0000012,0.00244968,-0.00228395,-0.00021372,-0.00725312,0.00291052,-0.0
 0019128,0.00362634,-0.00207185,0.00007539,0.00616712,-0.00410833,0.000
 57869,0.00513651,-0.00255147,0.00611733,-0.01271239,-0.00579900,-0.004
 47110,-0.00100600,-0.00017867,0.00074793,0.17570487,-0.43753867,-0.006
 39053,-0.18797697,0.49612634,-0.00007027,0.00005563,0.00014264,0.00000
 051,-0.00000081,0.00034169,-0.00001510,0.00002213,0.00004036,-0.000008
 08,0.00000665,-0.00003021,-0.00003379,-0.00002298,0.00005782,0.0000106
 1,0.00000504,-0.00003060,-0.00000488,0.00000059,-0.00003691,0.00026598
 ,-0.00019991,-0.00068075,0.00086004,-0.00027593,-0.00016422,-0.0004303
 6,0.00021630,-0.00013548,-0.00060564,0.00061509,0.00156942,0.00005118,
 0.00357045,-0.00766464,-0.00345467,-0.00372189,0.00446889,0.00046050,0
 .00052285,-0.00014273,-0.03973731,0.03726085,-0.03575384,0.28725722,-0
 .00112072,0.40154691,0.00002906,-0.00020654,0.00005042,0.00013036,0.00
 012633,0.00010854,0.00002781,0.00004585,0.00001358,0.00002691,-0.00006
 323,-0.00001417,-0.00001744,0.00002458,0.00001788,-0.00001612,-0.00000
 208,-0.00000593,0.00000965,0.00000460,-0.00001108,-0.00022257,0.000055
 23,-0.00021329,-0.00090842,0.00078328,-0.00011287,0.00050937,-0.000398
 29,0.00000250,0.00047291,-0.00043205,0.00031606,-0.00105240,0.00063323
 ,-0.00279623,0.00003409,-0.00039958,0.00087813,0.00000119,-0.00020723,
 0.00002934,-0.00998968,-0.00545803,-0.01767981,-0.18761749,0.01675183,
 -0.24454594,0.19858278,0.00004995,0.00005464,0.00001034,-0.00006201,-0
 .00005705,-0.00001972,0.00004043,-0.00000472,-0.00000475,0.00000366,-0
 .00001183,-0.00000067,-0.00007133,-0.00007765,0.00001869,0.00002402,0.
 00000202,0.00000084,-0.00000349,-0.00000208,-0.00000119,-0.00001641,0.
 00006513,-0.00006394,0.00089041,-0.00057948,-0.00004844,-0.00037537,0.
 00030753,0.00006038,-0.00040653,-0.00046105,-0.00045781,0.00122194,0.0
 0409733,-0.00317893,-0.00142699,-0.00247103,0.00106276,-0.00021824,0.0
 0014877,-0.00015300,0.02542316,0.00211627,0.03632906,-0.01381530,-0.04
 598235,-0.03693334,-0.01125790,0.04285556,-0.00000023,-0.00007469,-0.0
 0001640,0.00003353,0.00002103,-0.00007706,0.00000576,0.00000650,-0.000
 00922,0.00001850,-0.00000678,0.00000108,0.00003903,0.00003715,-0.00001
 843,-0.00001401,-0.00000457,0.00001305,0.00000575,0.00000237,0.0000094
 9,-0.00016743,0.00001532,0.00012304,-0.00083227,0.00039631,0.00013011,
 0.00049577,-0.00030044,-0.00000156,0.00056483,-0.00053752,-0.00022603,
 -0.00140277,-0.00193683,-0.00000596,0.00115560,0.00115904,-0.00010542,
 -0.00001675,0.00007686,-0.00000613,0.00056685,-0.00698593,-0.00327676,
 -0.26441502,0.00475247,-0.36352836,0.26396286,0.00337973,0.36699456\\0
 .00001416,-0.00000779,0.00000478,0.00000515,0.00000321,-0.00000809,-0.
 00000918,0.00000572,0.00000603,0.00000162,-0.00000272,-0.00000582,-0.0
 0000623,0.00000461,-0.00000304,0.00000123,0.00000165,0.00000163,-0.000
 00042,0.00000175,-0.00000037,-0.00001816,0.00001504,0.00000170,0.00000
 911,-0.00001216,-0.00000398,-0.00000868,-0.00001550,0.00000285,0.00001
 352,0.00001595,0.00000806,0.00001223,0.00000065,0.00000511,0.00001629,
 -0.00000945,-0.00000056,-0.00000453,0.00000088,-0.00000096,-0.00000109
 ,-0.00001394,0.00000055,-0.00001159,0.00002763,-0.00000814,-0.00001344
 ,-0.00001553,0.00000025\\\@


 SOME PHYSICISTS WOULD PREFER TO COME BACK TO THE IDEA OF AN OBJECTIVE
 REAL WORLD WHOSE SMALLEST PARTS EXIST OBJECTIVELY IN THE SAME SENSE AS
 STONES OR TREES EXIST INDEPENDENTLY OF WHETHER WE OBSERVE THEM.
 THIS, HOWEVER, IS IMPOSSIBLE.  -- WERNER HEISENBERG
 Job cpu time:       0 days  0 hours 26 minutes 48.4 seconds.
 Elapsed time:       0 days  0 hours  1 minutes  7.6 seconds.
 File lengths (MBytes):  RWF=     98 Int=      0 D2E=      0 Chk=      5 Scr=      1
 Normal termination of Gaussian 16 at Mon Jun  5 07:39:23 2023.
