 Entering Gaussian System, Link 0=/opt/soft/g16b/g16/g16
 Initial command:
 /opt/soft/g16b/g16/l1.exe "/scratch/gongke2021/RC/Gau-15529.inp" -scrdir="/scratch/gongke2021/RC/"
 Entering Link 1 = /opt/soft/g16b/g16/l1.exe PID=     15530.
  
 Copyright (c) 1988,1990,1992,1993,1995,1998,2003,2009,2016,
            Gaussian, Inc.  All Rights Reserved.
  
 This is part of the Gaussian(R) 16 program.  It is based on
 the Gaussian(R) 09 system (copyright 2009, Gaussian, Inc.),
 the Gaussian(R) 03 system (copyright 2003, Gaussian, Inc.),
 the Gaussian(R) 98 system (copyright 1998, Gaussian, Inc.),
 the Gaussian(R) 94 system (copyright 1995, Gaussian, Inc.),
 the Gaussian 92(TM) system (copyright 1992, Gaussian, Inc.),
 the Gaussian 90(TM) system (copyright 1990, Gaussian, Inc.),
 the Gaussian 88(TM) system (copyright 1988, Gaussian, Inc.),
 the Gaussian 86(TM) system (copyright 1986, Carnegie Mellon
 University), and the Gaussian 82(TM) system (copyright 1983,
 Carnegie Mellon University). Gaussian is a federally registered
 trademark of Gaussian, Inc.
  
 This software contains proprietary and confidential information,
 including trade secrets, belonging to Gaussian, Inc.
  
 This software is provided under written license and may be
 used, copied, transmitted, or stored only in accord with that
 written license.
  
 The following legend is applicable only to US Government
 contracts under FAR:
  
                    RESTRICTED RIGHTS LEGEND
  
 Use, reproduction and disclosure by the US Government is
 subject to restrictions as set forth in subparagraphs (a)
 and (c) of the Commercial Computer Software - Restricted
 Rights clause in FAR 52.227-19.
  
 Gaussian, Inc.
 340 Quinnipiac St., Bldg. 40, Wallingford CT 06492
  
  
 ---------------------------------------------------------------
 Warning -- This program may not be used in any manner that
 competes with the business of Gaussian, Inc. or will provide
 assistance to any competitor of Gaussian, Inc.  The licensee
 of this program is prohibited from giving any competitor of
 Gaussian, Inc. access to this program.  By using this program,
 the user acknowledges that Gaussian, Inc. is engaged in the
 business of creating and licensing software in the field of
 computational chemistry and represents and warrants to the
 licensee that it is not a competitor of Gaussian, Inc. and that
 it will not use this program in any manner prohibited above.
 ---------------------------------------------------------------
  

 Cite this work as:
 Gaussian 16, Revision A.03,
 M. J. Frisch, G. W. Trucks, H. B. Schlegel, G. E. Scuseria, 
 M. A. Robb, J. R. Cheeseman, G. Scalmani, V. Barone, 
 G. A. Petersson, H. Nakatsuji, X. Li, M. Caricato, A. V. Marenich, 
 J. Bloino, B. G. Janesko, R. Gomperts, B. Mennucci, H. P. Hratchian, 
 J. V. Ortiz, A. F. Izmaylov, J. L. Sonnenberg, D. Williams-Young, 
 F. Ding, F. Lipparini, F. Egidi, J. Goings, B. Peng, A. Petrone, 
 T. Henderson, D. Ranasinghe, V. G. Zakrzewski, J. Gao, N. Rega, 
 G. Zheng, W. Liang, M. Hada, M. Ehara, K. Toyota, R. Fukuda, 
 J. Hasegawa, M. Ishida, T. Nakajima, Y. Honda, O. Kitao, H. Nakai, 
 T. Vreven, K. Throssell, J. A. Montgomery, Jr., J. E. Peralta, 
 F. Ogliaro, M. J. Bearpark, J. J. Heyd, E. N. Brothers, K. N. Kudin, 
 V. N. Staroverov, T. A. Keith, R. Kobayashi, J. Normand, 
 K. Raghavachari, A. P. Rendell, J. C. Burant, S. S. Iyengar, 
 J. Tomasi, M. Cossi, J. M. Millam, M. Klene, C. Adamo, R. Cammi, 
 J. W. Ochterski, R. L. Martin, K. Morokuma, O. Farkas, 
 J. B. Foresman, and D. J. Fox, Gaussian, Inc., Wallingford CT, 2016.
 
 ******************************************
 Gaussian 16:  ES64L-G16RevA.03 25-Dec-2016
                 2-Jun-2023 
 ******************************************
 %mem=10GB
 %nprocshared=20
 Will use up to   20 processors via shared memory.
 ----------------------------
 # opt freq 6-31+g(d,p) m062x
 ----------------------------
 1/18=20,19=15,26=3,38=1/1,3;
 2/9=110,12=2,17=6,18=5,40=1/2;
 3/5=1,6=6,7=111,11=2,25=1,30=1,71=1,74=-55/1,2,3;
 4//1;
 5/5=2,38=5/2;
 6/7=2,8=2,9=2,10=2,28=1/1;
 7//1,2,3,16;
 1/18=20,19=15,26=3/3(2);
 2/9=110/2;
 99//99;
 2/9=110/2;
 3/5=1,6=6,7=111,11=2,25=1,30=1,71=1,74=-55/1,2,3;
 4/5=5,16=3,69=1/1;
 5/5=2,38=5/2;
 7//1,2,3,16;
 1/18=20,19=15,26=3/3(-5);
 2/9=110/2;
 6/7=2,8=2,9=2,10=2,19=2,28=1/1;
 99/9=1/99;
 ----
 test
 ----
 Symbolic Z-matrix:
 Charge =  0 Multiplicity = 1
 N                     1.046    -0.00101   0.00004 
 N                     0.35376  -1.123    -0.00007 
 C                    -0.90834  -0.70217   0.00007 
 C                    -0.90686   0.70393  -0.00006 
 N                     0.3561    1.12228   0.00004 
 H                    -1.72896  -1.40222   0.0001 
 H                    -1.72597   1.40571  -0.00009 
 H                     2.05511  -0.00195  -0.00006 
 C                     1.6233   -2.64929   0.27232 
 O                     0.67018  -3.31471   0.24262 
 O                     2.57642  -1.98388   0.30202 
 
 Add virtual bond connecting atoms C9         and N2         Dist= 3.79D+00.
 Add virtual bond connecting atoms O11        and H8         Dist= 3.91D+00.

 GradGradGradGradGradGradGradGradGradGradGradGradGradGradGradGradGradGrad
 Berny optimization.
 Initialization pass.
                           ----------------------------
                           !    Initial Parameters    !
                           ! (Angstroms and Degrees)  !
 --------------------------                            --------------------------
 ! Name  Definition              Value          Derivative Info.                !
 --------------------------------------------------------------------------------
 ! R1    R(1,2)                  1.3184         estimate D2E/DX2                !
 ! R2    R(1,5)                  1.3182         estimate D2E/DX2                !
 ! R3    R(1,8)                  1.0091         estimate D2E/DX2                !
 ! R4    R(2,3)                  1.3304         estimate D2E/DX2                !
 ! R5    R(2,9)                  2.0039         estimate D2E/DX2                !
 ! R6    R(3,4)                  1.4061         estimate D2E/DX2                !
 ! R7    R(3,6)                  1.0787         estimate D2E/DX2                !
 ! R8    R(4,5)                  1.3304         estimate D2E/DX2                !
 ! R9    R(4,7)                  1.0786         estimate D2E/DX2                !
 ! R10   R(8,11)                 2.0715         estimate D2E/DX2                !
 ! R11   R(9,10)                 1.1628         estimate D2E/DX2                !
 ! R12   R(9,11)                 1.1628         estimate D2E/DX2                !
 ! A1    A(2,1,5)              116.7687         estimate D2E/DX2                !
 ! A2    A(2,1,8)              121.6204         estimate D2E/DX2                !
 ! A3    A(5,1,8)              121.6109         estimate D2E/DX2                !
 ! A4    A(1,2,3)              103.2335         estimate D2E/DX2                !
 ! A5    A(1,2,9)              108.3939         estimate D2E/DX2                !
 ! A6    A(3,2,9)              147.3445         estimate D2E/DX2                !
 ! A7    A(2,3,4)              108.3803         estimate D2E/DX2                !
 ! A8    A(2,3,6)              121.0932         estimate D2E/DX2                !
 ! A9    A(4,3,6)              130.5265         estimate D2E/DX2                !
 ! A10   A(3,4,5)              108.3876         estimate D2E/DX2                !
 ! A11   A(3,4,7)              130.5287         estimate D2E/DX2                !
 ! A12   A(5,4,7)              121.0837         estimate D2E/DX2                !
 ! A13   A(1,5,4)              103.23           estimate D2E/DX2                !
 ! A14   A(1,8,11)             104.6277         estimate D2E/DX2                !
 ! A15   A(2,9,10)              85.0144         estimate D2E/DX2                !
 ! A16   A(2,9,11)              94.9856         estimate D2E/DX2                !
 ! A17   A(8,11,9)             109.7252         estimate D2E/DX2                !
 ! A18   L(10,9,11,2,-1)       180.0            estimate D2E/DX2                !
 ! A19   L(10,9,11,2,-2)       180.0            estimate D2E/DX2                !
 ! D1    D(5,1,2,3)             -0.0096         estimate D2E/DX2                !
 ! D2    D(5,1,2,9)           -171.7649         estimate D2E/DX2                !
 ! D3    D(8,1,2,3)           -179.9979         estimate D2E/DX2                !
 ! D4    D(8,1,2,9)              8.2468         estimate D2E/DX2                !
 ! D5    D(2,1,5,4)              0.0008         estimate D2E/DX2                !
 ! D6    D(8,1,5,4)            179.9892         estimate D2E/DX2                !
 ! D7    D(2,1,8,11)            -8.6784         estimate D2E/DX2                !
 ! D8    D(5,1,8,11)           171.3338         estimate D2E/DX2                !
 ! D9    D(1,2,3,4)              0.0138         estimate D2E/DX2                !
 ! D10   D(1,2,3,6)           -179.9953         estimate D2E/DX2                !
 ! D11   D(9,2,3,4)            165.407          estimate D2E/DX2                !
 ! D12   D(9,2,3,6)            -14.602          estimate D2E/DX2                !
 ! D13   D(1,2,9,10)           178.177          estimate D2E/DX2                !
 ! D14   D(1,2,9,11)            -1.823          estimate D2E/DX2                !
 ! D15   D(3,2,9,10)            13.1701         estimate D2E/DX2                !
 ! D16   D(3,2,9,11)          -166.8299         estimate D2E/DX2                !
 ! D17   D(2,3,4,5)             -0.0143         estimate D2E/DX2                !
 ! D18   D(2,3,4,7)            179.9942         estimate D2E/DX2                !
 ! D19   D(6,3,4,5)            179.9959         estimate D2E/DX2                !
 ! D20   D(6,3,4,7)              0.0044         estimate D2E/DX2                !
 ! D21   D(3,4,5,1)              0.008          estimate D2E/DX2                !
 ! D22   D(7,4,5,1)           -179.9996         estimate D2E/DX2                !
 ! D23   D(1,8,11,9)             6.815          estimate D2E/DX2                !
 ! D24   D(2,9,11,8)            -1.7306         estimate D2E/DX2                !
 --------------------------------------------------------------------------------
 Trust Radius=3.00D-01 FncErr=1.00D-07 GrdErr=1.00D-06 EigMax=2.50D+02 EigMin=1.00D-04
 Number of steps in this run=     65 maximum allowed number of steps=    100.
 GradGradGradGradGradGradGradGradGradGradGradGradGradGradGradGradGradGrad

                          Input orientation:                          
 ---------------------------------------------------------------------
 Center     Atomic      Atomic             Coordinates (Angstroms)
 Number     Number       Type             X           Y           Z
 ---------------------------------------------------------------------
      1          7           0        1.046004   -0.001011    0.000036
      2          7           0        0.353758   -1.122999   -0.000070
      3          6           0       -0.908335   -0.702169    0.000069
      4          6           0       -0.906862    0.703927   -0.000062
      5          7           0        0.356096    1.122284    0.000036
      6          1           0       -1.728964   -1.402222    0.000104
      7          1           0       -1.725970    1.405709   -0.000094
      8          1           0        2.055107   -0.001952   -0.000061
      9          6           0        1.623301   -2.649293    0.272318
     10          8           0        0.670181   -3.314708    0.242620
     11          8           0        2.576417   -1.983881    0.302016
 ---------------------------------------------------------------------
                    Distance matrix (angstroms):
                    1          2          3          4          5
     1  N    0.000000
     2  N    1.318356   0.000000
     3  C    2.076310   1.330405   0.000000
     4  C    2.076204   2.219644   1.406097   0.000000
     5  N    1.318243   2.245284   2.219778   1.330446   0.000000
     6  H    3.108672   2.101356   1.078659   2.260910   3.274234
     7  H    3.108489   3.274085   2.260902   1.078627   2.101268
     8  H    1.009103   2.037482   3.045044   3.044918   2.037289
     9  C    2.724116   2.003873   3.205400   4.209513   3.988075
    10  O    3.343752   2.227691   3.062010   4.323816   4.454705
    11  O    2.522921   2.402621   3.725245   4.410079   3.830049
                    6          7          8          9         10
     6  H    0.000000
     7  H    2.807933   0.000000
     8  H    4.034842   4.034607   0.000000
     9  C    3.587055   5.266390   2.696120   0.000000
    10  O    3.077712   5.299319   3.598787   1.162797   0.000000
    11  O    4.354972   5.485538   2.071487   1.162792   2.325589
                   11
    11  O    0.000000
 Stoichiometry    C3H3N3O2
 Framework group  C1[X(C3H3N3O2)]
 Deg. of freedom    27
 Full point group                 C1      NOp   1
 Largest Abelian subgroup         C1      NOp   1
 Largest concise Abelian subgroup C1      NOp   1
                         Standard orientation:                         
 ---------------------------------------------------------------------
 Center     Atomic      Atomic             Coordinates (Angstroms)
 Number     Number       Type             X           Y           Z
 ---------------------------------------------------------------------
      1          7           0       -0.639933   -0.888527    0.067832
      2          7           0       -0.042570    0.286358    0.097204
      3          6           0       -1.055294    1.145099    0.013953
      4          6           0       -2.252796    0.412246   -0.063648
      5          7           0       -1.954751   -0.883869   -0.027026
      6          1           0       -0.884025    2.210075    0.013753
      7          1           0       -3.275369    0.746543   -0.141275
      8          1           0       -0.116148   -1.749710    0.115815
      9          6           0        1.935675   -0.006761   -0.029827
     10          8           0        2.006621    1.153675   -0.008570
     11          8           0        1.864729   -1.167192   -0.051084
 ---------------------------------------------------------------------
 Rotational constants (GHZ):           5.4448888           1.6281695           1.2555175
 Standard basis: 6-31+G(d,p) (6D, 7F)
 There are   167 symmetry adapted cartesian basis functions of A   symmetry.
 There are   167 symmetry adapted basis functions of A   symmetry.
   167 basis functions,   277 primitive gaussians,   167 cartesian basis functions
    29 alpha electrons       29 beta electrons
       nuclear repulsion energy       356.7211285889 Hartrees.
 NAtoms=   11 NActive=   11 NUniq=   11 SFac= 1.00D+00 NAtFMM=   60 NAOKFM=F Big=F
 Integral buffers will be    131072 words long.
 Raffenetti 2 integral format.
 Two-electron integral symmetry is turned on.
 One-electron integrals computed using PRISM.
 NBasis=   167 RedAO= T EigKep=  3.09D-05  NBF=   167
 NBsUse=   167 1.00D-06 EigRej= -1.00D+00 NBFU=   167
 ExpMin= 4.38D-02 ExpMax= 5.48D+03 ExpMxC= 8.25D+02 IAcc=3 IRadAn=         5 AccDes= 0.00D+00
 Harris functional with IExCor= 1009 and IRadAn=       5 diagonalized for initial guess.
 HarFok:  IExCor= 1009 AccDes= 0.00D+00 IRadAn=         5 IDoV= 1 UseB2=F ITyADJ=14
 ICtDFT=  3500011 ScaDFX=  1.000000  1.000000  1.000000  1.000000
 FoFCou: FMM=F IPFlag=           0 FMFlag=      100000 FMFlg1=           0
         NFxFlg=           0 DoJE=T BraDBF=F KetDBF=T FulRan=T
         wScrn=  0.000000 ICntrl=       500 IOpCl=  0 I1Cent=   200000004 NGrid=           0
         NMat0=    1 NMatS0=      1 NMatT0=    0 NMatD0=    1 NMtDS0=    0 NMtDT0=    0
 Petite list used in FoFCou.
 Keep R1 ints in memory in canonical form, NReq=118249495.
 Requested convergence on RMS density matrix=1.00D-08 within 128 cycles.
 Requested convergence on MAX density matrix=1.00D-06.
 Requested convergence on             energy=1.00D-06.
 No special actions if energy rises.
 SCF Done:  E(RM062X) =  -430.629559460     A.U. after   14 cycles
            NFock= 14  Conv=0.67D-08     -V/T= 2.0073

 **********************************************************************

            Population analysis using the SCF density.

 **********************************************************************

 Orbital symmetries:
       Occupied  (A) (A) (A) (A) (A) (A) (A) (A) (A) (A) (A) (A)
                 (A) (A) (A) (A) (A) (A) (A) (A) (A) (A) (A) (A)
                 (A) (A) (A) (A) (A)
       Virtual   (A) (A) (A) (A) (A) (A) (A) (A) (A) (A) (A) (A)
                 (A) (A) (A) (A) (A) (A) (A) (A) (A) (A) (A) (A)
                 (A) (A) (A) (A) (A) (A) (A) (A) (A) (A) (A) (A)
                 (A) (A) (A) (A) (A) (A) (A) (A) (A) (A) (A) (A)
                 (A) (A) (A) (A) (A) (A) (A) (A) (A) (A) (A) (A)
                 (A) (A) (A) (A) (A) (A) (A) (A) (A) (A) (A) (A)
                 (A) (A) (A) (A) (A) (A) (A) (A) (A) (A) (A) (A)
                 (A) (A) (A) (A) (A) (A) (A) (A) (A) (A) (A) (A)
                 (A) (A) (A) (A) (A) (A) (A) (A) (A) (A) (A) (A)
                 (A) (A) (A) (A) (A) (A) (A) (A) (A) (A) (A) (A)
                 (A) (A) (A) (A) (A) (A) (A) (A) (A) (A) (A) (A)
                 (A) (A) (A) (A) (A) (A)
 The electronic state is 1-A.
 Alpha  occ. eigenvalues --  -19.71268 -19.69729 -14.89190 -14.82391 -14.82363
 Alpha  occ. eigenvalues --  -10.74237 -10.60115 -10.59667  -1.28519  -1.25064
 Alpha  occ. eigenvalues --   -1.22704  -1.02749  -0.94858  -0.74103  -0.73731
 Alpha  occ. eigenvalues --   -0.67292  -0.64879  -0.59808  -0.59178  -0.58788
 Alpha  occ. eigenvalues --   -0.56938  -0.53845  -0.53441  -0.43854  -0.42875
 Alpha  occ. eigenvalues --   -0.41287  -0.37605  -0.37159  -0.34858
 Alpha virt. eigenvalues --    0.00910   0.00949   0.02715   0.03615   0.04514
 Alpha virt. eigenvalues --    0.04754   0.05554   0.05669   0.07474   0.08162
 Alpha virt. eigenvalues --    0.09069   0.10048   0.10120   0.10382   0.12346
 Alpha virt. eigenvalues --    0.12844   0.14789   0.15982   0.18284   0.19805
 Alpha virt. eigenvalues --    0.20835   0.21054   0.22600   0.23000   0.23572
 Alpha virt. eigenvalues --    0.23655   0.25419   0.26556   0.27200   0.27663
 Alpha virt. eigenvalues --    0.28382   0.28700   0.29367   0.31821   0.32612
 Alpha virt. eigenvalues --    0.33188   0.34029   0.34719   0.36223   0.38777
 Alpha virt. eigenvalues --    0.40810   0.42742   0.45538   0.50175   0.55351
 Alpha virt. eigenvalues --    0.70820   0.71861   0.73530   0.75483   0.76823
 Alpha virt. eigenvalues --    0.83912   0.86312   0.89208   0.91004   0.91042
 Alpha virt. eigenvalues --    0.92554   0.93403   0.95805   0.98037   0.98878
 Alpha virt. eigenvalues --    1.00585   1.02025   1.02880   1.04979   1.10596
 Alpha virt. eigenvalues --    1.14941   1.19698   1.20830   1.24643   1.27352
 Alpha virt. eigenvalues --    1.28804   1.29661   1.31429   1.32181   1.35796
 Alpha virt. eigenvalues --    1.37316   1.39165   1.40597   1.42664   1.43995
 Alpha virt. eigenvalues --    1.49346   1.49799   1.50004   1.53716   1.56691
 Alpha virt. eigenvalues --    1.57749   1.60423   1.70302   1.79956   1.80324
 Alpha virt. eigenvalues --    1.87647   1.90784   1.96416   2.00507   2.06073
 Alpha virt. eigenvalues --    2.07023   2.09891   2.10513   2.16946   2.18934
 Alpha virt. eigenvalues --    2.20282   2.21386   2.22297   2.26277   2.26691
 Alpha virt. eigenvalues --    2.28901   2.33420   2.42474   2.44057   2.51038
 Alpha virt. eigenvalues --    2.54411   2.61852   2.66660   2.66717   2.71569
 Alpha virt. eigenvalues --    2.73407   2.75046   2.81004   2.84951   2.92898
 Alpha virt. eigenvalues --    3.04204   3.05140   3.10139   3.13864   3.15801
 Alpha virt. eigenvalues --    3.28535   3.36106   3.40888   3.55290   3.70806
 Alpha virt. eigenvalues --    4.02762   4.20381   4.24494   4.28043   4.43191
 Alpha virt. eigenvalues --    4.64941   4.69048   4.93889
          Condensed to atoms (all electrons):
               1          2          3          4          5          6
     1  N    7.239723   0.214579  -0.153204   0.038268  -0.314250   0.009312
     2  N    0.214579   6.699648   0.298862  -0.004421   0.005357  -0.053711
     3  C   -0.153204   0.298862   5.440283   0.113992   0.081501   0.403785
     4  C    0.038268  -0.004421   0.113992   5.380782   0.255613  -0.020748
     5  N   -0.314250   0.005357   0.081501   0.255613   7.145713  -0.001962
     6  H    0.009312  -0.053711   0.403785  -0.020748  -0.001962   0.474670
     7  H    0.014996  -0.013324  -0.000124   0.374986  -0.049537   0.000447
     8  H    0.292067  -0.009696   0.010255   0.007246  -0.015301  -0.000050
     9  C   -0.002375   0.041230  -0.007105  -0.009489  -0.022551  -0.002801
    10  O   -0.018445  -0.041130  -0.052499   0.032061  -0.014673   0.001135
    11  O    0.021323  -0.074318  -0.001012  -0.003201   0.003041  -0.000251
               7          8          9         10         11
     1  N    0.014996   0.292067  -0.002375  -0.018445   0.021323
     2  N   -0.013324  -0.009696   0.041230  -0.041130  -0.074318
     3  C   -0.000124   0.010255  -0.007105  -0.052499  -0.001012
     4  C    0.374986   0.007246  -0.009489   0.032061  -0.003201
     5  N   -0.049537  -0.015301  -0.022551  -0.014673   0.003041
     6  H    0.000447  -0.000050  -0.002801   0.001135  -0.000251
     7  H    0.488510  -0.000024  -0.000055  -0.000052   0.000020
     8  H   -0.000024   0.334423  -0.002247   0.000007  -0.001139
     9  C   -0.000055  -0.002247   4.411466   0.425195   0.403551
    10  O   -0.000052   0.000007   0.425195   8.100500  -0.091993
    11  O    0.000020  -0.001139   0.403551  -0.091993   8.150002
 Mulliken charges:
               1
     1  N   -0.341992
     2  N   -0.063076
     3  C   -0.134733
     4  C   -0.165089
     5  N   -0.072950
     6  H    0.190173
     7  H    0.184156
     8  H    0.384459
     9  C    0.765183
    10  O   -0.340106
    11  O   -0.406025
 Sum of Mulliken charges =  -0.00000
 Mulliken charges with hydrogens summed into heavy atoms:
               1
     1  N    0.042467
     2  N   -0.063076
     3  C    0.055440
     4  C    0.019067
     5  N   -0.072950
     9  C    0.765183
    10  O   -0.340106
    11  O   -0.406025
 Electronic spatial extent (au):  <R**2>=            856.1331
 Charge=             -0.0000 electrons
 Dipole moment (field-independent basis, Debye):
    X=             -1.0648    Y=              0.4554    Z=              0.0433  Tot=              1.1589
 Quadrupole moment (field-independent basis, Debye-Ang):
   XX=            -46.3102   YY=            -43.9382   ZZ=            -45.4579
   XY=             -5.8361   XZ=              0.2183   YZ=             -0.5754
 Traceless Quadrupole moment (field-independent basis, Debye-Ang):
   XX=             -1.0748   YY=              1.2972   ZZ=             -0.2224
   XY=             -5.8361   XZ=              0.2183   YZ=             -0.5754
 Octapole moment (field-independent basis, Debye-Ang**2):
  XXX=              3.1268  YYY=             -0.7161  ZZZ=              0.0294  XYY=             -3.2547
  XXY=             11.3643  XXZ=             -0.8096  XZZ=              7.9385  YZZ=             -1.7105
  YYZ=              0.9260  XYZ=              0.2785
 Hexadecapole moment (field-independent basis, Debye-Ang**3):
 XXXX=           -741.4272 YYYY=           -237.8094 ZZZZ=            -44.8837 XXXY=            -40.3121
 XXXZ=              3.7449 YYYX=            -11.9745 YYYZ=             -1.5412 ZZZX=             -0.8735
 ZZZY=             -0.1892 XXYY=           -204.1857 XXZZ=           -140.8815 YYZZ=            -54.0612
 XXYZ=             -1.7468 YYXZ=              0.2081 ZZXY=              1.2985
 N-N= 3.567211285889D+02 E-N=-1.719747143675D+03  KE= 4.275175951495D+02
 Calling FoFJK, ICntrl=      2127 FMM=F ISym2X=0 I1Cent= 0 IOpClX= 0 NMat=1 NMatS=1 NMatT=0.
 ***** Axes restored to original set *****
 -------------------------------------------------------------------
 Center     Atomic                   Forces (Hartrees/Bohr)
 Number     Number              X              Y              Z
 -------------------------------------------------------------------
      1        7          -0.006177992    0.018535222   -0.001642629
      2        7          -0.021035617    0.073041925   -0.008854615
      3        6          -0.004572078   -0.001953806   -0.000099532
      4        6          -0.001509914   -0.001602539   -0.000267083
      5        7           0.002461311   -0.005302305   -0.000254575
      6        1          -0.000036505   -0.000822035    0.000196114
      7        1          -0.000439035   -0.000444916    0.000139317
      8        1           0.001753430   -0.001609383    0.000604191
      9        6          -0.025758451   -0.009404147   -0.002547972
     10        8           0.019960417   -0.058284652    0.008502385
     11        8           0.035354434   -0.012153364    0.004224400
 -------------------------------------------------------------------
 Cartesian Forces:  Max     0.073041925 RMS     0.019347861

 GradGradGradGradGradGradGradGradGradGradGradGradGradGradGradGradGradGrad
 Berny optimization.
 FormGI is forming the generalized inverse of G from B-inverse, IUseBI=4.
 Internal  Forces:  Max     0.073249178 RMS     0.016583310
 Search for a local minimum.
 Step number   1 out of a maximum of   65
 All quantities printed in internal units (Hartrees-Bohrs-Radians)
 Mixed Optimization -- RFO/linear search
 Second derivative matrix not updated -- first step.
 ITU=  0
     Eigenvalues ---    0.00780   0.01667   0.01787   0.02078   0.02156
     Eigenvalues ---    0.02351   0.02373   0.02534   0.05302   0.10278
     Eigenvalues ---    0.13582   0.16000   0.16000   0.18677   0.22560
     Eigenvalues ---    0.22626   0.23355   0.36157   0.36161   0.40635
     Eigenvalues ---    0.44631   0.50662   0.54989   0.59321   0.61000
     Eigenvalues ---    1.20174   1.25981
 RFO step:  Lambda=-7.03624265D-02 EMin= 7.79950144D-03
 Linear search not attempted -- first point.
 Maximum step size (   0.300) exceeded in Quadratic search.
    -- Step size scaled by   0.498
 Iteration  1 RMS(Cart)=  0.06825935 RMS(Int)=  0.00333676
 Iteration  2 RMS(Cart)=  0.00297555 RMS(Int)=  0.00003027
 Iteration  3 RMS(Cart)=  0.00000461 RMS(Int)=  0.00003011
 Iteration  4 RMS(Cart)=  0.00000000 RMS(Int)=  0.00003011
 Variable       Old X    -DE/DX   Delta X   Delta X   Delta X     New X
                                 (Linear)    (Quad)   (Total)
    R1        2.49133  -0.00090   0.00000  -0.00194  -0.00199   2.48934
    R2        2.49112  -0.00407   0.00000  -0.00286  -0.00287   2.48825
    R3        1.90693   0.00720   0.00000   0.01136   0.01132   1.91825
    R4        2.51410   0.00107   0.00000   0.00017   0.00017   2.51428
    R5        3.78677   0.06807   0.00000   0.19480   0.19480   3.98157
    R6        2.65714  -0.00166   0.00000  -0.00105  -0.00104   2.65609
    R7        2.03837   0.00056   0.00000   0.00065   0.00065   2.03902
    R8        2.51418   0.00388   0.00000   0.00380   0.00381   2.51798
    R9        2.03831   0.00004   0.00000   0.00005   0.00005   2.03836
   R10        3.91454   0.01314   0.00000   0.08317   0.08319   3.99773
   R11        2.19737   0.01677   0.00000   0.00628   0.00628   2.20364
   R12        2.19736   0.02449   0.00000   0.00849   0.00854   2.20590
    A1        2.03800  -0.00211   0.00000  -0.00700  -0.00698   2.03102
    A2        2.12268  -0.00497   0.00000  -0.00834  -0.00841   2.11426
    A3        2.12251   0.00708   0.00000   0.01534   0.01539   2.13790
    A4        1.80176   0.00359   0.00000   0.00948   0.00949   1.81125
    A5        1.89183   0.00057   0.00000  -0.01154  -0.01159   1.88024
    A6        2.57165  -0.00425   0.00000   0.00192   0.00196   2.57361
    A7        1.89159  -0.00280   0.00000  -0.00676  -0.00677   1.88483
    A8        2.11347   0.00078   0.00000   0.00205   0.00205   2.11552
    A9        2.27812   0.00202   0.00000   0.00472   0.00472   2.28284
   A10        1.89172  -0.00009   0.00000   0.00113   0.00112   1.89284
   A11        2.27816  -0.00060   0.00000  -0.00195  -0.00195   2.27621
   A12        2.11331   0.00069   0.00000   0.00082   0.00082   2.11413
   A13        1.80170   0.00141   0.00000   0.00315   0.00312   1.80483
   A14        1.82610   0.01391   0.00000   0.03533   0.03525   1.86135
   A15        1.48378   0.07325   0.00000   0.15297   0.15293   1.63671
   A16        1.65781  -0.01491   0.00000  -0.01386  -0.01379   1.64402
   A17        1.91507   0.00539   0.00000  -0.00129  -0.00118   1.91389
   A18        3.14159   0.05833   0.00000   0.13910   0.13914   3.28073
   A19        3.14159  -0.00009   0.00000  -0.00299  -0.00298   3.13862
    D1       -0.00017  -0.00071   0.00000  -0.00166  -0.00167  -0.00183
    D2       -2.99786   0.00021   0.00000  -0.00146  -0.00147  -2.99933
    D3       -3.14156  -0.00132   0.00000  -0.00277  -0.00277   3.13886
    D4        0.14393  -0.00040   0.00000  -0.00257  -0.00258   0.14136
    D5        0.00001   0.00051   0.00000   0.00092   0.00091   0.00093
    D6        3.14140   0.00112   0.00000   0.00202   0.00204  -3.13975
    D7       -0.15147  -0.00065   0.00000   0.00014   0.00014  -0.15133
    D8        2.99034  -0.00129   0.00000  -0.00102  -0.00103   2.98930
    D9        0.00024   0.00059   0.00000   0.00164   0.00164   0.00188
   D10       -3.14151   0.00025   0.00000   0.00151   0.00151  -3.14000
   D11        2.88690   0.00071   0.00000  -0.00050  -0.00050   2.88639
   D12       -0.25485   0.00037   0.00000  -0.00063  -0.00063  -0.25549
   D13        3.10977  -0.00079   0.00000  -0.00463  -0.00463   3.10514
   D14       -0.03182  -0.00070   0.00000  -0.00164  -0.00166  -0.03348
   D15        0.22986  -0.00109   0.00000  -0.00406  -0.00406   0.22580
   D16       -2.91173  -0.00100   0.00000  -0.00107  -0.00108  -2.91281
   D17       -0.00025  -0.00033   0.00000  -0.00121  -0.00121  -0.00146
   D18        3.14149  -0.00018   0.00000   0.00007   0.00007   3.14156
   D19        3.14152   0.00005   0.00000  -0.00107  -0.00106   3.14046
   D20        0.00008   0.00020   0.00000   0.00022   0.00022   0.00030
   D21        0.00014  -0.00008   0.00000   0.00021   0.00022   0.00036
   D22       -3.14159  -0.00022   0.00000  -0.00093  -0.00093   3.14067
   D23        0.11894   0.00021   0.00000  -0.00210  -0.00211   0.11683
   D24       -0.03020   0.00050   0.00000   0.00271   0.00267  -0.02753
         Item               Value     Threshold  Converged?
 Maximum Force            0.073249     0.000450     NO 
 RMS     Force            0.016583     0.000300     NO 
 Maximum Displacement     0.347071     0.001800     NO 
 RMS     Displacement     0.068459     0.001200     NO 
 Predicted change in Energy=-2.948091D-02
 GradGradGradGradGradGradGradGradGradGradGradGradGradGradGradGradGradGrad

                          Input orientation:                          
 ---------------------------------------------------------------------
 Center     Atomic      Atomic             Coordinates (Angstroms)
 Number     Number       Type             X           Y           Z
 ---------------------------------------------------------------------
      1          7           0        1.026019    0.023559   -0.001875
      2          7           0        0.318605   -1.087664   -0.008083
      3          6           0       -0.941629   -0.661010   -0.007225
      4          6           0       -0.924187    0.744420   -0.002766
      5          7           0        0.344903    1.150430    0.000866
      6          1           0       -1.767153   -1.355811   -0.010017
      7          1           0       -1.736674    1.453895   -0.000861
      8          1           0        2.040827   -0.000238    0.001395
      9          6           0        1.649152   -2.696905    0.273454
     10          8           0        0.802113   -3.498370    0.270265
     11          8           0        2.598756   -2.018621    0.301760
 ---------------------------------------------------------------------
                    Distance matrix (angstroms):
                    1          2          3          4          5
     1  N    0.000000
     2  N    1.317304   0.000000
     3  C    2.083339   1.330497   0.000000
     4  C    2.079169   2.213840   1.405545   0.000000
     5  N    1.316725   2.238266   2.221833   1.332459   0.000000
     6  H    3.115211   2.102925   1.079003   2.263098   3.277521
     7  H    3.111002   3.268600   2.259416   1.078654   2.103582
     8  H    1.015093   2.036820   3.054789   3.057097   2.049438
     9  C    2.804465   2.106959   3.306931   4.305936   4.071529
    10  O    3.539517   2.474421   3.341893   4.588673   4.678991
    11  O    2.595418   2.482292   3.804327   4.487567   3.900419
                    6          7          8          9         10
     6  H    0.000000
     7  H    2.809886   0.000000
     8  H    4.042081   4.047719   0.000000
     9  C    3.681036   5.363600   2.738510   0.000000
    10  O    3.357118   5.571703   3.720703   1.166118   0.000000
    11  O    4.426927   5.562904   2.115507   1.167313   2.327784
                   11
    11  O    0.000000
 Stoichiometry    C3H3N3O2
 Framework group  C1[X(C3H3N3O2)]
 Deg. of freedom    27
 Full point group                 C1      NOp   1
 Largest Abelian subgroup         C1      NOp   1
 Largest concise Abelian subgroup C1      NOp   1
                         Standard orientation:                         
 ---------------------------------------------------------------------
 Center     Atomic      Atomic             Coordinates (Angstroms)
 Number     Number       Type             X           Y           Z
 ---------------------------------------------------------------------
      1          7           0       -0.697216   -0.876815    0.066365
      2          7           0       -0.105985    0.299816    0.102090
      3          6           0       -1.114297    1.163767    0.017721
      4          6           0       -2.309689    0.429136   -0.065412
      5          7           0       -2.010221   -0.868810   -0.032209
      6          1           0       -0.939971    2.228590    0.020916
      7          1           0       -3.331996    0.763699   -0.145728
      8          1           0       -0.159057   -1.736287    0.112263
      9          6           0        1.972327   -0.022285   -0.024957
     10          8           0        2.227075    1.115635   -0.016344
     11          8           0        1.877291   -1.185517   -0.046816
 ---------------------------------------------------------------------
 Rotational constants (GHZ):           5.4725676           1.4986527           1.1784368
 Standard basis: 6-31+G(d,p) (6D, 7F)
 There are   167 symmetry adapted cartesian basis functions of A   symmetry.
 There are   167 symmetry adapted basis functions of A   symmetry.
   167 basis functions,   277 primitive gaussians,   167 cartesian basis functions
    29 alpha electrons       29 beta electrons
       nuclear repulsion energy       350.7708086797 Hartrees.
 NAtoms=   11 NActive=   11 NUniq=   11 SFac= 1.00D+00 NAtFMM=   60 NAOKFM=F Big=F
 Integral buffers will be    131072 words long.
 Raffenetti 2 integral format.
 Two-electron integral symmetry is turned on.
 One-electron integrals computed using PRISM.
 NBasis=   167 RedAO= T EigKep=  3.34D-05  NBF=   167
 NBsUse=   167 1.00D-06 EigRej= -1.00D+00 NBFU=   167
 Initial guess from the checkpoint file:  "/scratch/gongke2021/RC/Gau-15530.chk"
 B after Tr=     0.000000   -0.000000    0.000000
         Rot=    0.999966    0.000395    0.000441    0.008263 Ang=   0.95 deg.
 ExpMin= 4.38D-02 ExpMax= 5.48D+03 ExpMxC= 8.25D+02 IAcc=2 IRadAn=         4 AccDes= 0.00D+00
 Harris functional with IExCor= 1009 and IRadAn=       4 diagonalized for initial guess.
 HarFok:  IExCor= 1009 AccDes= 0.00D+00 IRadAn=         4 IDoV= 1 UseB2=F ITyADJ=14
 ICtDFT=  3500011 ScaDFX=  1.000000  1.000000  1.000000  1.000000
 FoFCou: FMM=F IPFlag=           0 FMFlag=      100000 FMFlg1=           0
         NFxFlg=           0 DoJE=T BraDBF=F KetDBF=T FulRan=T
         wScrn=  0.000000 ICntrl=       500 IOpCl=  0 I1Cent=   200000004 NGrid=           0
         NMat0=    1 NMatS0=      1 NMatT0=    0 NMatD0=    1 NMtDS0=    0 NMtDT0=    0
 Petite list used in FoFCou.
 Keep R1 ints in memory in canonical form, NReq=118249495.
 Requested convergence on RMS density matrix=1.00D-08 within 128 cycles.
 Requested convergence on MAX density matrix=1.00D-06.
 Requested convergence on             energy=1.00D-06.
 No special actions if energy rises.
 SCF Done:  E(RM062X) =  -430.653149081     A.U. after   13 cycles
            NFock= 13  Conv=0.46D-08     -V/T= 2.0078
 Calling FoFJK, ICntrl=      2127 FMM=F ISym2X=0 I1Cent= 0 IOpClX= 0 NMat=1 NMatS=1 NMatT=0.
 ***** Axes restored to original set *****
 -------------------------------------------------------------------
 Center     Atomic                   Forces (Hartrees/Bohr)
 Number     Number              X              Y              Z
 -------------------------------------------------------------------
      1        7          -0.000591799    0.011244047   -0.001194706
      2        7          -0.013770298    0.032549367   -0.003651630
      3        6          -0.002269384   -0.000378009   -0.000288462
      4        6          -0.000272208   -0.000816880   -0.000130494
      5        7           0.000865548   -0.004215798   -0.000311019
      6        1           0.000290631   -0.000319250    0.000109276
      7        1          -0.000116651   -0.000196726    0.000084752
      8        1          -0.002952120   -0.000728880    0.000603212
      9        6          -0.013006778   -0.018426759    0.000183873
     10        8           0.012823231   -0.014776973    0.002941340
     11        8           0.018999827   -0.003934141    0.001653858
 -------------------------------------------------------------------
 Cartesian Forces:  Max     0.032549367 RMS     0.009053129

 GradGradGradGradGradGradGradGradGradGradGradGradGradGradGradGradGradGrad
 Berny optimization.
 Using GEDIIS/GDIIS optimizer.
 FormGI is forming the generalized inverse of G from B-inverse, IUseBI=4.
 Internal  Forces:  Max     0.032878688 RMS     0.006669902
 Search for a local minimum.
 Step number   2 out of a maximum of   65
 All quantities printed in internal units (Hartrees-Bohrs-Radians)
 Mixed Optimization -- RFO/linear search
 Update second derivatives using D2CorX and points    1    2
 DE= -2.36D-02 DEPred=-2.95D-02 R= 8.00D-01
 TightC=F SS=  1.41D+00  RLast= 3.00D-01 DXNew= 5.0454D-01 9.0043D-01
 Trust test= 8.00D-01 RLast= 3.00D-01 DXMaxT set to 5.05D-01
 ITU=  1  0
 Use linear search instead of GDIIS.
 Linear search step of   0.507 exceeds DXMaxT=   0.505 but not scaled.
 Quartic linear search produced a step of  1.69159.
 Iteration  1 RMS(Cart)=  0.08235495 RMS(Int)=  0.02029355
 Iteration  2 RMS(Cart)=  0.03485110 RMS(Int)=  0.00064683
 Iteration  3 RMS(Cart)=  0.00066663 RMS(Int)=  0.00012828
 Iteration  4 RMS(Cart)=  0.00000059 RMS(Int)=  0.00012828
 Variable       Old X    -DE/DX   Delta X   Delta X   Delta X     New X
                                 (Linear)    (Quad)   (Total)
    R1        2.48934  -0.00025  -0.00336   0.00000  -0.00357   2.48577
    R2        2.48825  -0.00315  -0.00485   0.00000  -0.00487   2.48338
    R3        1.91825   0.00135   0.01915   0.00000   0.01899   1.93723
    R4        2.51428   0.00033   0.00030   0.00000   0.00030   2.51458
    R5        3.98157   0.03288   0.32953   0.00000   0.32953   4.31111
    R6        2.65609  -0.00124  -0.00177   0.00000  -0.00174   2.65435
    R7        2.03902  -0.00002   0.00110   0.00000   0.00110   2.04012
    R8        2.51798   0.00122   0.00644   0.00000   0.00645   2.52443
    R9        2.03836  -0.00004   0.00009   0.00000   0.00009   2.03845
   R10        3.99773   0.00781   0.14072   0.00000   0.14079   4.13852
   R11        2.20364   0.00083   0.01062   0.00000   0.01062   2.21426
   R12        2.20590   0.01384   0.01445   0.00000   0.01465   2.22055
    A1        2.03102  -0.00125  -0.01180   0.00000  -0.01171   2.01931
    A2        2.11426  -0.00250  -0.01423   0.00000  -0.01455   2.09972
    A3        2.13790   0.00375   0.02603   0.00000   0.02625   2.16415
    A4        1.81125   0.00166   0.01605   0.00000   0.01610   1.82735
    A5        1.88024  -0.00029  -0.01960   0.00000  -0.01982   1.86042
    A6        2.57361  -0.00138   0.00332   0.00000   0.00350   2.57711
    A7        1.88483  -0.00143  -0.01145   0.00000  -0.01147   1.87335
    A8        2.11552   0.00028   0.00346   0.00000   0.00348   2.11900
    A9        2.28284   0.00116   0.00798   0.00000   0.00799   2.29083
   A10        1.89284  -0.00014   0.00190   0.00000   0.00188   1.89472
   A11        2.27621  -0.00016  -0.00330   0.00000  -0.00329   2.27292
   A12        2.11413   0.00030   0.00139   0.00000   0.00140   2.11554
   A13        1.80483   0.00117   0.00529   0.00000   0.00519   1.81002
   A14        1.86135   0.00837   0.05963   0.00000   0.05934   1.92069
   A15        1.63671   0.02450   0.25869   0.00000   0.25853   1.89524
   A16        1.64402  -0.00545  -0.02332   0.00000  -0.02300   1.62102
   A17        1.91389  -0.00011  -0.00199   0.00000  -0.00151   1.91238
   A18        3.28073   0.01905   0.23537   0.00000   0.23553   3.51626
   A19        3.13862   0.00009  -0.00503   0.00000  -0.00499   3.13362
    D1       -0.00183  -0.00034  -0.00282   0.00000  -0.00285  -0.00469
    D2       -2.99933  -0.00011  -0.00249   0.00000  -0.00253  -3.00186
    D3        3.13886  -0.00064  -0.00469   0.00000  -0.00471   3.13414
    D4        0.14136  -0.00041  -0.00436   0.00000  -0.00439   0.13697
    D5        0.00093   0.00025   0.00155   0.00000   0.00154   0.00247
    D6       -3.13975   0.00056   0.00344   0.00000   0.00350  -3.13624
    D7       -0.15133  -0.00020   0.00024   0.00000   0.00021  -0.15112
    D8        2.98930  -0.00053  -0.00175   0.00000  -0.00184   2.98746
    D9        0.00188   0.00027   0.00278   0.00000   0.00282   0.00471
   D10       -3.14000   0.00011   0.00256   0.00000   0.00259  -3.13741
   D11        2.88639   0.00040  -0.00085   0.00000  -0.00085   2.88554
   D12       -0.25549   0.00024  -0.00107   0.00000  -0.00108  -0.25657
   D13        3.10514  -0.00024  -0.00784   0.00000  -0.00787   3.09727
   D14       -0.03348  -0.00032  -0.00281   0.00000  -0.00288  -0.03635
   D15        0.22580  -0.00051  -0.00687   0.00000  -0.00688   0.21892
   D16       -2.91281  -0.00059  -0.00183   0.00000  -0.00189  -2.91470
   D17       -0.00146  -0.00014  -0.00205   0.00000  -0.00205  -0.00352
   D18        3.14156  -0.00008   0.00012   0.00000   0.00011  -3.14151
   D19        3.14046   0.00004  -0.00180   0.00000  -0.00179   3.13867
   D20        0.00030   0.00010   0.00037   0.00000   0.00038   0.00068
   D21        0.00036  -0.00006   0.00036   0.00000   0.00037   0.00073
   D22        3.14067  -0.00011  -0.00157   0.00000  -0.00157   3.13911
   D23        0.11683  -0.00013  -0.00358   0.00000  -0.00363   0.11320
   D24       -0.02753   0.00040   0.00452   0.00000   0.00435  -0.02318
         Item               Value     Threshold  Converged?
 Maximum Force            0.032879     0.000450     NO 
 RMS     Force            0.006670     0.000300     NO 
 Maximum Displacement     0.521579     0.001800     NO 
 RMS     Displacement     0.114914     0.001200     NO 
 Predicted change in Energy=-6.053183D-03
 GradGradGradGradGradGradGradGradGradGradGradGradGradGradGradGradGradGrad

                          Input orientation:                          
 ---------------------------------------------------------------------
 Center     Atomic      Atomic             Coordinates (Angstroms)
 Number     Number       Type             X           Y           Z
 ---------------------------------------------------------------------
      1          7           0        0.990476    0.059383   -0.004496
      2          7           0        0.254701   -1.030880   -0.021127
      3          6           0       -1.001079   -0.590810   -0.019606
      4          6           0       -0.952626    0.812926   -0.007514
      5          7           0        0.327666    1.194114    0.002487
      6          1           0       -1.836764   -1.274236   -0.027427
      7          1           0       -1.751662    1.537571   -0.002673
      8          1           0        2.013425   -0.006991    0.004657
      9          6           0        1.682643   -2.785158    0.275530
     10          8           0        1.055873   -3.774377    0.315192
     11          8           0        2.628080   -2.087855    0.301889
 ---------------------------------------------------------------------
                    Distance matrix (angstroms):
                    1          2          3          4          5
     1  N    0.000000
     2  N    1.315415   0.000000
     3  C    2.095059   1.330656   0.000000
     4  C    2.084102   2.203961   1.404624   0.000000
     5  N    1.314146   2.226316   2.225311   1.335871   0.000000
     6  H    3.126076   2.105585   1.079584   2.266790   3.283048
     7  H    3.115183   3.259260   2.256915   1.078700   2.107509
     8  H    1.025141   2.035221   3.070613   3.077315   2.069889
     9  C    2.940906   2.281341   3.479171   4.468888   4.212496
    10  O    3.847623   2.877805   3.805029   5.018123   5.031300
    11  O    2.717766   2.618103   3.938946   4.618626   4.019063
                    6          7          8          9         10
     6  H    0.000000
     7  H    2.813203   0.000000
     8  H    4.053504   4.069595   0.000000
     9  C    3.841991   5.527914   2.810872   0.000000
    10  O    3.838678   6.016651   3.899556   1.171737   0.000000
    11  O    4.550303   5.693734   2.190009   1.175065   2.305725
                   11
    11  O    0.000000
 Stoichiometry    C3H3N3O2
 Framework group  C1[X(C3H3N3O2)]
 Deg. of freedom    27
 Full point group                 C1      NOp   1
 Largest Abelian subgroup         C1      NOp   1
 Largest concise Abelian subgroup C1      NOp   1
                         Standard orientation:                         
 ---------------------------------------------------------------------
 Center     Atomic      Atomic             Coordinates (Angstroms)
 Number     Number       Type             X           Y           Z
 ---------------------------------------------------------------------
      1          7           0       -0.779728   -0.857557    0.064034
      2          7           0       -0.215648    0.329913    0.109288
      3          6           0       -1.228607    1.188431    0.022642
      4          6           0       -2.409923    0.434059   -0.068911
      5          7           0       -2.089705   -0.862553   -0.040444
      6          1           0       -1.064109    2.255379    0.030673
      7          1           0       -3.436393    0.754597   -0.153811
      8          1           0       -0.204911   -1.705279    0.107233
      9          6           0        2.036217   -0.013241   -0.016673
     10          8           0        2.572714    1.028394   -0.028276
     11          8           0        1.916643   -1.181997   -0.038799
 ---------------------------------------------------------------------
 Rotational constants (GHZ):           5.6376196           1.3097633           1.0645675
 Standard basis: 6-31+G(d,p) (6D, 7F)
 There are   167 symmetry adapted cartesian basis functions of A   symmetry.
 There are   167 symmetry adapted basis functions of A   symmetry.
   167 basis functions,   277 primitive gaussians,   167 cartesian basis functions
    29 alpha electrons       29 beta electrons
       nuclear repulsion energy       342.4191137826 Hartrees.
 NAtoms=   11 NActive=   11 NUniq=   11 SFac= 1.00D+00 NAtFMM=   60 NAOKFM=F Big=F
 Integral buffers will be    131072 words long.
 Raffenetti 2 integral format.
 Two-electron integral symmetry is turned on.
 One-electron integrals computed using PRISM.
 NBasis=   167 RedAO= T EigKep=  3.69D-05  NBF=   167
 NBsUse=   167 1.00D-06 EigRej= -1.00D+00 NBFU=   167
 Initial guess from the checkpoint file:  "/scratch/gongke2021/RC/Gau-15530.chk"
 B after Tr=    -0.000000   -0.000000   -0.000000
         Rot=    0.999964    0.000992    0.000793    0.008401 Ang=   0.97 deg.
 ExpMin= 4.38D-02 ExpMax= 5.48D+03 ExpMxC= 8.25D+02 IAcc=2 IRadAn=         4 AccDes= 0.00D+00
 Harris functional with IExCor= 1009 and IRadAn=       4 diagonalized for initial guess.
 HarFok:  IExCor= 1009 AccDes= 0.00D+00 IRadAn=         4 IDoV= 1 UseB2=F ITyADJ=14
 ICtDFT=  3500011 ScaDFX=  1.000000  1.000000  1.000000  1.000000
 FoFCou: FMM=F IPFlag=           0 FMFlag=      100000 FMFlg1=           0
         NFxFlg=           0 DoJE=T BraDBF=F KetDBF=T FulRan=T
         wScrn=  0.000000 ICntrl=       500 IOpCl=  0 I1Cent=   200000004 NGrid=           0
         NMat0=    1 NMatS0=      1 NMatT0=    0 NMatD0=    1 NMtDS0=    0 NMtDT0=    0
 Petite list used in FoFCou.
 Keep R1 ints in memory in canonical form, NReq=118249495.
 Requested convergence on RMS density matrix=1.00D-08 within 128 cycles.
 Requested convergence on MAX density matrix=1.00D-06.
 Requested convergence on             energy=1.00D-06.
 No special actions if energy rises.
 SCF Done:  E(RM062X) =  -430.659385425     A.U. after   15 cycles
            NFock= 15  Conv=0.43D-08     -V/T= 2.0083
 Calling FoFJK, ICntrl=      2127 FMM=F ISym2X=0 I1Cent= 0 IOpClX= 0 NMat=1 NMatS=1 NMatT=0.
 ***** Axes restored to original set *****
 -------------------------------------------------------------------
 Center     Atomic                   Forces (Hartrees/Bohr)
 Number     Number              X              Y              Z
 -------------------------------------------------------------------
      1        7           0.004760574    0.002158514   -0.000851733
      2        7          -0.005853324   -0.000612515    0.000247301
      3        6           0.002089863    0.002429812   -0.000538615
      4        6           0.001973217    0.000546294    0.000111535
      5        7          -0.001579662   -0.000369520   -0.000187893
      6        1           0.000783795    0.000388151   -0.000025036
      7        1           0.000415857    0.000258099    0.000007476
      8        1          -0.010479449    0.001538361    0.000476680
      9        6           0.024153033   -0.038005877    0.006534483
     10        8          -0.010523190    0.019850732   -0.003284230
     11        8          -0.005740713    0.011817949   -0.002489968
 -------------------------------------------------------------------
 Cartesian Forces:  Max     0.038005877 RMS     0.009468459

 GradGradGradGradGradGradGradGradGradGradGradGradGradGradGradGradGradGrad
 Berny optimization.
 Using GEDIIS/GDIIS optimizer.
 FormGI is forming the generalized inverse of G from B-inverse, IUseBI=4.
 Internal  Forces:  Max     0.024805808 RMS     0.004999787
 Search for a local minimum.
 Step number   3 out of a maximum of   65
 All quantities printed in internal units (Hartrees-Bohrs-Radians)
 Mixed Optimization -- RFO/linear search
 Update second derivatives using D2CorX and points    2    3
 ITU=  0  1  0
 Use linear search instead of GDIIS.
     Eigenvalues ---    0.00739   0.01618   0.01776   0.02065   0.02156
     Eigenvalues ---    0.02353   0.02373   0.02516   0.05410   0.08359
     Eigenvalues ---    0.15992   0.16000   0.17135   0.18585   0.21261
     Eigenvalues ---    0.22635   0.23555   0.36159   0.36161   0.40727
     Eigenvalues ---    0.45035   0.50706   0.55193   0.59446   0.61043
     Eigenvalues ---    1.19994   1.25913
 RFO step:  Lambda=-4.34386770D-03 EMin= 7.38777237D-03
 Quartic linear search produced a step of -0.31913.
 Iteration  1 RMS(Cart)=  0.02708913 RMS(Int)=  0.00197819
 Iteration  2 RMS(Cart)=  0.00184938 RMS(Int)=  0.00002971
 Iteration  3 RMS(Cart)=  0.00000104 RMS(Int)=  0.00002970
 Iteration  4 RMS(Cart)=  0.00000000 RMS(Int)=  0.00002970
 Variable       Old X    -DE/DX   Delta X   Delta X   Delta X     New X
                                 (Linear)    (Quad)   (Total)
    R1        2.48577  -0.00010   0.00114  -0.00111   0.00000   2.48578
    R2        2.48338  -0.00075   0.00156  -0.00297  -0.00142   2.48196
    R3        1.93723  -0.00986  -0.00606  -0.01310  -0.01918   1.91805
    R4        2.51458  -0.00057  -0.00010  -0.00020  -0.00030   2.51428
    R5        4.31111   0.00802  -0.10516   0.17488   0.06971   4.38082
    R6        2.65435   0.00007   0.00056  -0.00086  -0.00031   2.65405
    R7        2.04012  -0.00085  -0.00035  -0.00151  -0.00186   2.03826
    R8        2.52443  -0.00367  -0.00206  -0.00321  -0.00527   2.51917
    R9        2.03845  -0.00013  -0.00003  -0.00028  -0.00031   2.03814
   R10        4.13852   0.00206  -0.04493   0.07572   0.03080   4.16932
   R11        2.21426  -0.01124  -0.00339  -0.00490  -0.00829   2.20598
   R12        2.22055   0.00310  -0.00468   0.00685   0.00220   2.22275
    A1        2.01931   0.00262   0.00374   0.00545   0.00921   2.02853
    A2        2.09972  -0.00118   0.00464  -0.00958  -0.00500   2.09472
    A3        2.16415  -0.00145  -0.00838   0.00411  -0.00423   2.15992
    A4        1.82735  -0.00357  -0.00514  -0.00630  -0.01144   1.81591
    A5        1.86042   0.00187   0.00632   0.00540   0.01168   1.87210
    A6        2.57711   0.00177  -0.00112   0.00249   0.00138   2.57849
    A7        1.87335   0.00185   0.00366   0.00352   0.00717   1.88053
    A8        2.11900  -0.00112  -0.00111  -0.00354  -0.00465   2.11435
    A9        2.29083  -0.00072  -0.00255   0.00002  -0.00253   2.28830
   A10        1.89472  -0.00017  -0.00060  -0.00114  -0.00175   1.89297
   A11        2.27292   0.00056   0.00105   0.00199   0.00304   2.27596
   A12        2.11554  -0.00039  -0.00045  -0.00084  -0.00129   2.11425
   A13        1.81002  -0.00072  -0.00166  -0.00151  -0.00319   1.80684
   A14        1.92069   0.00258  -0.01894   0.02172   0.00272   1.92340
   A15        1.89524  -0.01886  -0.08250  -0.03386  -0.11638   1.77886
   A16        1.62102  -0.00594   0.00734  -0.04206  -0.03468   1.58634
   A17        1.91238   0.00273   0.00048   0.02635   0.02687   1.93926
   A18        3.51626  -0.02481  -0.07516  -0.07591  -0.15106   3.36520
   A19        3.13362   0.00034   0.00159   0.01014   0.01172   3.14534
    D1       -0.00469   0.00025   0.00091   0.00195   0.00285  -0.00183
    D2       -3.00186  -0.00026   0.00081  -0.00452  -0.00373  -3.00558
    D3        3.13414   0.00025   0.00150  -0.00221  -0.00070   3.13344
    D4        0.13697  -0.00026   0.00140  -0.00868  -0.00728   0.12969
    D5        0.00247  -0.00014  -0.00049  -0.00013  -0.00062   0.00185
    D6       -3.13624  -0.00014  -0.00112   0.00422   0.00308  -3.13316
    D7       -0.15112   0.00042  -0.00007   0.01247   0.01233  -0.13879
    D8        2.98746   0.00043   0.00059   0.00795   0.00852   2.99599
    D9        0.00471  -0.00024  -0.00090  -0.00283  -0.00372   0.00099
   D10       -3.13741  -0.00016  -0.00083  -0.00337  -0.00419   3.14159
   D11        2.88554   0.00009   0.00027   0.00843   0.00868   2.89423
   D12       -0.25657   0.00017   0.00035   0.00788   0.00822  -0.24836
   D13        3.09727   0.00024   0.00251   0.00502   0.00757   3.10484
   D14       -0.03635  -0.00010   0.00092  -0.00512  -0.00414  -0.04049
   D15        0.21892   0.00031   0.00220  -0.00546  -0.00328   0.21564
   D16       -2.91470  -0.00003   0.00060  -0.01561  -0.01500  -2.92970
   D17       -0.00352   0.00016   0.00066   0.00290   0.00356   0.00005
   D18       -3.14151   0.00008  -0.00004   0.00058   0.00055  -3.14096
   D19        3.13867   0.00007   0.00057   0.00352   0.00409  -3.14042
   D20        0.00068  -0.00002  -0.00012   0.00120   0.00108   0.00176
   D21        0.00073  -0.00002  -0.00012  -0.00167  -0.00179  -0.00106
   D22        3.13911   0.00006   0.00050   0.00041   0.00091   3.14001
   D23        0.11320  -0.00030   0.00116  -0.01532  -0.01428   0.09892
   D24       -0.02318   0.00038  -0.00139   0.00877   0.00734  -0.01585
         Item               Value     Threshold  Converged?
 Maximum Force            0.024806     0.000450     NO 
 RMS     Force            0.005000     0.000300     NO 
 Maximum Displacement     0.129506     0.001800     NO 
 RMS     Displacement     0.026965     0.001200     NO 
 Predicted change in Energy=-3.568621D-03
 GradGradGradGradGradGradGradGradGradGradGradGradGradGradGradGradGradGrad

                          Input orientation:                          
 ---------------------------------------------------------------------
 Center     Atomic      Atomic             Coordinates (Angstroms)
 Number     Number       Type             X           Y           Z
 ---------------------------------------------------------------------
      1          7           0        0.988671    0.063522   -0.003817
      2          7           0        0.266335   -1.035774   -0.013831
      3          6           0       -0.989661   -0.596797   -0.016095
      4          6           0       -0.952467    0.807150   -0.008220
      5          7           0        0.322755    1.195581   -0.001383
      6          1           0       -1.820813   -1.284183   -0.023896
      7          1           0       -1.754975    1.527721   -0.006723
      8          1           0        2.001927    0.005228    0.007080
      9          6           0        1.719891   -2.816842    0.284786
     10          8           0        0.987342   -3.725558    0.302622
     11          8           0        2.641729   -2.086363    0.296390
 ---------------------------------------------------------------------
                    Distance matrix (angstroms):
                    1          2          3          4          5
     1  N    0.000000
     2  N    1.315417   0.000000
     3  C    2.085658   1.330500   0.000000
     4  C    2.078706   2.209498   1.404462   0.000000
     5  N    1.313395   2.232102   2.221546   1.333085   0.000000
     6  H    3.116073   2.101903   1.078598   2.264497   3.277898
     7  H    3.109901   3.264545   2.258179   1.078538   2.104117
     8  H    1.014990   2.023957   3.051650   3.061333   2.058308
     9  C    2.985711   2.318232   3.515792   4.512280   4.258335
    10  O    3.801451   2.802665   3.714736   4.940134   4.975108
    11  O    2.728503   2.615812   3.937441   4.624225   4.029574
                    6          7          8          9         10
     6  H    0.000000
     7  H    2.812727   0.000000
     8  H    4.034462   4.053701   0.000000
     9  C    3.870518   5.570897   2.849691   0.000000
    10  O    3.735325   5.934049   3.877562   1.167352   0.000000
    11  O    4.545367   5.699517   2.206309   1.176231   2.328947
                   11
    11  O    0.000000
 Stoichiometry    C3H3N3O2
 Framework group  C1[X(C3H3N3O2)]
 Deg. of freedom    27
 Full point group                 C1      NOp   1
 Largest Abelian subgroup         C1      NOp   1
 Largest concise Abelian subgroup C1      NOp   1
                         Standard orientation:                         
 ---------------------------------------------------------------------
 Center     Atomic      Atomic             Coordinates (Angstroms)
 Number     Number       Type             X           Y           Z
 ---------------------------------------------------------------------
      1          7           0       -0.779833   -0.859697    0.062067
      2          7           0       -0.202323    0.321463    0.102849
      3          6           0       -1.215977    1.179447    0.021618
      4          6           0       -2.402497    0.433162   -0.066376
      5          7           0       -2.089480   -0.862321   -0.037058
      6          1           0       -1.047259    2.244726    0.031161
      7          1           0       -3.427970    0.757461   -0.146873
      8          1           0       -0.215535   -1.702450    0.101306
      9          6           0        2.086073   -0.026857   -0.024097
     10          8           0        2.496757    1.065868   -0.022670
     11          8           0        1.926571   -1.192164   -0.035765
 ---------------------------------------------------------------------
 Rotational constants (GHZ):           5.5594486           1.3238243           1.0707943
 Standard basis: 6-31+G(d,p) (6D, 7F)
 There are   167 symmetry adapted cartesian basis functions of A   symmetry.
 There are   167 symmetry adapted basis functions of A   symmetry.
   167 basis functions,   277 primitive gaussians,   167 cartesian basis functions
    29 alpha electrons       29 beta electrons
       nuclear repulsion energy       342.7090676360 Hartrees.
 NAtoms=   11 NActive=   11 NUniq=   11 SFac= 1.00D+00 NAtFMM=   60 NAOKFM=F Big=F
 Integral buffers will be    131072 words long.
 Raffenetti 2 integral format.
 Two-electron integral symmetry is turned on.
 One-electron integrals computed using PRISM.
 NBasis=   167 RedAO= T EigKep=  3.63D-05  NBF=   167
 NBsUse=   167 1.00D-06 EigRej= -1.00D+00 NBFU=   167
 Initial guess from the checkpoint file:  "/scratch/gongke2021/RC/Gau-15530.chk"
 B after Tr=    -0.000000    0.000000   -0.000000
         Rot=    0.999998   -0.000233   -0.000066   -0.002164 Ang=  -0.25 deg.
 ExpMin= 4.38D-02 ExpMax= 5.48D+03 ExpMxC= 8.25D+02 IAcc=2 IRadAn=         4 AccDes= 0.00D+00
 Harris functional with IExCor= 1009 and IRadAn=       4 diagonalized for initial guess.
 HarFok:  IExCor= 1009 AccDes= 0.00D+00 IRadAn=         4 IDoV= 1 UseB2=F ITyADJ=14
 ICtDFT=  3500011 ScaDFX=  1.000000  1.000000  1.000000  1.000000
 FoFCou: FMM=F IPFlag=           0 FMFlag=      100000 FMFlg1=           0
         NFxFlg=           0 DoJE=T BraDBF=F KetDBF=T FulRan=T
         wScrn=  0.000000 ICntrl=       500 IOpCl=  0 I1Cent=   200000004 NGrid=           0
         NMat0=    1 NMatS0=      1 NMatT0=    0 NMatD0=    1 NMtDS0=    0 NMtDT0=    0
 Petite list used in FoFCou.
 Keep R1 ints in memory in canonical form, NReq=118249495.
 Requested convergence on RMS density matrix=1.00D-08 within 128 cycles.
 Requested convergence on MAX density matrix=1.00D-06.
 Requested convergence on             energy=1.00D-06.
 No special actions if energy rises.
 SCF Done:  E(RM062X) =  -430.664473902     A.U. after   12 cycles
            NFock= 12  Conv=0.81D-08     -V/T= 2.0082
 Calling FoFJK, ICntrl=      2127 FMM=F ISym2X=0 I1Cent= 0 IOpClX= 0 NMat=1 NMatS=1 NMatT=0.
 ***** Axes restored to original set *****
 -------------------------------------------------------------------
 Center     Atomic                   Forces (Hartrees/Bohr)
 Number     Number              X              Y              Z
 -------------------------------------------------------------------
      1        7           0.002153952    0.001493422   -0.000582574
      2        7          -0.009143898    0.006120534   -0.000795584
      3        6           0.000040467    0.000822340   -0.000270987
      4        6          -0.000223342    0.000252325   -0.000289372
      5        7          -0.000204377    0.000287211    0.000094031
      6        1          -0.000094225    0.000062308    0.000097715
      7        1           0.000078934    0.000101510    0.000000467
      8        1          -0.002298361    0.001780958    0.000355017
      9        6           0.015724130   -0.019143454    0.002031021
     10        8           0.001957895    0.011902959   -0.000400136
     11        8          -0.007991175   -0.003680113   -0.000239597
 -------------------------------------------------------------------
 Cartesian Forces:  Max     0.019143454 RMS     0.005448362

 GradGradGradGradGradGradGradGradGradGradGradGradGradGradGradGradGradGrad
 Berny optimization.
 Using GEDIIS/GDIIS optimizer.
 FormGI is forming the generalized inverse of G from B-inverse, IUseBI=4.
 Internal  Forces:  Max     0.011757904 RMS     0.002771424
 Search for a local minimum.
 Step number   4 out of a maximum of   65
 All quantities printed in internal units (Hartrees-Bohrs-Radians)
 Mixed Optimization -- RFO/linear search
 Update second derivatives using D2CorX and points    2    3    4
 DE= -5.09D-03 DEPred=-3.57D-03 R= 1.43D+00
 TightC=F SS=  1.41D+00  RLast= 2.15D-01 DXNew= 8.4853D-01 6.4555D-01
 Trust test= 1.43D+00 RLast= 2.15D-01 DXMaxT set to 6.46D-01
 ITU=  1  0  1  0
 Use linear search instead of GDIIS.
     Eigenvalues ---    0.00732   0.01610   0.01762   0.02069   0.02155
     Eigenvalues ---    0.02350   0.02373   0.02517   0.03416   0.06857
     Eigenvalues ---    0.13890   0.16000   0.16014   0.18691   0.21210
     Eigenvalues ---    0.22608   0.23617   0.36161   0.36168   0.40723
     Eigenvalues ---    0.45597   0.50741   0.55197   0.59740   0.61060
     Eigenvalues ---    1.23796   1.24950
 RFO step:  Lambda=-4.79270585D-03 EMin= 7.31637180D-03
 Quartic linear search produced a step of  0.69232.
 Iteration  1 RMS(Cart)=  0.03354440 RMS(Int)=  0.01578210
 Iteration  2 RMS(Cart)=  0.02247988 RMS(Int)=  0.00026141
 Iteration  3 RMS(Cart)=  0.00011842 RMS(Int)=  0.00024689
 Iteration  4 RMS(Cart)=  0.00000001 RMS(Int)=  0.00024689
 Variable       Old X    -DE/DX   Delta X   Delta X   Delta X     New X
                                 (Linear)    (Quad)   (Total)
    R1        2.48578   0.00057   0.00000   0.00273   0.00228   2.48806
    R2        2.48196   0.00028  -0.00098   0.00046  -0.00054   2.48142
    R3        1.91805  -0.00145  -0.01328   0.00206  -0.01140   1.90665
    R4        2.51428   0.00064  -0.00020   0.00270   0.00247   2.51675
    R5        4.38082   0.01176   0.04826   0.27424   0.32238   4.70320
    R6        2.65405   0.00042  -0.00021   0.00090   0.00075   2.65480
    R7        2.03826   0.00003  -0.00129   0.00085  -0.00044   2.03781
    R8        2.51917  -0.00000  -0.00365   0.00185  -0.00173   2.51743
    R9        2.03814   0.00001  -0.00021   0.00014  -0.00007   2.03807
   R10        4.16932   0.00319   0.02133   0.12501   0.14658   4.31590
   R11        2.20598  -0.01050  -0.00574  -0.01278  -0.01852   2.18746
   R12        2.22275  -0.00723   0.00153  -0.00962  -0.00773   2.21502
    A1        2.02853   0.00029   0.00638  -0.00213   0.00438   2.03291
    A2        2.09472  -0.00069  -0.00346  -0.00039  -0.00450   2.09022
    A3        2.15992   0.00041  -0.00293   0.00247  -0.00001   2.15992
    A4        1.81591  -0.00047  -0.00792   0.00121  -0.00659   1.80932
    A5        1.87210  -0.00184   0.00808  -0.01415  -0.00671   1.86539
    A6        2.57849   0.00237   0.00096   0.01401   0.01539   2.59388
    A7        1.88053   0.00018   0.00497  -0.00070   0.00415   1.88468
    A8        2.11435   0.00002  -0.00322   0.00167  -0.00149   2.11286
    A9        2.28830  -0.00020  -0.00175  -0.00098  -0.00268   2.28563
   A10        1.89297   0.00003  -0.00121  -0.00031  -0.00155   1.89142
   A11        2.27596   0.00012   0.00211   0.00089   0.00301   2.27897
   A12        2.11425  -0.00015  -0.00089  -0.00059  -0.00147   2.11278
   A13        1.80684  -0.00001  -0.00221   0.00193  -0.00041   1.80643
   A14        1.92340   0.00167   0.00188   0.02795   0.02942   1.95282
   A15        1.77886  -0.00581  -0.08057  -0.01382  -0.09460   1.68426
   A16        1.58634  -0.00145  -0.02401  -0.03718  -0.06079   1.52555
   A17        1.93926   0.00237   0.01861   0.02611   0.04556   1.98481
   A18        3.36520  -0.00727  -0.10458  -0.05100  -0.15539   3.20981
   A19        3.14534  -0.00050   0.00811  -0.03470  -0.02665   3.11868
    D1       -0.00183   0.00009   0.00197  -0.00138   0.00058  -0.00125
    D2       -3.00558  -0.00044  -0.00258  -0.00759  -0.01011  -3.01569
    D3        3.13344   0.00002  -0.00048  -0.00996  -0.01039   3.12305
    D4        0.12969  -0.00051  -0.00504  -0.01617  -0.02108   0.10861
    D5        0.00185  -0.00017  -0.00043  -0.00469  -0.00511  -0.00326
    D6       -3.13316  -0.00009   0.00213   0.00426   0.00636  -3.12680
    D7       -0.13879   0.00034   0.00854   0.01659   0.02505  -0.11375
    D8        2.99599   0.00026   0.00590   0.00731   0.01325   3.00923
    D9        0.00099   0.00002  -0.00257   0.00664   0.00408   0.00507
   D10        3.14159   0.00005  -0.00290   0.00223  -0.00066   3.14094
   D11        2.89423  -0.00011   0.00601   0.01124   0.01723   2.91146
   D12       -0.24836  -0.00007   0.00569   0.00684   0.01250  -0.23585
   D13        3.10484  -0.00033   0.00524  -0.03354  -0.02823   3.07661
   D14       -0.04049   0.00017  -0.00287   0.00116  -0.00158  -0.04207
   D15        0.21564  -0.00031  -0.00227  -0.03944  -0.04171   0.17392
   D16       -2.92970   0.00018  -0.01038  -0.00473  -0.01506  -2.94476
   D17        0.00005  -0.00013   0.00247  -0.00987  -0.00740  -0.00735
   D18       -3.14096   0.00003   0.00038  -0.00202  -0.00164   3.14058
   D19       -3.14042  -0.00016   0.00283  -0.00486  -0.00203   3.14073
   D20        0.00176  -0.00001   0.00075   0.00298   0.00372   0.00548
   D21       -0.00106   0.00017  -0.00124   0.00851   0.00726   0.00620
   D22        3.14001   0.00003   0.00063   0.00153   0.00215  -3.14102
   D23        0.09892  -0.00013  -0.00989  -0.01598  -0.02634   0.07258
   D24       -0.01585   0.00004   0.00508   0.00592   0.01054  -0.00530
         Item               Value     Threshold  Converged?
 Maximum Force            0.011758     0.000450     NO 
 RMS     Force            0.002771     0.000300     NO 
 Maximum Displacement     0.200443     0.001800     NO 
 RMS     Displacement     0.048217     0.001200     NO 
 Predicted change in Energy=-3.484660D-03
 GradGradGradGradGradGradGradGradGradGradGradGradGradGradGradGradGradGrad

                          Input orientation:                          
 ---------------------------------------------------------------------
 Center     Atomic      Atomic             Coordinates (Angstroms)
 Number     Number       Type             X           Y           Z
 ---------------------------------------------------------------------
      1          7           0        0.966506    0.081148   -0.001494
      2          7           0        0.242954   -1.018773   -0.013610
      3          6           0       -1.011108   -0.570428   -0.018144
      4          6           0       -0.969728    0.833816   -0.014840
      5          7           0        0.306283    1.216206    0.000933
      6          1           0       -1.845912   -1.252970   -0.028627
      7          1           0       -1.767877    1.559152   -0.017574
      8          1           0        1.973255    0.018142    0.020462
      9          6           0        1.817601   -2.922911    0.284736
     10          8           0        1.012729   -3.754021    0.321727
     11          8           0        2.686029   -2.135676    0.283345
 ---------------------------------------------------------------------
                    Distance matrix (angstroms):
                    1          2          3          4          5
     1  N    0.000000
     2  N    1.316625   0.000000
     3  C    2.082255   1.331805   0.000000
     4  C    2.077423   2.214200   1.404857   0.000000
     5  N    1.313109   2.235923   2.219897   1.332169   0.000000
     6  H    3.112925   2.102007   1.078365   2.263308   3.275613
     7  H    3.108312   3.269428   2.260047   1.078500   2.102402
     8  H    1.008958   2.017497   3.042093   3.054131   2.052933
     9  C    3.135389   2.488828   3.691545   4.687424   4.415531
    10  O    3.849043   2.861221   3.787702   5.009157   5.030420
    11  O    2.819965   2.702642   4.026130   4.719254   4.120444
                    6          7          8          9         10
     6  H    0.000000
     7  H    2.813226   0.000000
     8  H    4.025440   4.046261   0.000000
     9  C    4.038344   5.747689   2.957003   0.000000
    10  O    3.814424   6.006389   3.904176   1.157554   0.000000
    11  O    4.627633   5.794790   2.283876   1.172139   2.328186
                   11
    11  O    0.000000
 Stoichiometry    C3H3N3O2
 Framework group  C1[X(C3H3N3O2)]
 Deg. of freedom    27
 Full point group                 C1      NOp   1
 Largest Abelian subgroup         C1      NOp   1
 Largest concise Abelian subgroup C1      NOp   1
                         Standard orientation:                         
 ---------------------------------------------------------------------
 Center     Atomic      Atomic             Coordinates (Angstroms)
 Number     Number       Type             X           Y           Z
 ---------------------------------------------------------------------
      1          7           0       -0.809248   -0.855064    0.054115
      2          7           0       -0.242370    0.332325    0.101631
      3          6           0       -1.270717    1.175215    0.025840
      4          6           0       -2.449093    0.415183   -0.060213
      5          7           0       -2.118479   -0.875215   -0.044698
      6          1           0       -1.117574    2.242530    0.041876
      7          1           0       -3.479534    0.724613   -0.135083
      8          1           0       -0.236068   -1.685033    0.078821
      9          6           0        2.216381   -0.035585   -0.014338
     10          8           0        2.515355    1.082494   -0.035432
     11          8           0        1.990199   -1.185658   -0.023404
 ---------------------------------------------------------------------
 Rotational constants (GHZ):           5.5478992           1.2590341           1.0275034
 Standard basis: 6-31+G(d,p) (6D, 7F)
 There are   167 symmetry adapted cartesian basis functions of A   symmetry.
 There are   167 symmetry adapted basis functions of A   symmetry.
   167 basis functions,   277 primitive gaussians,   167 cartesian basis functions
    29 alpha electrons       29 beta electrons
       nuclear repulsion energy       339.4307486068 Hartrees.
 NAtoms=   11 NActive=   11 NUniq=   11 SFac= 1.00D+00 NAtFMM=   60 NAOKFM=F Big=F
 Integral buffers will be    131072 words long.
 Raffenetti 2 integral format.
 Two-electron integral symmetry is turned on.
 One-electron integrals computed using PRISM.
 NBasis=   167 RedAO= T EigKep=  3.78D-05  NBF=   167
 NBsUse=   167 1.00D-06 EigRej= -1.00D+00 NBFU=   167
 Initial guess from the checkpoint file:  "/scratch/gongke2021/RC/Gau-15530.chk"
 B after Tr=     0.000000    0.000000    0.000000
         Rot=    0.999994    0.000428    0.000267   -0.003476 Ang=   0.40 deg.
 ExpMin= 4.38D-02 ExpMax= 5.48D+03 ExpMxC= 8.25D+02 IAcc=2 IRadAn=         4 AccDes= 0.00D+00
 Harris functional with IExCor= 1009 and IRadAn=       4 diagonalized for initial guess.
 HarFok:  IExCor= 1009 AccDes= 0.00D+00 IRadAn=         4 IDoV= 1 UseB2=F ITyADJ=14
 ICtDFT=  3500011 ScaDFX=  1.000000  1.000000  1.000000  1.000000
 FoFCou: FMM=F IPFlag=           0 FMFlag=      100000 FMFlg1=           0
         NFxFlg=           0 DoJE=T BraDBF=F KetDBF=T FulRan=T
         wScrn=  0.000000 ICntrl=       500 IOpCl=  0 I1Cent=   200000004 NGrid=           0
         NMat0=    1 NMatS0=      1 NMatT0=    0 NMatD0=    1 NMtDS0=    0 NMtDT0=    0
 Petite list used in FoFCou.
 Keep R1 ints in memory in canonical form, NReq=118249495.
 Requested convergence on RMS density matrix=1.00D-08 within 128 cycles.
 Requested convergence on MAX density matrix=1.00D-06.
 Requested convergence on             energy=1.00D-06.
 No special actions if energy rises.
 SCF Done:  E(RM062X) =  -430.668798613     A.U. after   12 cycles
            NFock= 12  Conv=0.87D-08     -V/T= 2.0081
 Calling FoFJK, ICntrl=      2127 FMM=F ISym2X=0 I1Cent= 0 IOpClX= 0 NMat=1 NMatS=1 NMatT=0.
 ***** Axes restored to original set *****
 -------------------------------------------------------------------
 Center     Atomic                   Forces (Hartrees/Bohr)
 Number     Number              X              Y              Z
 -------------------------------------------------------------------
      1        7          -0.001251438   -0.001698073   -0.000025838
      2        7          -0.008099969    0.004903417   -0.000073302
      3        6           0.000784598    0.000245135   -0.001172532
      4        6          -0.000152442   -0.000185687    0.000724311
      5        7           0.000187336    0.001838414   -0.000538297
      6        1          -0.000288462   -0.000019371    0.000006239
      7        1          -0.000054282   -0.000007447    0.000032664
      8        1           0.002827353    0.002239657    0.000062632
      9        6           0.009563521    0.005273176    0.003573108
     10        8          -0.000811338   -0.005220383   -0.001179043
     11        8          -0.002704876   -0.007368838   -0.001409942
 -------------------------------------------------------------------
 Cartesian Forces:  Max     0.009563521 RMS     0.003202683

 GradGradGradGradGradGradGradGradGradGradGradGradGradGradGradGradGradGrad
 Berny optimization.
 Using GEDIIS/GDIIS optimizer.
 FormGI is forming the generalized inverse of G from B-inverse, IUseBI=4.
 Internal  Forces:  Max     0.007792146 RMS     0.001797565
 Search for a local minimum.
 Step number   5 out of a maximum of   65
 All quantities printed in internal units (Hartrees-Bohrs-Radians)
 Mixed Optimization -- RFO/linear search
 Update second derivatives using D2CorX and points    3    4    5
 DE= -4.32D-03 DEPred=-3.48D-03 R= 1.24D+00
 TightC=F SS=  1.41D+00  RLast= 4.15D-01 DXNew= 1.0857D+00 1.2460D+00
 Trust test= 1.24D+00 RLast= 4.15D-01 DXMaxT set to 1.09D+00
 ITU=  1  1  0  1  0
 Use linear search instead of GDIIS.
     Eigenvalues ---    0.00718   0.01532   0.01695   0.02022   0.02107
     Eigenvalues ---    0.02157   0.02354   0.02382   0.02867   0.06757
     Eigenvalues ---    0.15979   0.16000   0.17169   0.19518   0.21254
     Eigenvalues ---    0.22641   0.23844   0.36161   0.36173   0.40761
     Eigenvalues ---    0.46778   0.50855   0.55334   0.59877   0.61088
     Eigenvalues ---    1.24657   1.27149
 RFO step:  Lambda=-1.52913281D-03 EMin= 7.18311527D-03
 Quartic linear search produced a step of  0.32737.
 Iteration  1 RMS(Cart)=  0.03838930 RMS(Int)=  0.00354876
 Iteration  2 RMS(Cart)=  0.00510169 RMS(Int)=  0.00014330
 Iteration  3 RMS(Cart)=  0.00000667 RMS(Int)=  0.00014323
 Iteration  4 RMS(Cart)=  0.00000000 RMS(Int)=  0.00014323
 Variable       Old X    -DE/DX   Delta X   Delta X   Delta X     New X
                                 (Linear)    (Quad)   (Total)
    R1        2.48806   0.00084   0.00075   0.00136   0.00193   2.48999
    R2        2.48142   0.00117  -0.00018   0.00177   0.00158   2.48300
    R3        1.90665   0.00328  -0.00373   0.00495   0.00113   1.90779
    R4        2.51675  -0.00047   0.00081  -0.00147  -0.00067   2.51608
    R5        4.70320   0.00779   0.10554   0.12171   0.22720   4.93040
    R6        2.65480   0.00046   0.00024   0.00073   0.00099   2.65579
    R7        2.03781   0.00024  -0.00014   0.00021   0.00006   2.03788
    R8        2.51743   0.00061  -0.00057  -0.00001  -0.00056   2.51687
    R9        2.03807   0.00003  -0.00002   0.00002  -0.00000   2.03807
   R10        4.31590   0.00194   0.04799   0.05321   0.10129   4.41719
   R11        2.18746   0.00428  -0.00606   0.00385  -0.00221   2.18525
   R12        2.21502  -0.00603  -0.00253  -0.00308  -0.00545   2.20957
    A1        2.03291  -0.00015   0.00143   0.00190   0.00340   2.03631
    A2        2.09022   0.00065  -0.00147   0.00468   0.00293   2.09315
    A3        2.15992  -0.00049  -0.00000  -0.00653  -0.00634   2.15358
    A4        1.80932   0.00030  -0.00216  -0.00114  -0.00333   1.80598
    A5        1.86539  -0.00277  -0.00220  -0.01185  -0.01442   1.85097
    A6        2.59388   0.00255   0.00504   0.01518   0.02045   2.61433
    A7        1.88468  -0.00004   0.00136   0.00040   0.00167   1.88635
[...]
   A17        2.04307   0.00000   0.00000   0.00028   0.00028   2.04335
   A18        3.18876   0.00001   0.00000   0.00010   0.00010   3.18886
   A19        3.14170  -0.00001   0.00000  -0.00010  -0.00010   3.14160
    D1       -0.00018   0.00001   0.00000   0.00018   0.00018   0.00000
    D2        3.14139   0.00000   0.00000   0.00011   0.00011   3.14150
    D3       -3.14115  -0.00000   0.00000  -0.00046  -0.00046   3.14158
    D4        0.00042  -0.00000   0.00000  -0.00053  -0.00053  -0.00010
    D5        0.00018  -0.00000   0.00000  -0.00018  -0.00018  -0.00000
    D6        3.14113   0.00000   0.00000   0.00047   0.00047  -3.14158
    D7        0.00091   0.00000   0.00000  -0.00088  -0.00088   0.00003
    D8       -3.14001  -0.00001   0.00000  -0.00156  -0.00156  -3.14158
    D9        0.00011  -0.00000   0.00000  -0.00011  -0.00011   0.00000
   D10       -3.14136  -0.00000   0.00000  -0.00023  -0.00023   3.14159
   D11       -3.14144   0.00000   0.00000   0.00006   0.00006  -3.14138
   D12        0.00029  -0.00000   0.00000  -0.00007  -0.00007   0.00021
   D13        3.13904  -0.00000   0.00000   0.00275   0.00275  -3.14139
   D14       -0.00266   0.00001   0.00000   0.00286   0.00286   0.00020
   D15       -0.00260  -0.00001   0.00000   0.00259   0.00259  -0.00001
   D16        3.13889   0.00000   0.00000   0.00270   0.00270   3.14158
   D17       -0.00001   0.00000   0.00000   0.00001   0.00001  -0.00000
   D18        3.14150   0.00000   0.00000   0.00009   0.00009   3.14159
   D19        3.14144   0.00000   0.00000   0.00015   0.00015   3.14159
   D20       -0.00024   0.00000   0.00000   0.00024   0.00024  -0.00000
   D21       -0.00009   0.00000   0.00000   0.00009   0.00009   0.00000
   D22        3.14158   0.00000   0.00000   0.00002   0.00002  -3.14159
   D23       -0.00375   0.00001   0.00000   0.00393   0.00394   0.00019
   D24        0.00237  -0.00001   0.00000  -0.00252  -0.00252  -0.00015
         Item               Value     Threshold  Converged?
 Maximum Force            0.000111     0.000450     YES
 RMS     Force            0.000019     0.000300     YES
 Maximum Displacement     0.004973     0.001800     NO 
 RMS     Displacement     0.000993     0.001200     YES
 Predicted change in Energy=-5.943722D-08
                           ----------------------------
                           ! Non-Optimized Parameters !
                           ! (Angstroms and Degrees)  !
 --------------------------                            --------------------------
 ! Name  Definition              Value          Derivative Info.                !
 --------------------------------------------------------------------------------
 ! R1    R(1,2)                  1.319          -DE/DX =    0.0                 !
 ! R2    R(1,5)                  1.3159         -DE/DX =    0.0                 !
 ! R3    R(1,8)                  1.0115         -DE/DX =    0.0                 !
 ! R4    R(2,3)                  1.331          -DE/DX =    0.0                 !
 ! R5    R(2,9)                  2.7769         -DE/DX =    0.0                 !
 ! R6    R(3,4)                  1.4052         -DE/DX =    0.0                 !
 ! R7    R(3,6)                  1.0786         -DE/DX =    0.0                 !
 ! R8    R(4,5)                  1.3315         -DE/DX =    0.0                 !
 ! R9    R(4,7)                  1.0786         -DE/DX =    0.0                 !
 ! R10   R(8,11)                 2.3128         -DE/DX =    0.0                 !
 ! R11   R(9,10)                 1.1593         -DE/DX =   -0.0001              !
 ! R12   R(9,11)                 1.1674         -DE/DX =    0.0                 !
 ! A1    A(2,1,5)              116.4913         -DE/DX =    0.0                 !
 ! A2    A(2,1,8)              120.9273         -DE/DX =    0.0                 !
 ! A3    A(5,1,8)              122.5814         -DE/DX =    0.0                 !
 ! A4    A(1,2,3)              103.507          -DE/DX =    0.0                 !
 ! A5    A(1,2,9)              101.5525         -DE/DX =    0.0                 !
 ! A6    A(3,2,9)              154.9405         -DE/DX =    0.0                 !
 ! A7    A(2,3,4)              108.1812         -DE/DX =    0.0                 !
 ! A8    A(2,3,6)              121.1178         -DE/DX =    0.0                 !
 ! A9    A(4,3,6)              130.701          -DE/DX =    0.0                 !
 ! A10   A(3,4,5)              108.3863         -DE/DX =    0.0                 !
 ! A11   A(3,4,7)              130.5007         -DE/DX =    0.0                 !
 ! A12   A(5,4,7)              121.113          -DE/DX =    0.0                 !
 ! A13   A(1,5,4)              103.4343         -DE/DX =    0.0                 !
 ! A14   A(1,8,11)             116.8773         -DE/DX =    0.0                 !
 ! A15   A(2,9,10)              99.1406         -DE/DX =    0.0                 !
 ! A16   A(2,9,11)              83.5678         -DE/DX =    0.0                 !
 ! A17   A(8,11,9)             117.0751         -DE/DX =    0.0                 !
 ! A18   L(10,9,11,2,-1)       182.7084         -DE/DX =    0.0                 !
 ! A19   L(10,9,11,2,-2)       180.0002         -DE/DX =    0.0                 !
 ! D1    D(5,1,2,3)              0.0            -DE/DX =    0.0                 !
 ! D2    D(5,1,2,9)            179.9947         -DE/DX =    0.0                 !
 ! D3    D(8,1,2,3)            179.9993         -DE/DX =    0.0                 !
 ! D4    D(8,1,2,9)             -0.0059         -DE/DX =    0.0                 !
 ! D5    D(2,1,5,4)              0.0            -DE/DX =    0.0                 !
 ! D6    D(8,1,5,4)           -179.9994         -DE/DX =    0.0                 !
 ! D7    D(2,1,8,11)             0.0017         -DE/DX =    0.0                 !
 ! D8    D(5,1,8,11)          -179.999          -DE/DX =    0.0                 !
 ! D9    D(1,2,3,4)              0.0            -DE/DX =    0.0                 !
 ! D10   D(1,2,3,6)            180.0            -DE/DX =    0.0                 !
 ! D11   D(9,2,3,4)           -179.9878         -DE/DX =    0.0                 !
 ! D12   D(9,2,3,6)              0.0122         -DE/DX =    0.0                 !
 ! D13   D(1,2,9,10)          -179.9884         -DE/DX =    0.0                 !
 ! D14   D(1,2,9,11)             0.0114         -DE/DX =    0.0                 !
 ! D15   D(3,2,9,10)            -0.0005         -DE/DX =    0.0                 !
 ! D16   D(3,2,9,11)           179.9993         -DE/DX =    0.0                 !
 ! D17   D(2,3,4,5)              0.0            -DE/DX =    0.0                 !
 ! D18   D(2,3,4,7)            179.9999         -DE/DX =    0.0                 !
 ! D19   D(6,3,4,5)            180.0            -DE/DX =    0.0                 !
 ! D20   D(6,3,4,7)             -0.0001         -DE/DX =    0.0                 !
 ! D21   D(3,4,5,1)              0.0            -DE/DX =    0.0                 !
 ! D22   D(7,4,5,1)           -179.9999         -DE/DX =    0.0                 !
 ! D23   D(1,8,11,9)             0.0107         -DE/DX =    0.0                 !
 ! D24   D(2,9,11,8)            -0.0085         -DE/DX =    0.0                 !
 --------------------------------------------------------------------------------
 GradGradGradGradGradGradGradGradGradGradGradGradGradGradGradGradGradGrad


 ----------------------------------------------------------------------

 Electric dipole moment (input orientation):
 (Debye = 10**-18 statcoulomb cm , SI units = C m)
                  (au)            (Debye)         (10**-30 SI)
   Tot        0.192629D+00      0.489615D+00      0.163318D+01
   x         -0.191244D+00     -0.486094D+00     -0.162144D+01
   y          0.214815D-01      0.546005D-01      0.182128D+00
   z         -0.838001D-02     -0.212998D-01     -0.710486D-01

 Dipole polarizability, Alpha (input orientation).
 (esu units = cm**3 , SI units = C**2 m**2 J**-1)
 Alpha(0;0):
               (au)            (10**-24 esu)      (10**-40 SI)
   iso        0.554382D+02      0.821509D+01      0.914052D+01
   aniso      0.308855D+02      0.457676D+01      0.509234D+01
   xx         0.636882D+02      0.943762D+01      0.105008D+02
   yx         0.254535D+01      0.377182D+00      0.419671D+00
   yy         0.673383D+02      0.997850D+01      0.111026D+02
   zx         0.932031D+00      0.138113D+00      0.153671D+00
   zy        -0.166510D+01     -0.246742D+00     -0.274537D+00
   zz         0.352880D+02      0.522915D+01      0.581821D+01

 ----------------------------------------------------------------------

 Dipole orientation:
     7          0.06445658          0.30360655         -1.68388463
     7         -0.07167929         -1.85558407         -0.44614170
     6         -0.02859751         -1.15217976          1.96825480
     6          0.13741321          1.49655354          2.05698380
     7          0.19303388          2.36767876         -0.30301085
     1         -0.11534408         -2.52944335          3.46840697
     1          0.21614380          2.76548898          3.65009026
     1          0.06699723          0.34205664         -3.59497329
     6         -0.28715451         -5.31359346         -4.38723984
     8         -0.39835415         -7.16413891         -3.21981348
     8         -0.17902684         -3.50766251         -5.64942104

 Electric dipole moment (dipole orientation):
 (Debye = 10**-18 statcoulomb cm , SI units = C m)
                  (au)            (Debye)         (10**-30 SI)
   Tot        0.192629D+00      0.489615D+00      0.163318D+01
   x          0.000000D+00      0.000000D+00      0.000000D+00
   y          0.000000D+00      0.000000D+00      0.000000D+00
   z          0.192629D+00      0.489615D+00      0.163318D+01

 Dipole polarizability, Alpha (dipole orientation).
 (esu units = cm**3 , SI units = C**2 m**2 J**-1)
 Alpha(0;0):
               (au)            (10**-24 esu)      (10**-40 SI)
   iso        0.554382D+02      0.821509D+01      0.914052D+01
   aniso      0.308855D+02      0.457676D+01      0.509234D+01
   xx         0.352868D+02      0.522896D+01      0.581800D+01
   yx         0.201896D+01      0.299179D+00      0.332882D+00
   yy         0.678149D+02      0.100491D+02      0.111812D+02
   zx        -0.120839D+00     -0.179066D-01     -0.199237D-01
   zy        -0.200666D+01     -0.297356D+00     -0.330853D+00
   zz         0.632129D+02      0.936719D+01      0.104224D+02

 ----------------------------------------------------------------------
 1\1\GINC-NODE2\Freq\RM062X\6-31+G(d,p)\C3H3N3O2\GONGKE2021\02-Jun-2023
 \0\\#N Geom=AllCheck Guess=TCheck SCRF=Check GenChk RM062X/6-31+G(d,p)
  Freq\\test\\0,1\N,0.9022227781,0.0631508344,0.0547117582\N,0.12188773
 18,-0.9998844367,0.0821147857\C,-1.1041792798,-0.4873802275,0.00765749
 64\C,-0.9912322298,0.9114499442,-0.0634758472\N,0.3011047802,1.2305739
 626,-0.0313321905\H,-1.9752788388,-1.1235067258,0.0088239847\H,-1.7517
 51203,1.6730466409,-0.1336707273\H,1.9085700598,-0.0293891396,0.097772
 5688\C,1.9840968179,-3.0517645334,0.2637033502\O,1.2592070447,-3.95621
 74976,0.2876120444\O,2.756084979,-2.1763934716,0.2429948865\\Version=E
 S64L-G16RevA.03\State=1-A\HF=-430.6710284\RMSD=1.522e-09\RMSF=3.901e-0
 5\ZeroPoint=0.0739138\Thermal=0.0813961\Dipole=-0.1912443,0.0214815,-0
 .00838\DipoleDeriv=-0.5972477,0.0897036,-0.0242751,0.0613696,0.244961,
 -0.0158165,-0.0232771,-0.0145255,-0.0912535,0.0592876,0.1080343,0.0036
 888,0.2695012,-0.5647257,0.0307895,-0.0050235,0.0244415,-0.1878815,0.0
 145588,0.0421431,0.0009497,0.2354812,0.1497427,-0.002929,-0.0094385,-0
 .0104235,-0.0721838,-0.0467936,-0.0049708,0.0016527,-0.2033975,0.19291
 23,-0.0227336,0.0124261,-0.015095,-0.0827134,0.0573891,-0.1170082,0.01
 59508,-0.2754185,-0.4007493,0.0005483,0.0246501,0.0066188,-0.1925418,0
 .0570468,-0.0246101,-0.0029117,-0.0575566,0.0636136,0.0034284,-0.00108
 44,0.0047097,0.1675422,0.0658604,0.0298554,-0.0055149,0.0569742,0.0484
 852,0.0086228,-0.006985,0.0075943,0.1673238,0.3774033,-0.0657926,0.006
 3634,-0.0287099,0.2854086,-0.0001347,0.0044997,-0.0013834,0.3042351,1.
 3898242,0.8172783,-0.0152236,0.6695977,1.9801931,-0.0550588,-0.0069061
 ,-0.0496573,0.5560747,-0.6003574,-0.448372,0.0130776,-0.3625938,-0.994
 5945,0.0270816,0.0081994,0.023876,-0.2725113,-0.7769714,-0.4262609,0.0
 062424,-0.3652477,-1.0052469,0.0262019,0.0029392,0.0238443,-0.2960904\
 Polar=63.6882141,2.545347,67.3382878,0.9320311,-1.6650959,35.2880339\Q
 uadrupole=4.9507787,-4.332782,-0.6179967,-2.3857781,0.3474659,0.114364
 7\PG=C01 [X(C3H3N3O2)]\NImag=0\\1.07792416,-0.04042064,0.67200808,0.03
 895321,-0.03179259,0.11381579,-0.18037976,-0.13964857,0.00344684,0.600
 67264,-0.07196392,-0.25922754,0.00730433,-0.03985816,0.57010039,-0.000
 23107,0.00467853,-0.07293984,0.02087993,-0.02633000,0.11193771,-0.1421
 8539,-0.05363106,-0.00305258,-0.34289050,0.10209375,-0.01572742,0.8544
 0702,0.00552009,-0.01490562,0.00174584,0.11054602,-0.16306083,0.008965
 13,0.14676680,0.69088372,-0.00623692,-0.00054580,0.01280934,-0.0161820
 1,0.00864617,-0.07603170,0.01933483,-0.02411853,0.14212695,-0.13213191
 ,0.07366530,-0.00953237,0.01073826,0.00865005,-0.00080790,-0.11851795,
 0.00770086,-0.00219300,0.80218689,0.01290211,-0.02354989,0.00242212,0.
 10874036,-0.04215520,0.00750227,-0.03751809,-0.30837361,0.01132860,-0.
 16390302,0.73960877,-0.00623934,0.00477154,0.01223919,-0.00621211,0.00
 367020,0.01936829,0.00024272,0.01304908,-0.07257854,0.03414994,-0.0386
 2795,0.14335044,-0.15075178,0.12559554,-0.00973994,-0.04629175,0.01555
 986,-0.00381109,-0.00892772,-0.11416618,0.00503482,-0.36812082,-0.0780
 7300,-0.00699131,0.59693060,0.05685890,-0.29653166,0.01426618,-0.02462
 222,-0.11631986,0.00703295,-0.01535782,-0.02105090,0.00165046,-0.06992
 129,-0.13546413,0.00062011,0.02819602,0.55863096,-0.00606267,0.0169369
 7,-0.07329019,-0.00164206,0.00854964,0.03076948,-0.00028754,-0.0021361
 3,0.02045478,-0.00742611,0.00031417,-0.07494214,0.01710560,-0.02319720
 ,0.11089557,-0.00543377,0.00231706,-0.00062439,-0.01871919,-0.01820904
 ,0.00055202,-0.25397251,-0.14669220,-0.00057369,0.00691094,0.00283453,
 0.00014734,0.00100524,0.00276663,-0.00035511,0.27084689,0.00672051,-0.
 00078890,0.00071590,0.01274174,0.01339848,-0.00063978,-0.15602807,-0.1
 7373427,0.00174778,-0.02003689,-0.00079457,-0.00077326,-0.00280652,-0.
 00580259,0.00055169,0.15870447,0.16694658,-0.00086522,0.00054937,0.007
 64945,-0.00112094,-0.00181800,-0.00740660,-0.00006347,0.00210706,-0.03
 128899,0.00137954,0.00009599,-0.00092422,-0.00005395,0.00076183,0.0063
 7308,0.00080502,-0.00161421,0.02510312,-0.00688560,-0.00122893,-0.0004
 9218,0.00075051,-0.00390694,-0.00001410,0.00944145,-0.00462566,0.00065
 418,-0.20494081,0.15099908,-0.01479884,-0.01711915,0.02285706,-0.00159
 687,-0.00040318,0.00045882,0.00001149,0.21911297,-0.00579286,0.0007091
 3,0.00016115,0.00149139,-0.00572412,0.00072327,0.01860789,-0.00359809,
 0.00084415,0.15995385,-0.22146528,0.01639210,-0.00773019,0.01175255,-0
 .00134330,-0.00043097,-0.00035650,-0.00007006,-0.16602917,0.21771339,-
 0.00024821,0.00033427,0.00776210,-0.00030412,0.00051736,0.00657861,-0.
 00059938,-0.00004602,-0.00116198,-0.01528383,0.01605366,-0.03252034,0.
 00005582,-0.00017651,-0.00764042,0.00005930,-0.00003621,-0.00134439,0.
 01638620,-0.01675241,0.02647633,-0.46024158,0.03205514,-0.01887746,-0.
 01509835,0.00249358,-0.00025386,0.00305847,-0.00605221,0.00023344,0.00
 483075,0.00395020,-0.00025211,-0.00677301,0.00086209,0.00018403,-0.000
 18935,0.00030889,-0.00009632,0.00010165,-0.00008547,-0.00006490,0.4748
 9281,0.03457054,-0.07097252,0.00473664,-0.03063554,0.00894853,-0.00228
 444,-0.00600217,-0.00634076,0.00041174,0.00330238,-0.00797652,0.000877
 59,0.03320445,0.00310100,0.00039424,-0.00128313,0.00108609,-0.00000694
 ,0.00131661,0.00084608,0.00010967,-0.03360955,0.07182241,-0.01896969,0
 .00463586,-0.00840990,0.00151090,-0.00103620,-0.01182453,0.00023054,0.
 00040164,0.00556621,-0.00021471,0.00091057,0.00586747,-0.00158138,-0.0
 0082119,-0.01289990,-0.00001108,0.00005558,0.00188551,-0.00014199,0.00
 005530,0.00192385,0.01912162,-0.00419152,0.01873084,0.00210385,0.00178
 770,0.00000117,-0.00241110,0.00252160,-0.00012844,-0.00334634,0.001686
 92,-0.00021087,-0.00262691,-0.00078605,-0.00006966,0.00040351,-0.00686
 355,0.00037544,-0.00049607,0.00034343,-0.00003739,-0.00025957,-0.00024
 366,-0.00000095,0.00411909,-0.00681766,0.00049392,0.90396360,-0.000245
 19,-0.00368261,0.00016059,-0.00214886,-0.00230986,-0.00006589,0.000441
 55,0.00407533,-0.00021347,-0.00282817,0.00067931,-0.00013107,-0.000570
 52,-0.00239181,0.00012511,-0.00053506,0.00038561,-0.00004152,-0.000067
 02,0.00022333,-0.00001015,0.00145929,-0.00703460,0.00046298,0.91471265
 ,1.23551855,0.00010941,0.00024231,-0.00044736,0.00011706,0.00009526,-0
 .00229916,-0.00014033,-0.00017251,-0.00017306,0.00004966,-0.00005143,0
 .00027983,0.00003504,-0.00010390,0.00030657,0.00001144,-0.00000901,-0.
 00000344,-0.00000905,-0.00001649,0.00008938,0.00004490,0.00017243,0.00
 055873,-0.02347574,-0.02711325,0.15072686,-0.00099648,-0.00002374,-0.0
 0004382,0.00037263,0.00155867,-0.00011107,0.00107566,-0.00116168,0.000
 10397,0.00127140,0.00016603,0.00004228,0.00003852,0.00278212,-0.000144
 35,0.00026108,-0.00022722,0.00002395,0.00009790,0.00006484,0.00000130,
 -0.00175904,0.00317886,-0.00023676,-0.44528373,-0.46491792,0.01234174,
 0.46792081,0.00068029,-0.00058371,0.00007018,0.00007413,-0.00158288,0.
 00013420,-0.00003175,-0.00162558,0.00008646,0.00112493,-0.00018939,0.0
 0005075,0.00013982,0.00097141,-0.00005682,0.00021441,-0.00014688,0.000
 01383,0.00004113,-0.00006356,0.00000429,-0.00123781,0.00291780,-0.0001
 9337,-0.46459192,-0.64533850,0.01484843,0.52905714,0.69352384,-0.00008
 183,0.00004405,0.00018779,-0.00002046,0.00019099,0.00084656,0.00004055
 ,0.00004696,-0.00001063,-0.00001446,0.00001344,-0.00005086,-0.00000060
 ,0.00004021,-0.00013897,-0.00000056,-0.00000269,-0.00004420,0.00000187
 ,0.00000493,-0.00001738,0.00000190,-0.00004171,0.00011128,0.01231693,0
 .01482883,-0.07453480,-0.01373302,-0.01725219,0.03742076,-0.00102175,-
 0.00046780,-0.00003849,-0.00674340,0.00106053,-0.00034702,0.00185782,0
 .00047725,0.00003526,0.00040016,0.00068783,-0.00001891,-0.00039365,0.0
 0244206,-0.00015036,0.00018992,-0.00017916,0.00001728,0.00010383,0.000
 19434,-0.00000123,-0.00294144,0.00277520,-0.00020137,-0.45616635,-0.44
 530075,0.01091587,-0.02299876,-0.06547037,0.00148967,0.48771362,0.0011
 7016,-0.00247477,0.00020967,0.00331971,-0.00206710,0.00028375,0.000658
 97,-0.00226938,0.00016243,0.00229200,-0.00031949,0.00010092,0.00065071
 ,0.00310502,-0.00013836,0.00031331,-0.00019305,0.00002264,0.00018501,-
 0.00003692,0.00000206,-0.00014415,0.00360249,-0.00027966,-0.44174946,-
 0.58012476,0.01210816,-0.07047712,-0.04788254,0.00212717,0.50378086,0.
 62866050,-0.00012767,0.00014549,0.00062363,-0.00047304,0.00021026,0.00
 100118,0.00002206,0.00015747,0.00028762,-0.00010676,0.00003856,-0.0000
 8912,-0.00005303,-0.00007294,0.00011214,-0.00001029,0.00000420,0.00000
 068,-0.00000071,0.00000136,-0.00014577,-0.00004125,-0.00017771,-0.0015
 0955,0.01073560,0.01199786,-0.07450355,0.00175579,0.00229423,0.0362304
 6,-0.01170069,-0.01459878,0.03799228\\-0.00004255,-0.00002085,0.000027
 87,-0.00002477,-0.00002775,-0.00001626,0.00007093,-0.00000056,-0.00000
 471,-0.00001143,0.00001357,0.00000294,0.00000018,0.00001800,-0.0000109
 3,0.00000202,0.00000852,0.00000645,0.00000985,0.00001150,-0.00000241,0
 .00000359,0.00000164,-0.00000024,0.00010465,0.00010968,0.00002096,-0.0
 0008521,-0.00008054,-0.00000603,-0.00002727,-0.00003323,-0.00001765\\\
 @


 THAT'S WHAT MAKES US A GREAT COUNTRY.
 THE LITTLE THINGS ARE SERIOUS AND THE BIG ONES ARE NOT.
           WILL ROGERS
 Job cpu time:       0 days  0 hours 21 minutes 19.3 seconds.
 Elapsed time:       0 days  0 hours  1 minutes  4.6 seconds.
 File lengths (MBytes):  RWF=     39 Int=      0 D2E=      0 Chk=      3 Scr=      1
 Normal termination of Gaussian 16 at Fri Jun  2 03:00:32 2023.
