 Entering Gaussian System, Link 0=/opt/soft/g16b/g16/g16
 Initial command:
 /opt/soft/g16b/g16/l1.exe "/scratch/gongke2021/TS/Gau-21822.inp" -scrdir="/scratch/gongke2021/TS/"
 Entering Link 1 = /opt/soft/g16b/g16/l1.exe PID=     21823.
  
 Copyright (c) 1988,1990,1992,1993,1995,1998,2003,2009,2016,
            Gaussian, Inc.  All Rights Reserved.
  
 This is part of the Gaussian(R) 16 program.  It is based on
 the Gaussian(R) 09 system (copyright 2009, Gaussian, Inc.),
 the Gaussian(R) 03 system (copyright 2003, Gaussian, Inc.),
 the Gaussian(R) 98 system (copyright 1998, Gaussian, Inc.),
 the Gaussian(R) 94 system (copyright 1995, Gaussian, Inc.),
 the Gaussian 92(TM) system (copyright 1992, Gaussian, Inc.),
 the Gaussian 90(TM) system (copyright 1990, Gaussian, Inc.),
 the Gaussian 88(TM) system (copyright 1988, Gaussian, Inc.),
 the Gaussian 86(TM) system (copyright 1986, Carnegie Mellon
 University), and the Gaussian 82(TM) system (copyright 1983,
 Carnegie Mellon University). Gaussian is a federally registered
 trademark of Gaussian, Inc.
  
 This software contains proprietary and confidential information,
 including trade secrets, belonging to Gaussian, Inc.
  
 This software is provided under written license and may be
 used, copied, transmitted, or stored only in accord with that
 written license.
  
 The following legend is applicable only to US Government
 contracts under FAR:
  
                    RESTRICTED RIGHTS LEGEND
  
 Use, reproduction and disclosure by the US Government is
 subject to restrictions as set forth in subparagraphs (a)
 and (c) of the Commercial Computer Software - Restricted
 Rights clause in FAR 52.227-19.
  
 Gaussian, Inc.
 340 Quinnipiac St., Bldg. 40, Wallingford CT 06492
  
  
 ---------------------------------------------------------------
 Warning -- This program may not be used in any manner that
 competes with the business of Gaussian, Inc. or will provide
 assistance to any competitor of Gaussian, Inc.  The licensee
 of this program is prohibited from giving any competitor of
 Gaussian, Inc. access to this program.  By using this program,
 the user acknowledges that Gaussian, Inc. is engaged in the
 business of creating and licensing software in the field of
 computational chemistry and represents and warrants to the
 licensee that it is not a competitor of Gaussian, Inc. and that
 it will not use this program in any manner prohibited above.
 ---------------------------------------------------------------
  

 Cite this work as:
 Gaussian 16, Revision A.03,
 M. J. Frisch, G. W. Trucks, H. B. Schlegel, G. E. Scuseria, 
 M. A. Robb, J. R. Cheeseman, G. Scalmani, V. Barone, 
 G. A. Petersson, H. Nakatsuji, X. Li, M. Caricato, A. V. Marenich, 
 J. Bloino, B. G. Janesko, R. Gomperts, B. Mennucci, H. P. Hratchian, 
 J. V. Ortiz, A. F. Izmaylov, J. L. Sonnenberg, D. Williams-Young, 
 F. Ding, F. Lipparini, F. Egidi, J. Goings, B. Peng, A. Petrone, 
 T. Henderson, D. Ranasinghe, V. G. Zakrzewski, J. Gao, N. Rega, 
 G. Zheng, W. Liang, M. Hada, M. Ehara, K. Toyota, R. Fukuda, 
 J. Hasegawa, M. Ishida, T. Nakajima, Y. Honda, O. Kitao, H. Nakai, 
 T. Vreven, K. Throssell, J. A. Montgomery, Jr., J. E. Peralta, 
 F. Ogliaro, M. J. Bearpark, J. J. Heyd, E. N. Brothers, K. N. Kudin, 
 V. N. Staroverov, T. A. Keith, R. Kobayashi, J. Normand, 
 K. Raghavachari, A. P. Rendell, J. C. Burant, S. S. Iyengar, 
 J. Tomasi, M. Cossi, J. M. Millam, M. Klene, C. Adamo, R. Cammi, 
 J. W. Ochterski, R. L. Martin, K. Morokuma, O. Farkas, 
 J. B. Foresman, and D. J. Fox, Gaussian, Inc., Wallingford CT, 2016.
 
 ******************************************
 Gaussian 16:  ES64L-G16RevA.03 25-Dec-2016
                 2-Jun-2023 
 ******************************************
 %mem=10GB
 %nprocshared=20
 Will use up to   20 processors via shared memory.
 ----------------------------------------------------------------------
 # opt=(calcfc,ts,noeigentest) freq 6-31+g(d,p) integral=grid=ultrafine
  m062x
 ----------------------------------------------------------------------
 1/5=1,10=4,11=1,18=20,26=4,38=1/1,3;
 2/9=110,12=2,17=6,18=5,40=1/2;
 3/5=1,6=6,7=111,11=2,25=1,30=1,71=2,74=-55,75=-5,140=1/1,2,3;
 4//1;
 5/5=2,38=5/2;
 8/6=4,10=90,11=11/1;
 11/6=1,8=1,9=11,15=111,16=1/1,2,10;
 10/6=1,13=1/2;
 6/7=2,8=2,9=2,10=2,28=1/1;
 7/10=1,18=20,25=1/1,2,3,16;
 1/5=1,10=4,11=1,18=20,26=4/3(2);
 2/9=110/2;
 99//99;
 2/9=110/2;
 3/5=1,6=6,7=111,11=2,25=1,30=1,71=1,74=-55,75=-5/1,2,3;
 4/5=5,16=3,69=1/1;
 5/5=2,38=5/2;
 7//1,2,3,16;
 1/5=1,11=1,18=20,26=4/3(-5);
 2/9=110/2;
 6/7=2,8=2,9=2,10=2,19=2,28=1/1;
 99/9=1/99;
 ----
 test
 ----
 Symbolic Z-matrix:
 Charge =  0 Multiplicity = 1
 N                    -0.83858  -0.8028   -0.00107 
 N                    -0.35628   0.42484   0.00037 
 C                    -1.44718   1.18732   0.00116 
 C                    -2.57144   0.34435   0.00026 
 N                    -2.14939  -0.91853  -0.00108 
 H                    -1.37506   2.26355   0.00217 
 H                    -3.62392   0.58021   0.00057 
 H                     0.27717  -1.71832   0.08576 
 C                     1.27944   0.0169   -0.15794 
 O                     1.96095   1.16305  -0.06777 
 O                     1.67025  -1.14467  -0.08549 
 
 Add virtual bond connecting atoms H8         and N1         Dist= 2.73D+00.
 Add virtual bond connecting atoms H8         and O11        Dist= 2.87D+00.

 GradGradGradGradGradGradGradGradGradGradGradGradGradGradGradGradGradGrad
 Berny optimization.
 Initialization pass.
                           ----------------------------
                           !    Initial Parameters    !
                           ! (Angstroms and Degrees)  !
 --------------------------                            --------------------------
 ! Name  Definition              Value          Derivative Info.                !
 --------------------------------------------------------------------------------
 ! R1    R(1,2)                  1.319          calculate D2E/DX2 analytically  !
 ! R2    R(1,5)                  1.3159         calculate D2E/DX2 analytically  !
 ! R3    R(1,8)                  1.4459         calculate D2E/DX2 analytically  !
 ! R4    R(2,3)                  1.331          calculate D2E/DX2 analytically  !
 ! R5    R(2,9)                  1.6932         calculate D2E/DX2 analytically  !
 ! R6    R(3,4)                  1.4052         calculate D2E/DX2 analytically  !
 ! R7    R(3,6)                  1.0786         calculate D2E/DX2 analytically  !
 ! R8    R(4,5)                  1.3315         calculate D2E/DX2 analytically  !
 ! R9    R(4,7)                  1.0786         calculate D2E/DX2 analytically  !
 ! R10   R(8,11)                 1.5163         calculate D2E/DX2 analytically  !
 ! R11   R(9,10)                 1.3365         calculate D2E/DX2 analytically  !
 ! R12   R(9,11)                 1.2277         calculate D2E/DX2 analytically  !
 ! A1    A(2,1,5)              116.4943         calculate D2E/DX2 analytically  !
 ! A2    A(2,1,8)              107.8845         calculate D2E/DX2 analytically  !
 ! A3    A(5,1,8)              135.4784         calculate D2E/DX2 analytically  !
 ! A4    A(1,2,3)              103.5026         calculate D2E/DX2 analytically  !
 ! A5    A(1,2,9)               97.4061         calculate D2E/DX2 analytically  !
 ! A6    A(3,2,9)              158.4152         calculate D2E/DX2 analytically  !
 ! A7    A(2,3,4)              108.1865         calculate D2E/DX2 analytically  !
 ! A8    A(2,3,6)              121.1174         calculate D2E/DX2 analytically  !
 ! A9    A(4,3,6)              130.6961         calculate D2E/DX2 analytically  !
 ! A10   A(3,4,5)              108.3832         calculate D2E/DX2 analytically  !
 ! A11   A(3,4,7)              130.5065         calculate D2E/DX2 analytically  !
 ! A12   A(5,4,7)              121.1104         calculate D2E/DX2 analytically  !
 ! A13   A(1,5,4)              103.4334         calculate D2E/DX2 analytically  !
 ! A14   A(1,8,11)             117.5574         calculate D2E/DX2 analytically  !
 ! A15   A(2,9,10)             106.2411         calculate D2E/DX2 analytically  !
 ! A16   A(2,9,11)             122.0021         calculate D2E/DX2 analytically  !
 ! A17   A(10,9,11)            130.1714         calculate D2E/DX2 analytically  !
 ! A18   A(8,11,9)              94.1373         calculate D2E/DX2 analytically  !
 ! D1    D(5,1,2,3)             -0.0105         calculate D2E/DX2 analytically  !
 ! D2    D(5,1,2,9)           -174.6126         calculate D2E/DX2 analytically  !
 ! D3    D(8,1,2,3)           -176.342          calculate D2E/DX2 analytically  !
 ! D4    D(8,1,2,9)              9.056          calculate D2E/DX2 analytically  !
 ! D5    D(2,1,5,4)              0.0102         calculate D2E/DX2 analytically  !
 ! D6    D(8,1,5,4)            175.0282         calculate D2E/DX2 analytically  !
 ! D7    D(2,1,8,11)           -10.3279         calculate D2E/DX2 analytically  !
 ! D8    D(5,1,8,11)           174.3566         calculate D2E/DX2 analytically  !
 ! D9    D(1,2,3,4)              0.0061         calculate D2E/DX2 analytically  !
 ! D10   D(1,2,3,6)           -179.9866         calculate D2E/DX2 analytically  !
 ! D11   D(9,2,3,4)            165.3164         calculate D2E/DX2 analytically  !
 ! D12   D(9,2,3,6)            -14.6763         calculate D2E/DX2 analytically  !
 ! D13   D(1,2,9,10)          -175.142          calculate D2E/DX2 analytically  !
 ! D14   D(1,2,9,11)            -8.15           calculate D2E/DX2 analytically  !
 ! D15   D(3,2,9,10)            19.2556         calculate D2E/DX2 analytically  !
 ! D16   D(3,2,9,11)          -173.7524         calculate D2E/DX2 analytically  !
 ! D17   D(2,3,4,5)             -0.0004         calculate D2E/DX2 analytically  !
 ! D18   D(2,3,4,7)            179.9945         calculate D2E/DX2 analytically  !
 ! D19   D(6,3,4,5)            179.9913         calculate D2E/DX2 analytically  !
 ! D20   D(6,3,4,7)             -0.0138         calculate D2E/DX2 analytically  !
 ! D21   D(3,4,5,1)             -0.0054         calculate D2E/DX2 analytically  !
 ! D22   D(7,4,5,1)            179.9991         calculate D2E/DX2 analytically  !
 ! D23   D(1,8,11,9)             4.3824         calculate D2E/DX2 analytically  !
 ! D24   D(2,9,11,8)             2.2086         calculate D2E/DX2 analytically  !
 ! D25   D(10,9,11,8)          165.7803         calculate D2E/DX2 analytically  !
 --------------------------------------------------------------------------------
 Trust Radius=3.00D-01 FncErr=1.00D-07 GrdErr=1.00D-06 EigMax=2.50D+02 EigMin=1.00D-04
 Number of steps in this run=     65 maximum allowed number of steps=    100.
 Search for a saddle point of order  1.
 GradGradGradGradGradGradGradGradGradGradGradGradGradGradGradGradGradGrad

                          Input orientation:                          
 ---------------------------------------------------------------------
 Center     Atomic      Atomic             Coordinates (Angstroms)
 Number     Number       Type             X           Y           Z
 ---------------------------------------------------------------------
      1          7           0       -0.838582   -0.802797   -0.001069
      2          7           0       -0.356276    0.424842    0.000365
      3          6           0       -1.447183    1.187316    0.001156
      4          6           0       -2.571441    0.344353    0.000256
      5          7           0       -2.149394   -0.918534   -0.001079
      6          1           0       -1.375064    2.263546    0.002172
      7          1           0       -3.623922    0.580211    0.000572
      8          1           0        0.277169   -1.718321    0.085760
      9          6           0        1.279438    0.016900   -0.157941
     10          8           0        1.960952    1.163053   -0.067766
     11          8           0        1.670254   -1.144670   -0.085489
 ---------------------------------------------------------------------
                    Distance matrix (angstroms):
                    1          2          3          4          5
     1  N    0.000000
     2  N    1.318984   0.000000
     3  C    2.081093   1.330957   0.000000
     4  C    2.078161   2.216627   1.405185   0.000000
     5  N    1.315912   2.240521   2.219844   1.331544   0.000000
     6  H    3.112922   2.102086   1.078644   2.261553   3.274940
     7  H    3.109796   3.271338   2.259816   1.078585   2.102492
     8  H    1.445899   2.236447   3.379833   3.518027   2.556444
     9  C    2.276516   1.693233   2.971472   3.868013   3.557602
    10  O    3.421463   2.432929   3.408918   4.606244   4.607863
    11  O    2.533429   2.564676   3.894109   4.496279   3.827267
                    6          7          8          9         10
     6  H    0.000000
     7  H    2.809089   0.000000
     8  H    4.311859   4.528688   0.000000
     9  C    3.481298   4.938156   2.018645   0.000000
    10  O    3.513542   5.615621   3.340811   1.336510   0.000000
    11  O    4.571388   5.568745   1.516275   1.227694   2.326028
                   11
    11  O    0.000000
 Stoichiometry    C3H3N3O2
 Framework group  C1[X(C3H3N3O2)]
 Deg. of freedom    27
 Full point group                 C1      NOp   1
 Largest Abelian subgroup         C1      NOp   1
 Largest concise Abelian subgroup C1      NOp   1
                         Standard orientation:                         
 ---------------------------------------------------------------------
 Center     Atomic      Atomic             Coordinates (Angstroms)
 Number     Number       Type             X           Y           Z
 ---------------------------------------------------------------------
      1          7           0        0.569069   -0.830259   -0.022221
      2          7           0        0.090867    0.398931   -0.033751
      3          6           0        1.183912    1.157880   -0.007365
      4          6           0        2.305120    0.311292    0.019545
      5          7           0        1.879124   -0.950227    0.009179
      6          1           0        1.115282    2.234338   -0.008795
      7          1           0        3.358053    0.543751    0.044836
      8          1           0       -0.547194   -1.742076   -0.136987
      9          6           0       -1.549479   -0.003909    0.084662
     10          8           0       -2.224956    1.144540   -0.020475
     11          8           0       -1.942153   -1.164128    0.001406
 ---------------------------------------------------------------------
 Rotational constants (GHZ):           5.4457618           1.5990047           1.2369265
 Standard basis: 6-31+G(d,p) (6D, 7F)
 There are   167 symmetry adapted cartesian basis functions of A   symmetry.
 There are   167 symmetry adapted basis functions of A   symmetry.
   167 basis functions,   277 primitive gaussians,   167 cartesian basis functions
    29 alpha electrons       29 beta electrons
       nuclear repulsion energy       353.0636479167 Hartrees.
 NAtoms=   11 NActive=   11 NUniq=   11 SFac= 1.00D+00 NAtFMM=   60 NAOKFM=F Big=F
 Integral buffers will be    131072 words long.
 Raffenetti 2 integral format.
 Two-electron integral symmetry is turned on.
 One-electron integrals computed using PRISM.
 NBasis=   167 RedAO= T EigKep=  2.73D-05  NBF=   167
 NBsUse=   167 1.00D-06 EigRej= -1.00D+00 NBFU=   167
 ExpMin= 4.38D-02 ExpMax= 5.48D+03 ExpMxC= 8.25D+02 IAcc=3 IRadAn=         5 AccDes= 0.00D+00
 Harris functional with IExCor= 1009 and IRadAn=       5 diagonalized for initial guess.
 HarFok:  IExCor= 1009 AccDes= 0.00D+00 IRadAn=         5 IDoV= 1 UseB2=F ITyADJ=14
 ICtDFT=  3500011 ScaDFX=  1.000000  1.000000  1.000000  1.000000
 FoFCou: FMM=F IPFlag=           0 FMFlag=      100000 FMFlg1=           0
         NFxFlg=           0 DoJE=T BraDBF=F KetDBF=T FulRan=T
         wScrn=  0.000000 ICntrl=       500 IOpCl=  0 I1Cent=   200000004 NGrid=           0
         NMat0=    1 NMatS0=      1 NMatT0=    0 NMatD0=    1 NMtDS0=    0 NMtDT0=    0
 Petite list used in FoFCou.
 Keep R1 ints in memory in canonical form, NReq=118249495.
 Requested convergence on RMS density matrix=1.00D-08 within 128 cycles.
 Requested convergence on MAX density matrix=1.00D-06.
 Requested convergence on             energy=1.00D-06.
 No special actions if energy rises.
 SCF Done:  E(RM062X) =  -430.534071249     A.U. after   16 cycles
            NFock= 16  Conv=0.41D-08     -V/T= 2.0097
 DoSCS=F DFT=T ScalE2(SS,OS)=  1.000000  1.000000
 Range of M.O.s used for correlation:     1   167
 NBasis=   167 NAE=    29 NBE=    29 NFC=     0 NFV=     0
 NROrb=    167 NOA=    29 NOB=    29 NVA=   138 NVB=   138

 **** Warning!!: The largest alpha MO coefficient is  0.65178683D+02

 Symmetrizing basis deriv contribution to polar:
 IMax=3 JMax=2 DiffMx= 0.00D+00
 G2DrvN: will do    12 centers at a time, making    1 passes.
 Calling FoFCou, ICntrl=  3107 FMM=F I1Cent=   0 AccDes= 0.00D+00.
 End of G2Drv F.D. properties file   721 does not exist.
 End of G2Drv F.D. properties file   722 does not exist.
 End of G2Drv F.D. properties file   788 does not exist.
          IDoAtm=11111111111
          Differentiating once with respect to nuclear coordinates.
 Keep R1 ints in memory in canonical form, NReq=118190351.
          There are    36 degrees of freedom in the 1st order CPHF.  IDoFFX=6 NUNeed=     0.
     30 vectors produced by pass  0 Test12= 1.11D-14 2.78D-09 XBig12= 1.85D-01 8.25D-02.
 AX will form    30 AO Fock derivatives at one time.
     30 vectors produced by pass  1 Test12= 1.11D-14 2.78D-09 XBig12= 2.80D-02 5.55D-02.
     30 vectors produced by pass  2 Test12= 1.11D-14 2.78D-09 XBig12= 5.44D-04 4.37D-03.
     30 vectors produced by pass  3 Test12= 1.11D-14 2.78D-09 XBig12= 6.60D-06 4.34D-04.
     30 vectors produced by pass  4 Test12= 1.11D-14 2.78D-09 XBig12= 7.66D-08 3.06D-05.
     30 vectors produced by pass  5 Test12= 1.11D-14 2.78D-09 XBig12= 6.18D-10 2.90D-06.
     29 vectors produced by pass  6 Test12= 1.11D-14 2.78D-09 XBig12= 2.82D-12 1.87D-07.
     11 vectors produced by pass  7 Test12= 1.11D-14 2.78D-09 XBig12= 1.03D-14 1.34D-08.
 InvSVY:  IOpt=1 It=  1 EMax= 3.00D-15
 Solved reduced A of dimension   220 with    30 vectors.
 End of Minotr F.D. properties file   721 does not exist.
 End of Minotr F.D. properties file   722 does not exist.
 End of Minotr F.D. properties file   788 does not exist.

 **********************************************************************

            Population analysis using the SCF density.

 **********************************************************************

 Orbital symmetries:
       Occupied  (A) (A) (A) (A) (A) (A) (A) (A) (A) (A) (A) (A)
                 (A) (A) (A) (A) (A) (A) (A) (A) (A) (A) (A) (A)
                 (A) (A) (A) (A) (A)
       Virtual   (A) (A) (A) (A) (A) (A) (A) (A) (A) (A) (A) (A)
                 (A) (A) (A) (A) (A) (A) (A) (A) (A) (A) (A) (A)
                 (A) (A) (A) (A) (A) (A) (A) (A) (A) (A) (A) (A)
                 (A) (A) (A) (A) (A) (A) (A) (A) (A) (A) (A) (A)
                 (A) (A) (A) (A) (A) (A) (A) (A) (A) (A) (A) (A)
                 (A) (A) (A) (A) (A) (A) (A) (A) (A) (A) (A) (A)
                 (A) (A) (A) (A) (A) (A) (A) (A) (A) (A) (A) (A)
                 (A) (A) (A) (A) (A) (A) (A) (A) (A) (A) (A) (A)
                 (A) (A) (A) (A) (A) (A) (A) (A) (A) (A) (A) (A)
                 (A) (A) (A) (A) (A) (A) (A) (A) (A) (A) (A) (A)
                 (A) (A) (A) (A) (A) (A) (A) (A) (A) (A) (A) (A)
                 (A) (A) (A) (A) (A) (A)
 The electronic state is 1-A.
 Alpha  occ. eigenvalues --  -19.72459 -19.64566 -14.91199 -14.90990 -14.85339
 Alpha  occ. eigenvalues --  -10.76585 -10.64962 -10.62718  -1.29394  -1.24778
 Alpha  occ. eigenvalues --   -1.10193  -1.07010  -0.95790  -0.78846  -0.74335
 Alpha  occ. eigenvalues --   -0.70871  -0.65945  -0.61779  -0.58344  -0.56640
 Alpha  occ. eigenvalues --   -0.55508  -0.54304  -0.50833  -0.44828  -0.42274
 Alpha  occ. eigenvalues --   -0.41379  -0.37184  -0.36801  -0.35784
 Alpha virt. eigenvalues --   -0.03701  -0.00332   0.00780   0.01576   0.02604
 Alpha virt. eigenvalues --    0.03134   0.03824   0.03926   0.05790   0.06458
 Alpha virt. eigenvalues --    0.06853   0.07895   0.08965   0.10295   0.10788
 Alpha virt. eigenvalues --    0.11876   0.13177   0.15427   0.16029   0.18631
 Alpha virt. eigenvalues --    0.19520   0.19836   0.21227   0.21846   0.22012
 Alpha virt. eigenvalues --    0.22942   0.25344   0.25654   0.26080   0.27187
 Alpha virt. eigenvalues --    0.28165   0.29296   0.29904   0.30994   0.32003
 Alpha virt. eigenvalues --    0.32257   0.32794   0.34449   0.35351   0.37220
 Alpha virt. eigenvalues --    0.39348   0.44337   0.45527   0.48359   0.50913
 Alpha virt. eigenvalues --    0.56376   0.68282   0.70410   0.71736   0.75768
 Alpha virt. eigenvalues --    0.76302   0.84606   0.85087   0.87014   0.89291
 Alpha virt. eigenvalues --    0.90153   0.91230   0.92627   0.95259   0.96230
 Alpha virt. eigenvalues --    0.98623   0.99303   1.05254   1.08598   1.11030
 Alpha virt. eigenvalues --    1.16999   1.19704   1.23221   1.23718   1.25021
 Alpha virt. eigenvalues --    1.27838   1.29353   1.32164   1.32865   1.34290
 Alpha virt. eigenvalues --    1.35544   1.38665   1.41041   1.42184   1.46608
 Alpha virt. eigenvalues --    1.47969   1.50318   1.51354   1.53511   1.56512
 Alpha virt. eigenvalues --    1.58678   1.63400   1.68067   1.73825   1.80055
 Alpha virt. eigenvalues --    1.81629   1.86152   1.87945   1.90777   1.91981
 Alpha virt. eigenvalues --    1.93297   2.00539   2.02106   2.04970   2.07683
 Alpha virt. eigenvalues --    2.14087   2.19330   2.19516   2.25236   2.28503
 Alpha virt. eigenvalues --    2.32975   2.34471   2.35648   2.36651   2.48038
 Alpha virt. eigenvalues --    2.48191   2.49695   2.53768   2.57670   2.60357
 Alpha virt. eigenvalues --    2.67171   2.69234   2.70981   2.72262   2.79004
 Alpha virt. eigenvalues --    2.87583   2.91348   2.93591   3.02921   3.06997
 Alpha virt. eigenvalues --    3.11341   3.13604   3.25211   3.28296   3.67472
 Alpha virt. eigenvalues --    3.95189   4.13865   4.16287   4.19585   4.39990
 Alpha virt. eigenvalues --    4.45914   4.54550   4.62815
          Condensed to atoms (all electrons):
               1          2          3          4          5          6
     1  N    8.340663  -0.052322  -0.253001   0.273125  -1.277124   0.005116
     2  N   -0.052322   6.803049   0.390006  -0.097781   0.167381  -0.041352
     3  C   -0.253001   0.390006   5.517388   0.102576   0.132477   0.390342
     4  C    0.273125  -0.097781   0.102576   5.410027   0.067393  -0.009194
     5  N   -1.277124   0.167381   0.132477   0.067393   8.033705  -0.004184
     6  H    0.005116  -0.041352   0.390342  -0.009194  -0.004184   0.444832
     7  H   -0.003619  -0.009909   0.003315   0.371269  -0.032107   0.000406
     8  H    0.119557  -0.007466  -0.004503   0.002832   0.049061  -0.000005
     9  C    0.088655  -0.083108  -0.071900   0.003776  -0.023887  -0.001731
    10  O   -0.002760  -0.010129  -0.057843   0.021614  -0.011270  -0.000327
    11  O    0.056979  -0.133562  -0.017750   0.011254  -0.009211  -0.000132
               7          8          9         10         11
     1  N   -0.003619   0.119557   0.088655  -0.002760   0.056979
     2  N   -0.009909  -0.007466  -0.083108  -0.010129  -0.133562
     3  C    0.003315  -0.004503  -0.071900  -0.057843  -0.017750
     4  C    0.371269   0.002832   0.003776   0.021614   0.011254
     5  N   -0.032107   0.049061  -0.023887  -0.011270  -0.009211
     6  H    0.000406  -0.000005  -0.001731  -0.000327  -0.000132
     7  H    0.468831  -0.000008  -0.000059  -0.000019  -0.000002
     8  H   -0.000008   0.323319   0.023063   0.001044   0.059363
     9  C   -0.000059   0.023063   4.689755   0.484007   0.293869
    10  O   -0.000019   0.001044   0.484007   8.177863  -0.111026
    11  O   -0.000002   0.059363   0.293869  -0.111026   8.208190
 Mulliken charges:
               1
     1  N   -0.295268
     2  N    0.075192
     3  C   -0.131106
     4  C   -0.156892
     5  N   -0.092233
     6  H    0.216229
     7  H    0.201901
     8  H    0.433743
     9  C    0.597560
    10  O   -0.491153
    11  O   -0.357973
 Sum of Mulliken charges =  -0.00000
 Mulliken charges with hydrogens summed into heavy atoms:
               1
     1  N    0.138475
     2  N    0.075192
     3  C    0.085123
     4  C    0.045010
     5  N   -0.092233
     9  C    0.597560
    10  O   -0.491153
    11  O   -0.357973
 APT charges:
               1
     1  N   -0.569662
     2  N   -0.249176
     3  C   -0.413854
     4  C   -0.435417
     5  N    0.074185
     6  H    0.580373
     7  H    0.798289
     8  H    0.557999
     9  C    0.029482
    10  O   -0.239992
    11  O   -0.132226
 Sum of APT charges =  -0.00000
 APT charges with hydrogens summed into heavy atoms:
               1
     1  N   -0.011663
     2  N   -0.249176
     3  C    0.166519
     4  C    0.362872
     5  N    0.074185
     9  C    0.029482
    10  O   -0.239992
    11  O   -0.132226
 Electronic spatial extent (au):  <R**2>=            874.5018
 Charge=             -0.0000 electrons
 Dipole moment (field-independent basis, Debye):
    X=              4.7247    Y=              0.0444    Z=             -0.0019  Tot=              4.7249
 Quadrupole moment (field-independent basis, Debye-Ang):
   XX=            -52.8953   YY=            -44.9267   ZZ=            -45.9669
   XY=              9.3920   XZ=             -0.0527   YZ=              0.4667
 Traceless Quadrupole moment (field-independent basis, Debye-Ang):
   XX=             -4.9657   YY=              3.0030   ZZ=              1.9627
   XY=              9.3920   XZ=             -0.0527   YZ=              0.4667
 Octapole moment (field-independent basis, Debye-Ang**2):
  XXX=             36.6003  YYY=              0.2213  ZZZ=             -0.1963  XYY=              3.9230
  XXY=              4.4825  XXZ=              0.5797  XZZ=             -5.8519  YZZ=             -1.6904
  YYZ=             -1.3143  XYZ=             -0.1483
 Hexadecapole moment (field-independent basis, Debye-Ang**3):
 XXXX=           -798.1511 YYYY=           -243.1741 ZZZZ=            -44.8849 XXXY=             47.4668
 XXXZ=              1.7342 YYYX=             27.9965 YYYZ=              1.6163 ZZZX=              0.1589
 ZZZY=              0.0099 XXYY=           -207.3828 XXZZ=           -146.2909 YYZZ=            -55.0528
 XXYZ=              0.1185 YYXZ=              1.1760 ZZXY=             -0.1623
 N-N= 3.530636479167D+02 E-N=-1.710837945679D+03  KE= 4.264114915681D+02
  Exact polarizability:   0.000   0.000   0.000   0.000   0.000   0.000
 Approx polarizability: 101.856  -2.235  99.950   1.676  -0.618  44.903
 Calling FoFJK, ICntrl=    100147 FMM=F ISym2X=0 I1Cent= 0 IOpClX= 0 NMat=1 NMatS=1 NMatT=0.
 ***** Axes restored to original set *****
 -------------------------------------------------------------------
 Center     Atomic                   Forces (Hartrees/Bohr)
 Number     Number              X              Y              Z
 -------------------------------------------------------------------
      1        7           0.017160396   -0.082689731    0.007410431
      2        7           0.000531933   -0.081358977   -0.006772599
      3        6          -0.008084677    0.038065063   -0.003030681
      4        6           0.009268778    0.014430810    0.000377860
      5        7           0.033509061    0.000670653    0.002387353
      6        1          -0.000484297    0.000414840   -0.000476626
      7        1           0.000712936    0.003537600    0.000126677
      8        1          -0.025164819    0.054598959   -0.011903729
      9        6           0.118583302    0.191586845    0.037569412
     10        8          -0.076712812   -0.120613948   -0.021973541
     11        8          -0.069319802   -0.018642114   -0.003714559
 -------------------------------------------------------------------
 Cartesian Forces:  Max     0.191586845 RMS     0.054725172
 FormGI is forming the generalized inverse of G from B-inverse, IUseBI=4.

 GradGradGradGradGradGradGradGradGradGradGradGradGradGradGradGradGradGrad
 Berny optimization.
 Internal  Forces:  Max     0.144033027 RMS     0.026443672
 Search for a saddle point.
 Step number   1 out of a maximum of   65
 All quantities printed in internal units (Hartrees-Bohrs-Radians)
 Swapping is turned off.
 Second derivative matrix not updated -- analytic derivatives used.
 ITU=  0
     Eigenvalues ---   -0.08306  -0.00554   0.00296   0.00637   0.00921
     Eigenvalues ---    0.01367   0.02597   0.03401   0.04459   0.05221
     Eigenvalues ---    0.06376   0.10396   0.10693   0.11787   0.14551
     Eigenvalues ---    0.22165   0.23829   0.25809   0.32319   0.34630
     Eigenvalues ---    0.38457   0.38734   0.41903   0.44021   0.51899
     Eigenvalues ---    0.61884   0.71718
 Eigenvectors required to have negative eigenvalues:
                          R10       R3        R5        A3        A2
   1                   -0.62499   0.59600  -0.34658   0.20346  -0.16646
                          A17       R12       A6        A15       A18
   1                   -0.13729   0.09855  -0.08609   0.08364   0.08146
 RFO step:  Lambda0=1.810310339D-03 Lambda=-1.26685402D-01.
 Linear search not attempted -- option 19 set.
 Maximum step size (   0.300) exceeded in Quadratic search.
    -- Step size scaled by   0.268
 Iteration  1 RMS(Cart)=  0.05541283 RMS(Int)=  0.00420132
 Iteration  2 RMS(Cart)=  0.00402899 RMS(Int)=  0.00153014
 Iteration  3 RMS(Cart)=  0.00002524 RMS(Int)=  0.00153000
 Iteration  4 RMS(Cart)=  0.00000008 RMS(Int)=  0.00153000
 Variable       Old X    -DE/DX   Delta X   Delta X   Delta X     New X
                                 (Linear)    (Quad)   (Total)
    R1        2.49252   0.00813   0.00000  -0.00222  -0.00206   2.49045
    R2        2.48671  -0.02603   0.00000  -0.01683  -0.01684   2.46987
    R3        2.73235  -0.07175   0.00000  -0.11148  -0.11113   2.62122
    R4        2.51514   0.01265   0.00000   0.00126   0.00108   2.51623
    R5        3.19975  -0.01935   0.00000  -0.21164  -0.21139   2.98836
    R6        2.65541  -0.01452   0.00000  -0.00794  -0.00777   2.64765
    R7        2.03834   0.00038   0.00000  -0.00025  -0.00025   2.03810
    R8        2.51625   0.02116   0.00000   0.01225   0.01252   2.52878
    R9        2.03823   0.00008   0.00000  -0.00026  -0.00026   2.03797
   R10        2.86534  -0.01911   0.00000   0.01972   0.01916   2.88450
   R11        2.52564  -0.14403   0.00000  -0.05999  -0.05999   2.46564
   R12        2.32001   0.00322   0.00000   0.01881   0.01832   2.33832
    A1        2.03321  -0.01337   0.00000  -0.01724  -0.01754   2.01567
    A2        1.88294  -0.00916   0.00000  -0.04166  -0.04094   1.84200
    A3        2.36454   0.02272   0.00000   0.05848   0.05797   2.42251
    A4        1.80646   0.01665   0.00000   0.02473   0.02521   1.83167
    A5        1.70006   0.02533   0.00000   0.08071   0.08248   1.78254
    A6        2.76487  -0.04313   0.00000  -0.10229  -0.10401   2.66086
    A7        1.88821  -0.01605   0.00000  -0.02030  -0.02060   1.86761
    A8        2.11390   0.00855   0.00000   0.00612   0.00625   2.12015
    A9        2.28108   0.00750   0.00000   0.01418   0.01433   2.29541
   A10        1.89164   0.00399   0.00000   0.00562   0.00574   1.89738
   A11        2.27777  -0.00567   0.00000  -0.00530  -0.00536   2.27241
   A12        2.11377   0.00168   0.00000  -0.00032  -0.00038   2.11339
   A13        1.80525   0.00877   0.00000   0.00719   0.00717   1.81243
   A14        2.05176   0.00591   0.00000  -0.01111  -0.01110   2.04066
   A15        1.85426   0.02301   0.00000   0.04514   0.04523   1.89949
   A16        2.12934  -0.05464   0.00000  -0.04001  -0.04037   2.08897
   A17        2.27192   0.03305   0.00000  -0.00020   0.00028   2.27220
   A18        1.64301   0.03265   0.00000   0.01387   0.01197   1.65498
    D1       -0.00018  -0.00511   0.00000  -0.00824  -0.00519  -0.00537
    D2       -3.04756   0.00497   0.00000  -0.00748  -0.01059  -3.05816
    D3       -3.07775  -0.00862   0.00000  -0.00546  -0.00180  -3.07955
    D4        0.15806   0.00146   0.00000  -0.00470  -0.00720   0.15085
    D5        0.00018   0.00388   0.00000   0.00729   0.00488   0.00506
    D6        3.05482   0.00638   0.00000  -0.00284  -0.00686   3.04796
    D7       -0.18026   0.00065   0.00000   0.00628   0.00840  -0.17186
    D8        3.04310  -0.00140   0.00000   0.01541   0.01908   3.06218
    D9        0.00011   0.00401   0.00000   0.00547   0.00312   0.00322
   D10       -3.14136   0.00109   0.00000  -0.00167  -0.00223   3.13959
   D11        2.88532   0.00548   0.00000   0.07389   0.07088   2.95619
   D12       -0.25615   0.00256   0.00000   0.06675   0.06553  -0.19062
   D13       -3.05680  -0.00718   0.00000   0.00251   0.00284  -3.05396
   D14       -0.14224   0.00501   0.00000   0.02392   0.02591  -0.11634
   D15        0.33607  -0.00880   0.00000  -0.06332  -0.06206   0.27401
   D16       -3.03255   0.00339   0.00000  -0.04192  -0.03900  -3.07155
   D17       -0.00001  -0.00200   0.00000  -0.00153  -0.00039  -0.00040
   D18        3.14150  -0.00213   0.00000  -0.00294  -0.00172   3.13978
   D19        3.14144   0.00131   0.00000   0.00653   0.00570  -3.13604
   D20       -0.00024   0.00118   0.00000   0.00512   0.00438   0.00414
   D21       -0.00009  -0.00097   0.00000  -0.00314  -0.00252  -0.00262
   D22        3.14158  -0.00085   0.00000  -0.00188  -0.00134   3.14024
   D23        0.07649   0.00321   0.00000   0.01615   0.01529   0.09178
   D24        0.03855  -0.00364   0.00000  -0.02186  -0.02245   0.01610
   D25        2.89341   0.00567   0.00000   0.00938   0.01061   2.90402
         Item               Value     Threshold  Converged?
 Maximum Force            0.144033     0.000450     NO 
 RMS     Force            0.026444     0.000300     NO 
 Maximum Displacement     0.199215     0.001800     NO 
 RMS     Displacement     0.058245     0.001200     NO 
 Predicted change in Energy=-3.348369D-02
 GradGradGradGradGradGradGradGradGradGradGradGradGradGradGradGradGradGrad

                          Input orientation:                          
 ---------------------------------------------------------------------
 Center     Atomic      Atomic             Coordinates (Angstroms)
 Number     Number       Type             X           Y           Z
 ---------------------------------------------------------------------
      1          7           0       -0.841681   -0.862838   -0.001784
      2          7           0       -0.337912    0.354959   -0.006744
      3          6           0       -1.395409    1.164078   -0.007499
      4          6           0       -2.534989    0.349044    0.001604
      5          7           0       -2.146840   -0.931586    0.007161
      6          1           0       -1.283706    2.236790   -0.009423
      7          1           0       -3.580348    0.614110    0.005495
      8          1           0        0.248956   -1.715791    0.081922
      9          6           0        1.211888    0.072951   -0.145756
     10          8           0        1.855532    1.204403   -0.056621
     11          8           0        1.630459   -1.090223   -0.091417
 ---------------------------------------------------------------------
                    Distance matrix (angstroms):
                    1          2          3          4          5
     1  N    0.000000
     2  N    1.317891   0.000000
     3  C    2.101199   1.331530   0.000000
     4  C    2.082297   2.197101   1.401074   0.000000
     5  N    1.306999   2.219822   2.226358   1.338171   0.000000
     6  H    3.130996   2.106139   1.078514   2.264822   3.283882
     7  H    3.111547   3.252798   2.253130   1.078448   2.108108
     8  H    1.387092   2.154131   3.317465   3.467037   2.521985
     9  C    2.261322   1.581371   2.829783   3.759925   3.509065
    10  O    3.398743   2.352709   3.251562   4.473445   4.537125
    11  O    2.484193   2.443401   3.774227   4.408072   3.781914
                    6          7          8          9         10
     6  H    0.000000
     7  H    2.812095   0.000000
     8  H    4.240318   4.483062   0.000000
     9  C    3.305870   4.825066   2.044180   0.000000
    10  O    3.304976   5.468190   3.335838   1.304763   0.000000
    11  O    4.423584   5.483307   1.526411   1.237387   2.305901
                   11
    11  O    0.000000
 Stoichiometry    C3H3N3O2
 Framework group  C1[X(C3H3N3O2)]
 Deg. of freedom    27
 Full point group                 C1      NOp   1
 Largest Abelian subgroup         C1      NOp   1
 Largest concise Abelian subgroup C1      NOp   1
                         Standard orientation:                         
 ---------------------------------------------------------------------
 Center     Atomic      Atomic             Coordinates (Angstroms)
 Number     Number       Type             X           Y           Z
 ---------------------------------------------------------------------
      1          7           0        0.580095   -0.876063   -0.020458
      2          7           0        0.049942    0.330476   -0.026610
      3          6           0        1.089247    1.162414   -0.000225
      4          6           0        2.246207    0.372383    0.017140
      5          7           0        1.886288   -0.916382    0.001503
      6          1           0        0.954189    2.232439   -0.000215
      7          1           0        3.285343    0.660139    0.038221
      8          1           0       -0.489413   -1.752446   -0.130587
      9          6           0       -1.496206    0.014642    0.075418
     10          8           0       -2.162052    1.131926   -0.028180
     11          8           0       -1.887934   -1.157299    0.010372
 ---------------------------------------------------------------------
 Rotational constants (GHZ):           5.4711874           1.6836967           1.2882732
 Standard basis: 6-31+G(d,p) (6D, 7F)
 There are   167 symmetry adapted cartesian basis functions of A   symmetry.
 There are   167 symmetry adapted basis functions of A   symmetry.
   167 basis functions,   277 primitive gaussians,   167 cartesian basis functions
    29 alpha electrons       29 beta electrons
       nuclear repulsion energy       357.8778937919 Hartrees.
 NAtoms=   11 NActive=   11 NUniq=   11 SFac= 1.00D+00 NAtFMM=   60 NAOKFM=F Big=F
 Integral buffers will be    131072 words long.
 Raffenetti 2 integral format.
 Two-electron integral symmetry is turned on.
 One-electron integrals computed using PRISM.
 NBasis=   167 RedAO= T EigKep=  2.53D-05  NBF=   167
 NBsUse=   167 1.00D-06 EigRej= -1.00D+00 NBFU=   167
 Initial guess from the checkpoint file:  "/scratch/gongke2021/TS/Gau-21823.chk"
 B after Tr=    -0.000000    0.000000   -0.000000
         Rot=    0.999976    0.000932   -0.000055   -0.006796 Ang=   0.79 deg.
 ExpMin= 4.38D-02 ExpMax= 5.48D+03 ExpMxC= 8.25D+02 IAcc=2 IRadAn=         4 AccDes= 0.00D+00
 Harris functional with IExCor= 1009 and IRadAn=       4 diagonalized for initial guess.
 HarFok:  IExCor= 1009 AccDes= 0.00D+00 IRadAn=         4 IDoV= 1 UseB2=F ITyADJ=14
 ICtDFT=  3500011 ScaDFX=  1.000000  1.000000  1.000000  1.000000
 FoFCou: FMM=F IPFlag=           0 FMFlag=      100000 FMFlg1=           0
         NFxFlg=           0 DoJE=T BraDBF=F KetDBF=T FulRan=T
         wScrn=  0.000000 ICntrl=       500 IOpCl=  0 I1Cent=   200000004 NGrid=           0
         NMat0=    1 NMatS0=      1 NMatT0=    0 NMatD0=    1 NMtDS0=    0 NMtDT0=    0
 Petite list used in FoFCou.
 Keep R1 ints in memory in canonical form, NReq=118249495.
 Requested convergence on RMS density matrix=1.00D-08 within 128 cycles.
 Requested convergence on MAX density matrix=1.00D-06.
 Requested convergence on             energy=1.00D-06.
 No special actions if energy rises.
 SCF Done:  E(RM062X) =  -430.566763656     A.U. after   14 cycles
            NFock= 14  Conv=0.60D-08     -V/T= 2.0093
 Calling FoFJK, ICntrl=      2127 FMM=F ISym2X=0 I1Cent= 0 IOpClX= 0 NMat=1 NMatS=1 NMatT=0.
 ***** Axes restored to original set *****
 -------------------------------------------------------------------
 Center     Atomic                   Forces (Hartrees/Bohr)
 Number     Number              X              Y              Z
 -------------------------------------------------------------------
      1        7           0.017324095   -0.070585899    0.007827081
      2        7          -0.002751282   -0.068640383   -0.008034493
      3        6          -0.005241817    0.030528325   -0.002082140
      4        6           0.007586056    0.010889711    0.000418402
      5        7           0.026061457    0.001135469    0.001847073
      6        1          -0.000150247    0.000325384   -0.000664271
      7        1           0.000657688    0.002766254    0.000062452
      8        1          -0.021389484    0.050911704   -0.012424567
      9        6           0.095195599    0.159370534    0.036083865
     10        8          -0.058532446   -0.095826629   -0.019758229
     11        8          -0.058759618   -0.020874470   -0.003275174
 -------------------------------------------------------------------
 Cartesian Forces:  Max     0.159370534 RMS     0.045335609

 GradGradGradGradGradGradGradGradGradGradGradGradGradGradGradGradGradGrad
 Berny optimization.
 FormGI is forming the generalized inverse of G from B-inverse, IUseBI=4.
 Internal  Forces:  Max     0.113321595 RMS     0.021598436
 Search for a saddle point.
 Step number   2 out of a maximum of   65
 All quantities printed in internal units (Hartrees-Bohrs-Radians)
 Swapping is turned off.
 Update second derivatives using D2CorX and points    1    2
 ITU=  0  0
     Eigenvalues ---   -0.08123   0.00028   0.00381   0.00845   0.01104
     Eigenvalues ---    0.01375   0.02597   0.03396   0.04787   0.05214
     Eigenvalues ---    0.06373   0.10394   0.10693   0.11770   0.14962
     Eigenvalues ---    0.22198   0.23844   0.25865   0.32903   0.34645
     Eigenvalues ---    0.38456   0.38734   0.41897   0.44014   0.51893
     Eigenvalues ---    0.61882   0.71836
 Eigenvectors required to have negative eigenvalues:
                          R10       R3        R5        A3        A2
   1                   -0.63829   0.62144  -0.29272   0.19657  -0.16063
                          A17       R12       A18       A15       A6
   1                   -0.13250   0.09644   0.08369   0.07873  -0.06825
 RFO step:  Lambda0=2.731554332D-03 Lambda=-9.58141637D-02.
 Linear search not attempted -- option 19 set.
 Maximum step size (   0.300) exceeded in Quadratic search.
    -- Step size scaled by   0.450
 Iteration  1 RMS(Cart)=  0.03095048 RMS(Int)=  0.00122111
 Iteration  2 RMS(Cart)=  0.00133391 RMS(Int)=  0.00022490
 Iteration  3 RMS(Cart)=  0.00000087 RMS(Int)=  0.00022490
 Variable       Old X    -DE/DX   Delta X   Delta X   Delta X     New X
                                 (Linear)    (Quad)   (Total)
    R1        2.49045   0.00636   0.00000  -0.00176  -0.00202   2.48843
    R2        2.46987  -0.01996   0.00000  -0.01563  -0.01565   2.45422
    R3        2.62122  -0.06262   0.00000  -0.09187  -0.09196   2.52926
    R4        2.51623   0.00998   0.00000   0.00605   0.00604   2.52227
    R5        2.98836  -0.01162   0.00000  -0.03160  -0.03161   2.95675
    R6        2.64765  -0.01138   0.00000  -0.01067  -0.01064   2.63701
    R7        2.03810   0.00031   0.00000  -0.00020  -0.00020   2.03790
    R8        2.52878   0.01666   0.00000   0.01322   0.01325   2.54203
    R9        2.03797   0.00004   0.00000  -0.00017  -0.00017   2.03781
   R10        2.88450  -0.01856   0.00000  -0.15657  -0.15644   2.72806
   R11        2.46564  -0.11332   0.00000  -0.13945  -0.13945   2.32619
   R12        2.33832   0.00416   0.00000   0.02330   0.02350   2.36182
    A1        2.01567  -0.01152   0.00000  -0.01958  -0.01955   1.99612
    A2        1.84200  -0.00799   0.00000  -0.04581  -0.04615   1.79585
    A3        2.42251   0.01969   0.00000   0.06622   0.06647   2.48899
    A4        1.83167   0.01392   0.00000   0.02394   0.02402   1.85569
    A5        1.78254   0.02188   0.00000   0.04320   0.04307   1.82561
    A6        2.66086  -0.03621   0.00000  -0.06713  -0.06696   2.59390
    A7        1.86761  -0.01298   0.00000  -0.01828  -0.01833   1.84928
    A8        2.12015   0.00668   0.00000   0.00800   0.00802   2.12817
    A9        2.29541   0.00629   0.00000   0.01024   0.01026   2.30567
   A10        1.89738   0.00317   0.00000   0.00334   0.00333   1.90072
   A11        2.27241  -0.00448   0.00000  -0.00507  -0.00507   2.26734
   A12        2.11339   0.00131   0.00000   0.00173   0.00173   2.11513
   A13        1.81243   0.00739   0.00000   0.01054   0.01047   1.82290
   A14        2.04066   0.00807   0.00000   0.05656   0.05643   2.09709
   A15        1.89949   0.02053   0.00000   0.05898   0.05872   1.95821
   A16        2.08897  -0.04739   0.00000  -0.09902  -0.09900   1.98996
   A17        2.27220   0.02846   0.00000   0.04746   0.04735   2.31955
   A18        1.65498   0.02574   0.00000   0.04727   0.04774   1.70272
    D1       -0.00537  -0.00331   0.00000  -0.00680  -0.00677  -0.01214
    D2       -3.05816   0.00243   0.00000  -0.00043  -0.00122  -3.05938
    D3       -3.07955  -0.00628   0.00000  -0.01943  -0.01901  -3.09855
    D4        0.15085  -0.00054   0.00000  -0.01305  -0.01346   0.13739
    D5        0.00506   0.00245   0.00000   0.00472   0.00462   0.00967
    D6        3.04796   0.00435   0.00000   0.01449   0.01467   3.06262
    D7       -0.17186   0.00149   0.00000   0.00787   0.00770  -0.16416
    D8        3.06218   0.00001   0.00000  -0.00159  -0.00192   3.06026
    D9        0.00322   0.00261   0.00000   0.00569   0.00571   0.00894
   D10        3.13959   0.00065   0.00000  -0.00030  -0.00026   3.13934
   D11        2.95619   0.00446   0.00000   0.01837   0.01835   2.97454
   D12       -0.19062   0.00250   0.00000   0.01238   0.01238  -0.17824
   D13       -3.05396  -0.00640   0.00000  -0.02211  -0.02184  -3.07580
   D14       -0.11634   0.00539   0.00000   0.01918   0.01889  -0.09745
   D15        0.27401  -0.00803   0.00000  -0.03409  -0.03370   0.24031
   D16       -3.07155   0.00375   0.00000   0.00720   0.00703  -3.06453
   D17       -0.00040  -0.00128   0.00000  -0.00315  -0.00314  -0.00354
   D18        3.13978  -0.00141   0.00000  -0.00383  -0.00382   3.13596
   D19       -3.13604   0.00096   0.00000   0.00370   0.00371  -3.13233
   D20        0.00414   0.00083   0.00000   0.00302   0.00304   0.00717
   D21       -0.00262  -0.00065   0.00000  -0.00081  -0.00077  -0.00339
   D22        3.14024  -0.00052   0.00000  -0.00020  -0.00016   3.14008
   D23        0.09178   0.00304   0.00000   0.00705   0.00742   0.09920
   D24        0.01610  -0.00353   0.00000  -0.01229  -0.01193   0.00416
   D25        2.90402   0.00683   0.00000   0.03429   0.03485   2.93887
         Item               Value     Threshold  Converged?
 Maximum Force            0.113322     0.000450     NO 
 RMS     Force            0.021598     0.000300     NO 
 Maximum Displacement     0.122148     0.001800     NO 
 RMS     Displacement     0.031418     0.001200     NO 
 Predicted change in Energy=-3.666342D-02
 GradGradGradGradGradGradGradGradGradGradGradGradGradGradGradGradGradGrad

                          Input orientation:                          
 ---------------------------------------------------------------------
 Center     Atomic      Atomic             Coordinates (Angstroms)
 Number     Number       Type             X           Y           Z
 ---------------------------------------------------------------------
      1          7           0       -0.837215   -0.894246    0.002524
      2          7           0       -0.338173    0.324348    0.001660
      3          6           0       -1.381356    1.156918   -0.007811
      4          6           0       -2.518131    0.347629   -0.000416
      5          7           0       -2.135048   -0.941821    0.008712
      6          1           0       -1.256324    2.228054   -0.008517
      7          1           0       -3.561466    0.620231    0.000547
      8          1           0        0.255442   -1.664421    0.068243
      9          6           0        1.207122    0.117610   -0.130385
     10          8           0        1.825280    1.180440   -0.070752
     11          8           0        1.565821   -1.078843   -0.086868
 ---------------------------------------------------------------------
                    Distance matrix (angstroms):
                    1          2          3          4          5
     1  N    0.000000
     2  N    1.316820   0.000000
     3  C    2.122138   1.334726   0.000000
     4  C    2.089914   2.180084   1.395443   0.000000
     5  N    1.298719   2.198180   2.230029   1.345183   0.000000
     6  H    3.150322   2.113575   1.078409   2.264558   3.289462
     7  H    3.116919   3.236845   2.245214   1.078360   2.115358
     8  H    1.338427   2.076538   3.262643   3.427209   2.498027
     9  C    2.284914   1.564644   2.792025   3.734610   3.508824
    10  O    3.376177   2.327802   3.207339   4.423092   4.493830
    11  O    2.411774   2.366849   3.700099   4.326773   3.704639
                    6          7          8          9         10
     6  H    0.000000
     7  H    2.810491   0.000000
     8  H    4.176444   4.448932   0.000000
     9  C    3.246134   4.796791   2.029971   0.000000
    10  O    3.255403   5.416267   3.252221   1.230968   0.000000
    11  O    4.348127   5.402182   1.443626   1.249824   2.274190
                   11
    11  O    0.000000
 Stoichiometry    C3H3N3O2
 Framework group  C1[X(C3H3N3O2)]
 Deg. of freedom    27
 Full point group                 C1      NOp   1
 Largest Abelian subgroup         C1      NOp   1
 Largest concise Abelian subgroup C1      NOp   1
                         Standard orientation:                         
 ---------------------------------------------------------------------
 Center     Atomic      Atomic             Coordinates (Angstroms)
 Number     Number       Type             X           Y           Z
 ---------------------------------------------------------------------
      1          7           0        0.577253   -0.896490   -0.019949
      2          7           0        0.040488    0.305873   -0.034870
      3          6           0        1.056599    1.170730   -0.002687
      4          6           0        2.217960    0.397431    0.019894
      5          7           0        1.875706   -0.903403    0.005419
      6          1           0        0.898165    2.237423   -0.008264
      7          1           0        3.251979    0.702577    0.043352
      8          1           0       -0.488877   -1.700660   -0.109750
      9          6           0       -1.500340    0.051135    0.060366
     10          8           0       -2.149788    1.093941   -0.017442
     11          8           0       -1.820301   -1.156063    0.011820
 ---------------------------------------------------------------------
 Rotational constants (GHZ):           5.5359381           1.7299305           1.3186854
 Standard basis: 6-31+G(d,p) (6D, 7F)
 There are   167 symmetry adapted cartesian basis functions of A   symmetry.
 There are   167 symmetry adapted basis functions of A   symmetry.
   167 basis functions,   277 primitive gaussians,   167 cartesian basis functions
    29 alpha electrons       29 beta electrons
       nuclear repulsion energy       361.3826362127 Hartrees.
 NAtoms=   11 NActive=   11 NUniq=   11 SFac= 1.00D+00 NAtFMM=   60 NAOKFM=F Big=F
 Integral buffers will be    131072 words long.
 Raffenetti 2 integral format.
 Two-electron integral symmetry is turned on.
 One-electron integrals computed using PRISM.
 NBasis=   167 RedAO= T EigKep=  2.38D-05  NBF=   167
 NBsUse=   167 1.00D-06 EigRej= -1.00D+00 NBFU=   167
 Initial guess from the checkpoint file:  "/scratch/gongke2021/TS/Gau-21823.chk"
 B after Tr=     0.000000    0.000000   -0.000000
         Rot=    0.999990    0.000570   -0.000001   -0.004394 Ang=   0.51 deg.
 ExpMin= 4.38D-02 ExpMax= 5.48D+03 ExpMxC= 8.25D+02 IAcc=2 IRadAn=         4 AccDes= 0.00D+00
 Harris functional with IExCor= 1009 and IRadAn=       4 diagonalized for initial guess.
 HarFok:  IExCor= 1009 AccDes= 0.00D+00 IRadAn=         4 IDoV= 1 UseB2=F ITyADJ=14
 ICtDFT=  3500011 ScaDFX=  1.000000  1.000000  1.000000  1.000000
 FoFCou: FMM=F IPFlag=           0 FMFlag=      100000 FMFlg1=           0
         NFxFlg=           0 DoJE=T BraDBF=F KetDBF=T FulRan=T
         wScrn=  0.000000 ICntrl=       500 IOpCl=  0 I1Cent=   200000004 NGrid=           0
         NMat0=    1 NMatS0=      1 NMatT0=    0 NMatD0=    1 NMtDS0=    0 NMtDT0=    0
 Petite list used in FoFCou.
 Keep R1 ints in memory in canonical form, NReq=118249495.
 Requested convergence on RMS density matrix=1.00D-08 within 128 cycles.
 Requested convergence on MAX density matrix=1.00D-06.
 Requested convergence on             energy=1.00D-06.
 No special actions if energy rises.
 SCF Done:  E(RM062X) =  -430.600964570     A.U. after   14 cycles
            NFock= 14  Conv=0.38D-08     -V/T= 2.0087
 Calling FoFJK, ICntrl=      2127 FMM=F ISym2X=0 I1Cent= 0 IOpClX= 0 NMat=1 NMatS=1 NMatT=0.
 ***** Axes restored to original set *****
 -------------------------------------------------------------------
 Center     Atomic                   Forces (Hartrees/Bohr)
 Number     Number              X              Y              Z
 -------------------------------------------------------------------
      1        7           0.013417917   -0.050121464    0.007155754
      2        7          -0.004679291   -0.047365711   -0.008278594
      3        6          -0.002086725    0.020204368   -0.000958179
      4        6           0.004165742    0.006363593    0.000495033
      5        7           0.015078248    0.002308430    0.001209430
      6        1           0.000038907    0.000153396   -0.000702017
      7        1           0.000403903    0.001736804    0.000014756
      8        1          -0.010963287    0.040544015   -0.011336878
      9        6           0.050913409    0.079538934    0.027924453
     10        8          -0.022568122   -0.035153102   -0.013313987
     11        8          -0.043720701   -0.018209263   -0.002209771
 -------------------------------------------------------------------
 Cartesian Forces:  Max     0.079538934 RMS     0.025553263

 GradGradGradGradGradGradGradGradGradGradGradGradGradGradGradGradGradGrad
 Berny optimization.
 FormGI is forming the generalized inverse of G from B-inverse, IUseBI=4.
 Internal  Forces:  Max     0.043664504 RMS     0.012186267
 Search for a saddle point.
 Step number   3 out of a maximum of   65
 All quantities printed in internal units (Hartrees-Bohrs-Radians)
 Swapping is turned off.
 Update second derivatives using D2CorX and points    1    2    3
 ITU=  0  0  0
     Eigenvalues ---   -0.08519  -0.00610   0.00354   0.00745   0.01166
     Eigenvalues ---    0.01397   0.02594   0.03400   0.03837   0.05198
     Eigenvalues ---    0.06365   0.10385   0.10691   0.11689   0.15131
     Eigenvalues ---    0.22187   0.24458   0.26134   0.34600   0.38454
     Eigenvalues ---    0.38723   0.41800   0.41984   0.45172   0.51945
     Eigenvalues ---    0.61870   0.72654
 Eigenvectors required to have negative eigenvalues:
                          R10       R3        R5        A3        A2
   1                   -0.64852   0.57905  -0.32444   0.21252  -0.17115
                          A17       R12       A6        A15       A18
   1                   -0.12933   0.09405  -0.09084   0.08915   0.07403
 RFO step:  Lambda0=2.898467918D-04 Lambda=-4.79017464D-02.
 Linear search not attempted -- option 19 set.
 Maximum step size (   0.300) exceeded in Quadratic search.
    -- Step size scaled by   0.333
 Iteration  1 RMS(Cart)=  0.05428901 RMS(Int)=  0.00412389
 Iteration  2 RMS(Cart)=  0.00235154 RMS(Int)=  0.00264184
 Iteration  3 RMS(Cart)=  0.00003617 RMS(Int)=  0.00264173
 Iteration  4 RMS(Cart)=  0.00000015 RMS(Int)=  0.00264173
 Variable       Old X    -DE/DX   Delta X   Delta X   Delta X     New X
                                 (Linear)    (Quad)   (Total)
    R1        2.48843   0.00368   0.00000  -0.00657  -0.00653   2.48190
    R2        2.45422  -0.01108   0.00000  -0.00727  -0.00743   2.44679
    R3        2.52926  -0.04366   0.00000  -0.17479  -0.17461   2.35465
    R4        2.52227   0.00639   0.00000  -0.00417  -0.00402   2.51824
    R5        2.95675  -0.00343   0.00000  -0.14924  -0.14893   2.80782
    R6        2.63701  -0.00651   0.00000  -0.00102  -0.00089   2.63611
    R7        2.03790   0.00016   0.00000  -0.00034  -0.00034   2.03756
    R8        2.54203   0.01037   0.00000   0.00911   0.00903   2.55106
    R9        2.03781   0.00005   0.00000  -0.00019  -0.00019   2.03762
   R10        2.72806  -0.01753   0.00000  -0.02515  -0.02564   2.70242
   R11        2.32619  -0.04233   0.00000   0.03265   0.03265   2.35885
   R12        2.36182   0.00501   0.00000   0.00689   0.00679   2.36861
    A1        1.99612  -0.00777   0.00000  -0.02193  -0.02130   1.97483
    A2        1.79585  -0.00797   0.00000  -0.05622  -0.05570   1.74015
    A3        2.48899   0.01589   0.00000   0.07701   0.07567   2.56466
    A4        1.85569   0.00916   0.00000   0.03222   0.03179   1.88748
    A5        1.82561   0.01500   0.00000   0.07333   0.07281   1.89843
    A6        2.59390  -0.02433   0.00000  -0.09548  -0.09748   2.49642
    A7        1.84928  -0.00812   0.00000  -0.02370  -0.02349   1.82579
    A8        2.12817   0.00405   0.00000   0.00589   0.00578   2.13395
    A9        2.30567   0.00406   0.00000   0.01781   0.01775   2.32342
   A10        1.90072   0.00186   0.00000   0.00652   0.00651   1.90722
   A11        2.26734  -0.00275   0.00000  -0.00399  -0.00399   2.26335
   A12        2.11513   0.00089   0.00000  -0.00252  -0.00252   2.11261
   A13        1.82290   0.00485   0.00000   0.00692   0.00654   1.82944
   A14        2.09709   0.01004   0.00000   0.05345   0.05390   2.15100
   A15        1.95821   0.01568   0.00000   0.04641   0.04587   2.00407
   A16        1.98996  -0.03365   0.00000  -0.05517  -0.05547   1.93449
   A17        2.31955   0.01939   0.00000   0.01775   0.01779   2.33735
   A18        1.70272   0.01691   0.00000  -0.00890  -0.00969   1.69303
    D1       -0.01214  -0.00238   0.00000   0.00165   0.00702  -0.00512
    D2       -3.05938   0.00079   0.00000  -0.04864  -0.05351  -3.11289
    D3       -3.09855  -0.00492   0.00000   0.01221   0.01714  -3.08141
    D4        0.13739  -0.00174   0.00000  -0.03808  -0.04339   0.09400
    D5        0.00967   0.00167   0.00000   0.00065  -0.00356   0.00611
    D6        3.06262   0.00374   0.00000  -0.02644  -0.03312   3.02951
    D7       -0.16416   0.00138   0.00000   0.03262   0.03556  -0.12860
    D8        3.06026  -0.00041   0.00000   0.05768   0.06296   3.12322
    D9        0.00894   0.00194   0.00000  -0.00324  -0.00718   0.00176
   D10        3.13934   0.00047   0.00000  -0.00255  -0.00325   3.13608
   D11        2.97454   0.00377   0.00000   0.12250   0.11554   3.09008
   D12       -0.17824   0.00229   0.00000   0.12320   0.11947  -0.05877
   D13       -3.07580  -0.00524   0.00000  -0.00170  -0.00083  -3.07662
   D14       -0.09745   0.00443   0.00000   0.04733   0.05144  -0.04601
   D15        0.24031  -0.00683   0.00000  -0.12466  -0.12188   0.11843
   D16       -3.06453   0.00284   0.00000  -0.07563  -0.06961  -3.13414
   D17       -0.00354  -0.00098   0.00000   0.00398   0.00542   0.00188
   D18        3.13596  -0.00103   0.00000   0.00327   0.00551   3.14148
   D19       -3.13233   0.00072   0.00000   0.00334   0.00103  -3.13129
   D20        0.00717   0.00068   0.00000   0.00264   0.00113   0.00830
   D21       -0.00339  -0.00039   0.00000  -0.00289  -0.00137  -0.00476
   D22        3.14008  -0.00034   0.00000  -0.00226  -0.00145   3.13863
   D23        0.09920   0.00246   0.00000   0.00409   0.00207   0.10127
   D24        0.00416  -0.00272   0.00000  -0.02485  -0.02582  -0.02165
   D25        2.93887   0.00716   0.00000   0.03815   0.04107   2.97994
         Item               Value     Threshold  Converged?
 Maximum Force            0.043665     0.000450     NO 
 RMS     Force            0.012186     0.000300     NO 
 Maximum Displacement     0.162133     0.001800     NO 
 RMS     Displacement     0.054873     0.001200     NO 
 Predicted change in Energy=-1.721888D-02
 GradGradGradGradGradGradGradGradGradGradGradGradGradGradGradGradGradGrad

                          Input orientation:                          
 ---------------------------------------------------------------------
 Center     Atomic      Atomic             Coordinates (Angstroms)
 Number     Number       Type             X           Y           Z
 ---------------------------------------------------------------------
      1          7           0       -0.838236   -0.951458   -0.011533
      2          7           0       -0.328406    0.258757   -0.031153
      3          6           0       -1.334121    1.132969   -0.020968
      4          6           0       -2.484909    0.345090    0.008692
      5          7           0       -2.132680   -0.958078    0.017565
      6          1           0       -1.170526    2.198693   -0.028164
      7          1           0       -3.521637    0.641002    0.025381
      8          1           0        0.211181   -1.620464    0.049599
      9          6           0        1.151858    0.152880   -0.104045
     10          8           0        1.758265    1.242840   -0.055280
     11          8           0        1.515162   -1.046332   -0.073158
 ---------------------------------------------------------------------
                    Distance matrix (angstroms):
                    1          2          3          4          5
     1  N    0.000000
     2  N    1.313366   0.000000
     3  C    2.142622   1.332597   0.000000
     4  C    2.095943   2.158598   1.394971   0.000000
     5  N    1.294788   2.176802   2.238674   1.349960   0.000000
     6  H    3.167672   2.114835   1.078231   2.272620   3.300460
     7  H    3.120566   3.216524   2.242633   1.078261   2.118094
     8  H    1.246026   1.956820   3.158217   3.336761   2.435871
     9  C    2.277849   1.485835   2.673494   3.643587   3.469468
    10  O    3.399805   2.307206   3.094528   4.337577   4.470884
    11  O    2.356116   2.259151   3.587547   4.235956   3.650037
                    6          7          8          9         10
     6  H    0.000000
     7  H    2.820813   0.000000
     8  H    4.062157   4.364487   0.000000
     9  C    3.095897   4.700699   2.013262   0.000000
    10  O    3.080943   5.314704   3.256221   1.248247   0.000000
    11  O    4.212497   5.312828   1.430057   1.253416   2.302114
                   11
    11  O    0.000000
 Stoichiometry    C3H3N3O2
 Framework group  C1[X(C3H3N3O2)]
 Deg. of freedom    27
 Full point group                 C1      NOp   1
 Largest Abelian subgroup         C1      NOp   1
 Largest concise Abelian subgroup C1      NOp   1
                         Standard orientation:                         
 ---------------------------------------------------------------------
 Center     Atomic      Atomic             Coordinates (Angstroms)
 Number     Number       Type             X           Y           Z
 ---------------------------------------------------------------------
      1          7           0        0.599652   -0.932607   -0.004915
      2          7           0        0.013054    0.242476   -0.001269
      3          6           0        0.960700    1.179348    0.005873
      4          6           0        2.159958    0.466802    0.003816
      5          7           0        1.892188   -0.856292   -0.006788
      6          1           0        0.729066    2.232404    0.004999
      7          1           0        3.175724    0.828536    0.007622
      8          1           0       -0.403225   -1.667712   -0.085167
      9          6           0       -1.458603    0.042110    0.040975
     10          8           0       -2.132404    1.090789   -0.025255
     11          8           0       -1.743614   -1.178018    0.007677
 ---------------------------------------------------------------------
 Rotational constants (GHZ):           5.4792588           1.8045905           1.3577905
 Standard basis: 6-31+G(d,p) (6D, 7F)
 There are   167 symmetry adapted cartesian basis functions of A   symmetry.
 There are   167 symmetry adapted basis functions of A   symmetry.
   167 basis functions,   277 primitive gaussians,   167 cartesian basis functions
    29 alpha electrons       29 beta electrons
       nuclear repulsion energy       364.7509464109 Hartrees.
 NAtoms=   11 NActive=   11 NUniq=   11 SFac= 1.00D+00 NAtFMM=   60 NAOKFM=F Big=F
 Integral buffers will be    131072 words long.
 Raffenetti 2 integral format.
 Two-electron integral symmetry is turned on.
 One-electron integrals computed using PRISM.
 NBasis=   167 RedAO= T EigKep=  2.26D-05  NBF=   167
 NBsUse=   167 1.00D-06 EigRej= -1.00D+00 NBFU=   167
 Initial guess from the checkpoint file:  "/scratch/gongke2021/TS/Gau-21823.chk"
 B after Tr=     0.000000    0.000000    0.000000
         Rot=    0.999935    0.000239   -0.000015   -0.011366 Ang=   1.30 deg.
 ExpMin= 4.38D-02 ExpMax= 5.48D+03 ExpMxC= 8.25D+02 IAcc=2 IRadAn=         4 AccDes= 0.00D+00
 Harris functional with IExCor= 1009 and IRadAn=       4 diagonalized for initial guess.
 HarFok:  IExCor= 1009 AccDes= 0.00D+00 IRadAn=         4 IDoV= 1 UseB2=F ITyADJ=14
 ICtDFT=  3500011 ScaDFX=  1.000000  1.000000  1.000000  1.000000
 FoFCou: FMM=F IPFlag=           0 FMFlag=      100000 FMFlg1=           0
         NFxFlg=           0 DoJE=T BraDBF=F KetDBF=T FulRan=T
         wScrn=  0.000000 ICntrl=       500 IOpCl=  0 I1Cent=   200000004 NGrid=           0
         NMat0=    1 NMatS0=      1 NMatT0=    0 NMatD0=    1 NMtDS0=    0 NMtDT0=    0
 Petite list used in FoFCou.
 Keep R1 ints in memory in canonical form, NReq=118249495.
 Requested convergence on RMS density matrix=1.00D-08 within 128 cycles.
 Requested convergence on MAX density matrix=1.00D-06.
 Requested convergence on             energy=1.00D-06.
 No special actions if energy rises.
 SCF Done:  E(RM062X) =  -430.613298157     A.U. after   14 cycles
            NFock= 14  Conv=0.45D-08     -V/T= 2.0084
 Calling FoFJK, ICntrl=      2127 FMM=F ISym2X=0 I1Cent= 0 IOpClX= 0 NMat=1 NMatS=1 NMatT=0.
 ***** Axes restored to original set *****
 -------------------------------------------------------------------
 Center     Atomic                   Forces (Hartrees/Bohr)
 Number     Number              X              Y              Z
 -------------------------------------------------------------------
      1        7           0.007220939   -0.029894136    0.004993331
      2        7          -0.016050094   -0.017530310   -0.004305535
      3        6          -0.004708726    0.009739534   -0.000486252
      4        6           0.002126281    0.003914072   -0.000021875
      5        7           0.008478478    0.001983967    0.001115193
      6        1           0.000371886    0.000078403   -0.000567581
      7        1           0.000198549    0.000927323   -0.000017914
      8        1          -0.006399117    0.020318395   -0.008741857
      9        6           0.061217681    0.073243099    0.019160457
     10        8          -0.030573706   -0.050198770   -0.009664535
     11        8          -0.021882173   -0.012581578   -0.001463432
 -------------------------------------------------------------------
 Cartesian Forces:  Max     0.073243099 RMS     0.021996248

 GradGradGradGradGradGradGradGradGradGradGradGradGradGradGradGradGradGrad
 Berny optimization.
 FormGI is forming the generalized inverse of G from B-inverse, IUseBI=4.
 Internal  Forces:  Max     0.059064270 RMS     0.009963065
 Search for a saddle point.
 Step number   4 out of a maximum of   65
 All quantities printed in internal units (Hartrees-Bohrs-Radians)
 Swapping is turned off.
 Update second derivatives using D2CorX and points    3    4
 ITU=  0  0  0  0
     Eigenvalues ---   -0.08436  -0.00969   0.00406   0.00761   0.01354
     Eigenvalues ---    0.02153   0.02590   0.03373   0.05099   0.06348
     Eigenvalues ---    0.08810   0.10368   0.10686   0.11499   0.17842
     Eigenvalues ---    0.22256   0.24484   0.26132   0.34602   0.38450
     Eigenvalues ---    0.38725   0.41843   0.43133   0.46226   0.51906
     Eigenvalues ---    0.61858   0.72733
 Eigenvectors required to have negative eigenvalues:
                          R10       R3        R5        A3        A2
   1                   -0.65105   0.62197  -0.27467   0.19201  -0.15379
                          A17       R12       A15       A18       A6
   1                   -0.12677   0.09085   0.08168   0.07662  -0.06974
 RFO step:  Lambda0=1.182753265D-03 Lambda=-3.02523179D-02.
 Linear search not attempted -- option 19 set.
 Maximum step size (   0.300) exceeded in Quadratic search.
    -- Step size scaled by   0.473
 Iteration  1 RMS(Cart)=  0.04242470 RMS(Int)=  0.00356514
 Iteration  2 RMS(Cart)=  0.00271389 RMS(Int)=  0.00141150
 Iteration  3 RMS(Cart)=  0.00001278 RMS(Int)=  0.00141144
 Iteration  4 RMS(Cart)=  0.00000002 RMS(Int)=  0.00141144
 Variable       Old X    -DE/DX   Delta X   Delta X   Delta X     New X
                                 (Linear)    (Quad)   (Total)
    R1        2.48190   0.00467   0.00000  -0.00864  -0.00801   2.47389
    R2        2.44679  -0.00558   0.00000   0.00367   0.00346   2.45026
    R3        2.35465  -0.02107   0.00000  -0.01547  -0.01533   2.33932
    R4        2.51824   0.00548   0.00000   0.00054   0.00105   2.51929
    R5        2.80782   0.01448   0.00000   0.16058   0.16064   2.96846
    R6        2.63611  -0.00409   0.00000   0.00108   0.00095   2.63706
    R7        2.03756   0.00014   0.00000  -0.00017  -0.00017   2.03739
    R8        2.55106   0.00584   0.00000   0.00345   0.00286   2.55392
    R9        2.03762   0.00006   0.00000   0.00018   0.00018   2.03779
   R10        2.70242  -0.00760   0.00000  -0.16727  -0.16751   2.53490
   R11        2.35885  -0.05906   0.00000  -0.09253  -0.09253   2.26632
   R12        2.36861   0.00520   0.00000   0.01175   0.01161   2.38022
    A1        1.97483  -0.00560   0.00000  -0.01400  -0.01297   1.96186
    A2        1.74015  -0.00254   0.00000  -0.03783  -0.03724   1.70290
    A3        2.56466   0.00825   0.00000   0.04891   0.04677   2.61143
    A4        1.88748   0.00464   0.00000   0.01865   0.01708   1.90456
    A5        1.89843   0.00422   0.00000  -0.01313  -0.01598   1.88245
    A6        2.49642  -0.00885   0.00000  -0.00064  -0.00318   2.49324
    A7        1.82579  -0.00401   0.00000  -0.01137  -0.01053   1.81526
    A8        2.13395   0.00163   0.00000   0.00386   0.00337   2.13732
    A9        2.32342   0.00237   0.00000   0.00764   0.00714   2.33056
   A10        1.90722   0.00091   0.00000   0.00088   0.00079   1.90802
   A11        2.26335  -0.00142   0.00000  -0.00023  -0.00018   2.26317
   A12        2.11261   0.00051   0.00000  -0.00065  -0.00061   2.11200
   A13        1.82944   0.00406   0.00000   0.00586   0.00558   1.83501
   A14        2.15100   0.00826   0.00000   0.10468   0.10546   2.25646
   A15        2.00407   0.00716   0.00000   0.02436   0.02358   2.02765
   A16        1.93449  -0.01901   0.00000  -0.07437  -0.07496   1.85953
   A17        2.33735   0.01260   0.00000   0.05781   0.05727   2.39462
   A18        1.69303   0.00930   0.00000   0.02803   0.02790   1.72093
    D1       -0.00512  -0.00109   0.00000   0.00960   0.01208   0.00697
    D2       -3.11289  -0.00098   0.00000  -0.08677  -0.08445   3.08585
    D3       -3.08141  -0.00261   0.00000   0.03353   0.03442  -3.04699
    D4        0.09400  -0.00250   0.00000  -0.06285  -0.06211   0.03189
    D5        0.00611   0.00075   0.00000  -0.00421  -0.00591   0.00020
    D6        3.02951   0.00195   0.00000  -0.05735  -0.06015   2.96936
    D7       -0.12860   0.00149   0.00000   0.05316   0.05579  -0.07280
    D8        3.12322   0.00059   0.00000   0.10263   0.10628  -3.05369
    D9        0.00176   0.00090   0.00000  -0.01031  -0.01235  -0.01060
   D10        3.13608   0.00040   0.00000   0.00510   0.00422   3.14031
   D11        3.09008   0.00143   0.00000   0.14137   0.13985  -3.05325
   D12       -0.05877   0.00092   0.00000   0.15678   0.15643   0.09765
   D13       -3.07662  -0.00343   0.00000  -0.01508  -0.01399  -3.09061
   D14       -0.04601   0.00313   0.00000   0.04838   0.05028   0.00427
   D15        0.11843  -0.00396   0.00000  -0.16788  -0.16566  -0.04723
   D16       -3.13414   0.00260   0.00000  -0.10442  -0.10139   3.04765
   D17        0.00188  -0.00047   0.00000   0.00808   0.00899   0.01087
   D18        3.14148  -0.00040   0.00000   0.01077   0.01168  -3.13003
   D19       -3.13129   0.00012   0.00000  -0.00974  -0.01026  -3.14156
   D20        0.00830   0.00020   0.00000  -0.00705  -0.00758   0.00072
   D21       -0.00476  -0.00017   0.00000  -0.00263  -0.00222  -0.00698
   D22        3.13863  -0.00023   0.00000  -0.00505  -0.00463   3.13399
   D23        0.10127   0.00081   0.00000  -0.02429  -0.02420   0.07708
   D24       -0.02165  -0.00140   0.00000  -0.01183  -0.01358  -0.03523
   D25        2.97994   0.00566   0.00000   0.06217   0.06470   3.04465
         Item               Value     Threshold  Converged?
 Maximum Force            0.059064     0.000450     NO 
 RMS     Force            0.009963     0.000300     NO 
 Maximum Displacement     0.125255     0.001800     NO 
 RMS     Displacement     0.042524     0.001200     NO 
 Predicted change in Energy=-1.372783D-02
 GradGradGradGradGradGradGradGradGradGradGradGradGradGradGradGradGradGrad

                          Input orientation:                          
 ---------------------------------------------------------------------
 Center     Atomic      Atomic             Coordinates (Angstroms)
 Number     Number       Type             X           Y           Z
 ---------------------------------------------------------------------
      1          7           0       -0.840043   -0.948926   -0.041230
      2          7           0       -0.353808    0.265959   -0.079156
      3          6           0       -1.359008    1.140377   -0.031584
      4          6           0       -2.500669    0.339866    0.024410
      5          7           0       -2.135060   -0.961215    0.022065
      6          1           0       -1.199788    2.206554   -0.048918
      7          1           0       -3.539916    0.624809    0.064664
      8          1           0        0.238034   -1.554182    0.020820
      9          6           0        1.213301    0.158052   -0.070906
     10          8           0        1.814897    1.195274   -0.047847
     11          8           0        1.488011   -1.070670   -0.035381
 ---------------------------------------------------------------------
                    Distance matrix (angstroms):
                    1          2          3          4          5
     1  N    0.000000
     2  N    1.309125   0.000000
     3  C    2.152813   1.333152   0.000000
     4  C    2.103086   2.150628   1.395472   0.000000
     5  N    1.296621   2.165423   2.240942   1.351476   0.000000
     6  H    3.175930   2.117193   1.078140   2.276443   3.303715
     7  H    3.126847   3.209477   2.243086   1.078354   2.119176
     8  H    1.237915   1.916555   3.132720   3.329853   2.446055
     9  C    2.332917   1.570841   2.753775   3.719638   3.531702
    10  O    3.412674   2.359637   3.174421   4.400119   4.500832
    11  O    2.331243   2.276135   3.604755   4.231165   3.625179
                    6          7          8          9         10
     6  H    0.000000
     7  H    2.826839   0.000000
     8  H    4.026827   4.361517   0.000000
     9  C    3.165414   4.778003   1.972638   0.000000
    10  O    3.179782   5.386289   3.170287   1.199283   0.000000
    11  O    4.238472   5.307043   1.341412   1.259557   2.289435
                   11
    11  O    0.000000
 Stoichiometry    C3H3N3O2
 Framework group  C1[X(C3H3N3O2)]
 Deg. of freedom    27
 Full point group                 C1      NOp   1
 Largest Abelian subgroup         C1      NOp   1
 Largest concise Abelian subgroup C1      NOp   1
                         Standard orientation:                         
 ---------------------------------------------------------------------
 Center     Atomic      Atomic             Coordinates (Angstroms)
 Number     Number       Type             X           Y           Z
 ---------------------------------------------------------------------
      1          7           0        0.595954   -0.926574    0.026551
      2          7           0        0.040819    0.258841    0.047156
      3          6           0        0.995247    1.188804    0.008024
      4          6           0        2.181365    0.454331   -0.023888
      5          7           0        1.890411   -0.865434   -0.016666
      6          1           0        0.775348    2.244262    0.014284
      7          1           0        3.203217    0.797789   -0.050415
      8          1           0       -0.444807   -1.592765   -0.047220
      9          6           0       -1.517279    0.061670    0.015616
     10          8           0       -2.176494    1.062699   -0.025098
     11          8           0       -1.721011   -1.180943   -0.014209
 ---------------------------------------------------------------------
 Rotational constants (GHZ):           5.5232249           1.7668250           1.3391374
 Standard basis: 6-31+G(d,p) (6D, 7F)
 There are   167 symmetry adapted cartesian basis functions of A   symmetry.
 There are   167 symmetry adapted basis functions of A   symmetry.
   167 basis functions,   277 primitive gaussians,   167 cartesian basis functions
    29 alpha electrons       29 beta electrons
       nuclear repulsion energy       363.7465577437 Hartrees.
 NAtoms=   11 NActive=   11 NUniq=   11 SFac= 1.00D+00 NAtFMM=   60 NAOKFM=F Big=F
 Integral buffers will be    131072 words long.
 Raffenetti 2 integral format.
 Two-electron integral symmetry is turned on.
 One-electron integrals computed using PRISM.
 NBasis=   167 RedAO= T EigKep=  2.37D-05  NBF=   167
 NBsUse=   167 1.00D-06 EigRej= -1.00D+00 NBFU=   167
 Initial guess from the checkpoint file:  "/scratch/gongke2021/TS/Gau-21823.chk"
 B after Tr=    -0.000000   -0.000000    0.000000
         Rot=    1.000000    0.000196   -0.000037   -0.000150 Ang=   0.03 deg.
 ExpMin= 4.38D-02 ExpMax= 5.48D+03 ExpMxC= 8.25D+02 IAcc=2 IRadAn=         4 AccDes= 0.00D+00
 Harris functional with IExCor= 1009 and IRadAn=       4 diagonalized for initial guess.
 HarFok:  IExCor= 1009 AccDes= 0.00D+00 IRadAn=         4 IDoV= 1 UseB2=F ITyADJ=14
 ICtDFT=  3500011 ScaDFX=  1.000000  1.000000  1.000000  1.000000
 FoFCou: FMM=F IPFlag=           0 FMFlag=      100000 FMFlg1=           0
         NFxFlg=           0 DoJE=T BraDBF=F KetDBF=T FulRan=T
         wScrn=  0.000000 ICntrl=       500 IOpCl=  0 I1Cent=   200000004 NGrid=           0
         NMat0=    1 NMatS0=      1 NMatT0=    0 NMatD0=    1 NMtDS0=    0 NMtDT0=    0
 Petite list used in FoFCou.
 Keep R1 ints in memory in canonical form, NReq=118249495.
 Requested convergence on RMS density matrix=1.00D-08 within 128 cycles.
 Requested convergence on MAX density matrix=1.00D-06.
 Requested convergence on             energy=1.00D-06.
 No special actions if energy rises.
 SCF Done:  E(RM062X) =  -430.622568693     A.U. after   14 cycles
            NFock= 14  Conv=0.29D-08     -V/T= 2.0082
[...]
   A18        1.74305  -0.00001   0.00000  -0.00004  -0.00004   1.74301
    D1       -0.00001  -0.00000   0.00000   0.00001   0.00001   0.00000
    D2       -3.14060  -0.00000   0.00000  -0.00100  -0.00100  -3.14159
    D3        3.14067   0.00000   0.00000   0.00092   0.00092   3.14159
    D4        0.00008  -0.00000   0.00000  -0.00008  -0.00008   0.00000
    D5       -0.00008   0.00000   0.00000   0.00008   0.00008  -0.00000
    D6       -3.13983  -0.00000   0.00000  -0.00176  -0.00176  -3.14159
    D7        0.00009  -0.00000   0.00000  -0.00009  -0.00009   0.00000
    D8        3.13997   0.00000   0.00000   0.00162   0.00162   3.14159
    D9        0.00009   0.00000   0.00000  -0.00009  -0.00009  -0.00000
   D10        3.14150   0.00000   0.00000   0.00009   0.00009   3.14159
   D11        3.14012   0.00000   0.00000   0.00147   0.00147   3.14159
   D12       -0.00166   0.00001   0.00000   0.00165   0.00165  -0.00000
   D13        3.14157  -0.00001   0.00000   0.00002   0.00002   3.14159
   D14       -0.00023   0.00001   0.00000   0.00023   0.00023  -0.00000
   D15        0.00154  -0.00001   0.00000  -0.00153  -0.00153   0.00000
   D16       -3.14026   0.00000   0.00000  -0.00133  -0.00133  -3.14159
   D17       -0.00014   0.00000   0.00000   0.00014   0.00014  -0.00000
   D18        3.14144   0.00000   0.00000   0.00016   0.00016  -3.14159
   D19       -3.14152  -0.00000   0.00000  -0.00007  -0.00007   3.14159
   D20        0.00005   0.00000   0.00000  -0.00005  -0.00005   0.00000
   D21        0.00014  -0.00000   0.00000  -0.00014  -0.00014   0.00000
   D22       -3.14144  -0.00000   0.00000  -0.00015  -0.00015   3.14159
   D23       -0.00025   0.00001   0.00000   0.00025   0.00025  -0.00000
   D24        0.00023  -0.00001   0.00000  -0.00023  -0.00023   0.00000
   D25        3.14154   0.00001   0.00000   0.00006   0.00006  -3.14159
         Item               Value     Threshold  Converged?
 Maximum Force            0.000027     0.000450     YES
 RMS     Force            0.000010     0.000300     YES
 Maximum Displacement     0.001207     0.001800     YES
 RMS     Displacement     0.000286     0.001200     YES
 Predicted change in Energy=-3.072306D-08
 Optimization completed.
    -- Stationary point found.
                           ----------------------------
                           !   Optimized Parameters   !
                           ! (Angstroms and Degrees)  !
 --------------------------                            --------------------------
 ! Name  Definition              Value          Derivative Info.                !
 --------------------------------------------------------------------------------
 ! R1    R(1,2)                  1.3165         -DE/DX =    0.0                 !
 ! R2    R(1,5)                  1.2935         -DE/DX =    0.0                 !
 ! R3    R(1,8)                  1.1957         -DE/DX =    0.0                 !
 ! R4    R(2,3)                  1.3355         -DE/DX =    0.0                 !
 ! R5    R(2,9)                  1.5871         -DE/DX =    0.0                 !
 ! R6    R(3,4)                  1.393          -DE/DX =    0.0                 !
 ! R7    R(3,6)                  1.0782         -DE/DX =    0.0                 !
 ! R8    R(4,5)                  1.3522         -DE/DX =    0.0                 !
 ! R9    R(4,7)                  1.0784         -DE/DX =    0.0                 !
 ! R10   R(8,11)                 1.3533         -DE/DX =    0.0                 !
 ! R11   R(9,10)                 1.1929         -DE/DX =    0.0                 !
 ! R12   R(9,11)                 1.2567         -DE/DX =    0.0                 !
 ! A1    A(2,1,5)              112.2282         -DE/DX =    0.0                 !
 ! A2    A(2,1,8)               97.2737         -DE/DX =    0.0                 !
 ! A3    A(5,1,8)              150.4981         -DE/DX =    0.0                 !
 ! A4    A(1,2,3)              108.9037         -DE/DX =    0.0                 !
 ! A5    A(1,2,9)              108.5569         -DE/DX =    0.0                 !
 ! A6    A(3,2,9)              142.5393         -DE/DX =    0.0                 !
 ! A7    A(2,3,4)              104.1424         -DE/DX =    0.0                 !
 ! A8    A(2,3,6)              122.4211         -DE/DX =    0.0                 !
 ! A9    A(4,3,6)              133.4366         -DE/DX =    0.0                 !
 ! A10   A(3,4,5)              109.3145         -DE/DX =    0.0                 !
 ! A11   A(3,4,7)              129.5644         -DE/DX =    0.0                 !
 ! A12   A(5,4,7)              121.1211         -DE/DX =    0.0                 !
 ! A13   A(1,5,4)              105.4112         -DE/DX =    0.0                 !
 ! A14   A(1,8,11)             130.1781         -DE/DX =    0.0                 !
 ! A15   A(2,9,10)             116.3161         -DE/DX =    0.0                 !
 ! A16   A(2,9,11)             104.1216         -DE/DX =    0.0                 !
 ! A17   A(10,9,11)            139.5623         -DE/DX =    0.0                 !
 ! A18   A(8,11,9)              99.8696         -DE/DX =    0.0                 !
 ! D1    D(5,1,2,3)             -0.0003         -DE/DX =    0.0                 !
 ! D2    D(5,1,2,9)           -179.9429         -DE/DX =    0.0                 !
 ! D3    D(8,1,2,3)            179.9474         -DE/DX =    0.0                 !
 ! D4    D(8,1,2,9)              0.0048         -DE/DX =    0.0                 !
 ! D5    D(2,1,5,4)             -0.0047         -DE/DX =    0.0                 !
 ! D6    D(8,1,5,4)           -179.8993         -DE/DX =    0.0                 !
 ! D7    D(2,1,8,11)             0.0054         -DE/DX =    0.0                 !
 ! D8    D(5,1,8,11)           179.907          -DE/DX =    0.0                 !
 ! D9    D(1,2,3,4)              0.005          -DE/DX =    0.0                 !
 ! D10   D(1,2,3,6)            179.9946         -DE/DX =    0.0                 !
 ! D11   D(9,2,3,4)            179.9154         -DE/DX =    0.0                 !
 ! D12   D(9,2,3,6)             -0.0949         -DE/DX =    0.0                 !
 ! D13   D(1,2,9,10)           179.9986         -DE/DX =    0.0                 !
 ! D14   D(1,2,9,11)            -0.0132         -DE/DX =    0.0                 !
 ! D15   D(3,2,9,10)             0.088          -DE/DX =    0.0                 !
 ! D16   D(3,2,9,11)          -179.9239         -DE/DX =    0.0                 !
 ! D17   D(2,3,4,5)             -0.0079         -DE/DX =    0.0                 !
 ! D18   D(2,3,4,7)           -180.0089         -DE/DX =    0.0                 !
 ! D19   D(6,3,4,5)            180.0041         -DE/DX =    0.0                 !
 ! D20   D(6,3,4,7)              0.0031         -DE/DX =    0.0                 !
 ! D21   D(3,4,5,1)              0.0078         -DE/DX =    0.0                 !
 ! D22   D(7,4,5,1)            180.0087         -DE/DX =    0.0                 !
 ! D23   D(1,8,11,9)            -0.0146         -DE/DX =    0.0                 !
 ! D24   D(2,9,11,8)             0.0132         -DE/DX =    0.0                 !
 ! D25   D(10,9,11,8)         -180.0031         -DE/DX =    0.0                 !
 --------------------------------------------------------------------------------
 GradGradGradGradGradGradGradGradGradGradGradGradGradGradGradGradGradGrad


 ----------------------------------------------------------------------

 Electric dipole moment (input orientation):
 (Debye = 10**-18 statcoulomb cm , SI units = C m)
                  (au)            (Debye)         (10**-30 SI)
   Tot        0.178054D+01      0.452568D+01      0.150961D+02
   x         -0.169423D+01     -0.430631D+01     -0.143643D+02
   y          0.547106D+00      0.139061D+01      0.463856D+01
   z          0.240293D-01      0.610764D-01      0.203729D+00

 Dipole polarizability, Alpha (input orientation).
 (esu units = cm**3 , SI units = C**2 m**2 J**-1)
 Alpha(0;0):
               (au)            (10**-24 esu)      (10**-40 SI)
   iso        0.582735D+02      0.863525D+01      0.960801D+01
   aniso      0.384568D+02      0.569872D+01      0.634068D+01
   xx         0.767375D+02      0.113713D+02      0.126523D+02
   yx         0.193975D+01      0.287441D+00      0.319822D+00
   yy         0.642847D+02      0.952602D+01      0.105991D+02
   zx        -0.895623D+00     -0.132718D+00     -0.147668D+00
   zy        -0.605536D+00     -0.897312D-01     -0.998395D-01
   zz         0.337983D+02      0.500839D+01      0.557259D+01

 ----------------------------------------------------------------------

 Dipole orientation:
     7         -0.68447475         -2.10325648          0.95153356
     7          0.02189797          0.27568374          0.77629240
     6          0.30071225          1.21915066          3.10040418
     6         -0.29757002         -0.79385034          4.68780184
     7         -0.90280198         -2.83435018          3.27371311
     1          0.87269004          3.14579586          3.43592976
     1         -0.32338779         -0.87813531          6.72381281
     1         -0.81147820         -2.52794309         -1.26420045
     6          0.23462245          0.99679453         -2.12713804
     8          0.86252289          3.11212597         -2.58804864
     8         -0.35874566         -1.00131324         -3.26541702

 Electric dipole moment (dipole orientation):
 (Debye = 10**-18 statcoulomb cm , SI units = C m)
                  (au)            (Debye)         (10**-30 SI)
   Tot        0.178054D+01      0.452568D+01      0.150961D+02
   x          0.000000D+00      0.000000D+00      0.000000D+00
   y          0.000000D+00      0.000000D+00      0.000000D+00
   z          0.178054D+01      0.452568D+01      0.150961D+02

 Dipole polarizability, Alpha (dipole orientation).
 (esu units = cm**3 , SI units = C**2 m**2 J**-1)
 Alpha(0;0):
               (au)            (10**-24 esu)      (10**-40 SI)
   iso        0.582735D+02      0.863525D+01      0.960801D+01
   aniso      0.384568D+02      0.569872D+01      0.634068D+01
   xx         0.364290D+02      0.539823D+01      0.600634D+01
   yx         0.896033D+01      0.132778D+01      0.147736D+01
   yy         0.639539D+02      0.947698D+01      0.105446D+02
   zx        -0.149392D+01     -0.221376D+00     -0.246314D+00
   zy        -0.500928D+01     -0.742298D+00     -0.825918D+00
   zz         0.744377D+02      0.110305D+02      0.122731D+02

 ----------------------------------------------------------------------
 1\1\GINC-NODE2\Freq\RM062X\6-31+G(d,p)\C3H3N3O2\GONGKE2021\02-Jun-2023
 \0\\#N Geom=AllCheck Guess=TCheck SCRF=Check GenChk RM062X/6-31+G(d,p)
  Freq\\test\\0,1\N,-0.8388321968,-0.9590826313,0.0041343034\N,-0.34756
 23262,0.2618634204,-0.0282561256\C,-1.3580498193,1.1350790032,-0.02467
 60559\C,-2.4984134844,0.3358578219,0.0127239003\N,-2.1320400899,-0.965
 6627261,0.0296606683\H,-1.2005960048,2.2015118356,-0.0475469523\H,-3.5
 379223817,0.6225256202,0.0279689249\H,0.2048482822,-1.5425483129,-0.00
 658483\C,1.2364804642,0.1682860927,-0.0591314117\O,1.8269215012,1.2043
 021162,-0.0902119688\O,1.4711174856,-1.0662334998,-0.0411441424\\Versi
 on=ES64L-G16RevA.03\State=1-A\HF=-430.6237569\RMSD=4.641e-09\RMSF=2.24
 9e-05\ZeroPoint=0.0708878\Thermal=0.0766135\Dipole=-1.6942319,0.547106
 4,0.0240293\DipoleDeriv=-0.5422546,0.4672877,0.0014999,0.5816183,-0.28
 95092,-0.0068137,-0.0005269,-0.0041511,-0.0420748,-1.413715,-0.1618875
 ,0.0317538,-0.1112998,-0.0055046,0.0023614,0.0310475,0.0033889,0.01587
 14,0.1816252,0.2153058,-0.007702,-0.1519404,0.1005126,0.0010268,-0.000
 6553,-0.0062359,-0.009541,0.1471227,-0.1122535,-0.0024788,0.0121562,-0
 .1381955,0.0007253,-0.0049789,0.0031809,-0.0871704,-0.2819368,-0.34896
 04,0.0087842,-0.0040265,0.0172488,-0.0036093,0.0023368,0.0030926,-0.17
 55968,0.1237357,-0.0263972,0.001794,0.0026934,0.1351593,0.0009873,0.00
 12534,0.0015128,0.1904371,0.0495188,0.024911,0.0019664,0.0026801,0.104
 3718,0.0012125,0.0023514,0.0007659,0.1722142,1.4433366,-0.0462329,-0.0
 226072,-0.0688996,0.3571842,0.0000931,-0.0222937,-0.0005263,0.2889378,
 2.6557174,0.2077622,-0.0493212,0.4477798,2.1186519,-0.0404032,-0.05409
 93,-0.0354815,0.4195999,-1.0726273,-0.3521605,0.0205724,-0.6151305,-1.
 099889,0.0257966,0.0254733,0.0204093,-0.3788955,-1.2905227,0.1326252,0
 .0157386,-0.0956309,-1.3000303,0.0186231,0.0200916,0.0140445,-0.393781
 8\Polar=76.7375266,1.9397511,64.2847382,-0.8956233,-0.6055363,33.79831
 7\Quadrupole=-3.2964024,1.5994452,1.6969572,-5.1719841,0.1983533,0.105
 6096\PG=C01 [X(C3H3N3O2)]\NImag=1\\0.81513821,-0.06693685,0.66108468,-
 0.01251793,-0.00854187,0.12539128,-0.11492279,-0.03196113,0.00126464,0
 .72058287,-0.07894489,-0.31643820,0.00585037,-0.06298087,0.73914971,0.
 00216127,0.00498686,-0.08243245,-0.01089971,-0.01033587,0.11553241,-0.
 03567511,0.05820140,-0.00013018,-0.26268985,0.12595054,0.00162534,0.60
 073863,0.00720684,-0.11072750,0.00218331,0.12103011,-0.23419149,0.0008
 2242,0.03219561,0.94585033,0.00083518,0.00118059,0.01414737,0.00170314
 ,0.00072069,-0.06305160,-0.00985067,-0.01576060,0.13306659,-0.08433610
 ,0.03360524,0.00134847,-0.09642627,0.05628776,0.00108125,-0.27083225,-
 0.12418638,0.00628509,0.91774152,0.11473401,-0.05110320,-0.00101063,-0
 .05392732,0.04221642,0.00046073,-0.07934522,-0.18867943,0.00379076,-0.
 08251759,0.59504336,-0.00018420,0.00056736,0.01481220,0.00311942,-0.00
 168109,0.01136725,0.00545352,0.00466619,-0.07013421,-0.01385387,-0.006
 83738,0.13964514,-0.38898617,-0.04215182,0.00699426,-0.13083791,-0.065
 09685,0.00435114,0.04084204,0.01061209,-0.00061453,-0.12350463,0.04346
 144,0.00020763,0.59937410,0.03725305,-0.10593768,-0.00019839,-0.020389
 33,-0.05745667,0.00204161,-0.08225243,-0.06457860,0.00317661,0.0434250
 7,-0.31801192,0.00369997,0.02496681,0.54378454,0.00549336,0.00137969,-
 0.07483623,0.00353006,0.00291635,0.02939256,0.00112023,0.00135094,0.01
 940988,0.00020040,0.00369570,-0.07213767,-0.01015532,-0.00859220,0.107
 24945,-0.00752310,0.00447116,0.00022746,0.01001871,0.02968657,-0.00082
 852,-0.06579172,-0.05707238,0.00173113,0.00962379,-0.01709248,0.000131
 98,-0.00310863,-0.00613875,0.00028983,0.05485898,0.00156915,0.00129412
 ,0.00009532,-0.00399850,-0.01371407,0.00025774,-0.04581767,-0.36805505
 ,0.00714600,0.00242431,-0.00079111,-0.00002980,0.00028795,0.00009237,0
 .00010089,0.04586320,0.38209465,0.00027964,0.00003501,0.00818477,-0.00
 020994,-0.00039682,-0.00405408,0.00153036,0.00735633,-0.03173451,-0.00
 023117,0.00035827,0.00023182,0.00017331,0.00022884,0.00579132,-0.00145
 606,-0.00754652,0.02416623,0.00270224,-0.00031438,0.00011262,-0.002766
 64,-0.00142792,0.00020836,-0.00745384,0.00863955,-0.00002468,-0.354259
 57,0.07798505,0.00493403,-0.00169576,0.00076168,-0.00012280,-0.0003258
 2,-0.00028926,-0.00002314,0.36335196,0.00594482,-0.00728628,0.00016402
 ,-0.00661594,-0.00312171,0.00030881,-0.01557046,0.01122614,0.00008854,
 0.07076905,-0.07649174,-0.00056777,0.03006412,-0.00320847,-0.00066558,
 0.00051507,-0.00022303,-0.00003908,-0.08580024,0.07693365,-0.00000347,
 0.00029493,0.00806828,0.00030178,0.00019942,0.00632578,0.00042459,-0.0
 0038991,-0.00054106,0.00506867,-0.00071250,-0.03175567,-0.00066629,-0.
 00008439,-0.00715546,-0.00003778,-0.00002291,-0.00176835,-0.00510024,0
 .00073238,0.02510079,-0.02114825,0.06627611,-0.00126480,-0.02364356,0.
 02420820,0.00008316,0.01466002,-0.01646294,0.00007599,0.00090742,-0.01
 804843,0.00043110,-0.01560144,-0.01286649,0.00025864,0.00169435,-0.000
 19605,-0.00001356,-0.00023793,-0.00254970,0.00008515,-0.03077633,0.036
 79353,-0.08372852,0.00032862,0.02454186,-0.03682450,0.00021481,-0.0027
 0029,-0.00429180,0.00017585,-0.00328144,0.00052698,0.00014899,0.000654
 15,0.00855749,-0.00039630,0.00078801,-0.00036954,0.00000730,0.00002025
 ,0.00068758,0.00001432,-0.05331320,0.16372964,-0.00070329,-0.00029252,
 -0.02341462,0.00007845,0.00023023,0.00218905,-0.00019051,0.00045799,0.
 00232537,0.00013513,0.00044311,0.00528492,0.00002580,-0.00010548,-0.01
 302218,-0.00003363,0.00002630,0.00080103,0.00003513,0.00007047,0.00156
 520,0.00258395,-0.00101435,0.04807165,-0.06803388,-0.03398581,0.001955
 96,0.00363258,-0.02663427,-0.00052720,-0.01198426,0.02885235,-0.000467
 31,0.01040274,0.01267660,-0.00035303,0.03143156,0.00538689,-0.00061186
 ,0.00129344,0.00019509,-0.00006248,0.00136454,0.00279548,-0.00004883,0
 .06624870,-0.01989585,-0.00101919,0.35240980,0.01840525,0.01255403,-0.
 00066866,0.00891162,-0.08422859,0.00054521,0.02123432,0.00306120,-0.00
 062161,0.00472775,-0.01320033,0.00023449,-0.01496175,-0.01472259,0.000
 64705,0.00196560,-0.00080962,-0.00005246,0.00011312,-0.00043713,0.0000
 3314,-0.08853259,-0.02269748,0.00219593,0.27817361,1.24006455,0.000985
 34,0.00040345,-0.00308906,-0.00113591,0.00128051,-0.04513035,-0.000323
 24,-0.00079482,-0.00744887,-0.00022254,0.00007606,0.00405094,-0.000264
 59,0.00024131,0.00492476,-0.00009133,-0.00001581,-0.00146564,-0.000003
 54,-0.00002463,0.00139560,0.00024305,0.00079672,-0.00151294,-0.0081646
 3,-0.02478028,0.20295754,-0.00344816,0.00943006,-0.00007345,-0.0576103
 9,-0.04379774,0.00231347,0.00425986,-0.00582224,0.00003213,-0.00145937
 ,-0.00323723,0.00008455,-0.00890920,-0.00422310,0.00022500,-0.00021354
 ,-0.00004509,0.00000359,-0.00027548,-0.00041503,0.00000946,-0.00900979
 ,0.00254954,0.00020804,-0.25679249,-0.31737092,0.00947876,0.30478900,-
 0.01642837,0.00333364,0.00030539,-0.03642037,0.00064519,0.00102980,-0.
 00325338,-0.00454559,0.00015505,-0.00323875,0.00146863,0.00002929,-0.0
 0138437,0.00262392,-0.00004413,-0.00159864,0.00022483,0.00002739,-0.00
 023739,-0.00001536,0.00000122,0.02852182,0.00072219,-0.00053167,-0.294
 76333,-0.63291893,0.01620688,0.37007198,0.72817981,0.00040628,-0.00022
 570,0.00161281,0.00216469,0.00117695,0.01545376,-0.00001887,0.00020857
 ,0.00028824,0.00008584,0.00003356,-0.00022402,0.00018211,0.00001573,-0
 .00129388,0.00003196,-0.00000501,-0.00008460,0.00000662,0.00000563,-0.
 00017599,-0.00026907,-0.00000159,0.00347497,0.00906407,0.01666193,-0.0
 7872153,-0.01233430,-0.02031151,0.03493976,-0.09376689,0.00336601,0.00
 208294,-0.04533676,0.04274946,0.00043143,-0.00607351,-0.00499261,0.000
 29453,-0.00785727,0.00531118,0.00002889,0.00099604,0.01407659,-0.00022
 755,-0.00052647,0.00000687,0.00000946,-0.00040369,0.00086283,-0.000033
 05,0.01690683,0.01384345,-0.00111989,-0.12997272,0.08733399,-0.0005013
 6,0.02866957,-0.04126919,0.00068067,0.23736489,-0.05959655,-0.00304508
 ,0.00149251,0.06180987,-0.03603609,-0.00033211,-0.00864244,0.01493180,
 -0.00005187,0.00198500,0.00902233,-0.00023024,0.01354823,0.00885761,-0
 .00039240,-0.00138733,0.00025644,0.00002173,0.00054953,0.00193636,-0.0
 0006571,0.07296326,-0.02631203,-0.00148001,0.04719924,-0.48666512,0.00
 661062,-0.00714023,-0.09971832,0.00244145,-0.12128858,0.61677211,0.003
 24782,0.00021220,0.01155564,0.00008339,0.00003926,0.01440767,0.0003594
 2,-0.00010042,0.00367280,0.00010274,-0.00029765,-0.00114070,-0.0002335
 1,-0.00042361,0.00167745,0.00003497,-0.00000620,-0.00006800,-0.0000223
 6,-0.00007279,-0.00105912,-0.00221360,-0.00027436,-0.02576245,0.000234
 49,0.00580526,-0.07596044,0.00005274,0.00313229,0.02473047,-0.00164610
 ,-0.00801397,0.04794668\\0.00000490,0.00000480,0.00001761,-0.00005103,
 -0.00006004,0.00003007,0.00000287,0.00001487,-0.00001850,0.00000894,0.
 00001343,-0.00000511,0.00002234,-0.00000638,-0.00000698,0.00000003,0.0
 0000063,0.00000609,0.00000167,0.00000439,0.00000325,-0.00002336,0.0000
 1746,-0.00001059,0.00005008,0.00001636,-0.00004941,-0.00000591,-0.0000
 2277,0.00001690,-0.00001052,0.00001726,0.00001667\\\@


 In the race for quality, there is no finish line.
                               -- David T. Kearns
 Job cpu time:       0 days  0 hours 24 minutes 54.0 seconds.
 Elapsed time:       0 days  0 hours  1 minutes 15.4 seconds.
 File lengths (MBytes):  RWF=     39 Int=      0 D2E=      0 Chk=      3 Scr=      1
 Normal termination of Gaussian 16 at Fri Jun  2 03:33:04 2023.
