 Entering Gaussian System, Link 0=/opt/soft/g16/g16
 Initial command:
 /opt/soft/g16/l1.exe "/scratch/gongke2021/TS-H-cycle/Gau-15010.inp" -scrdir="/scratch/gongke2021/TS-H-cycle/"
 Entering Link 1 = /opt/soft/g16/l1.exe PID=     15011.
  
 Copyright (c) 1988,1990,1992,1993,1995,1998,2003,2009,2016,
            Gaussian, Inc.  All Rights Reserved.
  
 This is part of the Gaussian(R) 16 program.  It is based on
 the Gaussian(R) 09 system (copyright 2009, Gaussian, Inc.),
 the Gaussian(R) 03 system (copyright 2003, Gaussian, Inc.),
 the Gaussian(R) 98 system (copyright 1998, Gaussian, Inc.),
 the Gaussian(R) 94 system (copyright 1995, Gaussian, Inc.),
 the Gaussian 92(TM) system (copyright 1992, Gaussian, Inc.),
 the Gaussian 90(TM) system (copyright 1990, Gaussian, Inc.),
 the Gaussian 88(TM) system (copyright 1988, Gaussian, Inc.),
 the Gaussian 86(TM) system (copyright 1986, Carnegie Mellon
 University), and the Gaussian 82(TM) system (copyright 1983,
 Carnegie Mellon University). Gaussian is a federally registered
 trademark of Gaussian, Inc.
  
 This software contains proprietary and confidential information,
 including trade secrets, belonging to Gaussian, Inc.
  
 This software is provided under written license and may be
 used, copied, transmitted, or stored only in accord with that
 written license.
  
 The following legend is applicable only to US Government
 contracts under FAR:
  
                    RESTRICTED RIGHTS LEGEND
  
 Use, reproduction and disclosure by the US Government is
 subject to restrictions as set forth in subparagraphs (a)
 and (c) of the Commercial Computer Software - Restricted
 Rights clause in FAR 52.227-19.
  
 Gaussian, Inc.
 340 Quinnipiac St., Bldg. 40, Wallingford CT 06492
  
  
 ---------------------------------------------------------------
 Warning -- This program may not be used in any manner that
 competes with the business of Gaussian, Inc. or will provide
 assistance to any competitor of Gaussian, Inc.  The licensee
 of this program is prohibited from giving any competitor of
 Gaussian, Inc. access to this program.  By using this program,
 the user acknowledges that Gaussian, Inc. is engaged in the
 business of creating and licensing software in the field of
 computational chemistry and represents and warrants to the
 licensee that it is not a competitor of Gaussian, Inc. and that
 it will not use this program in any manner prohibited above.
 ---------------------------------------------------------------
  

 Cite this work as:
 Gaussian 16, Revision A.03,
 M. J. Frisch, G. W. Trucks, H. B. Schlegel, G. E. Scuseria, 
 M. A. Robb, J. R. Cheeseman, G. Scalmani, V. Barone, 
 G. A. Petersson, H. Nakatsuji, X. Li, M. Caricato, A. V. Marenich, 
 J. Bloino, B. G. Janesko, R. Gomperts, B. Mennucci, H. P. Hratchian, 
 J. V. Ortiz, A. F. Izmaylov, J. L. Sonnenberg, D. Williams-Young, 
 F. Ding, F. Lipparini, F. Egidi, J. Goings, B. Peng, A. Petrone, 
 T. Henderson, D. Ranasinghe, V. G. Zakrzewski, J. Gao, N. Rega, 
 G. Zheng, W. Liang, M. Hada, M. Ehara, K. Toyota, R. Fukuda, 
 J. Hasegawa, M. Ishida, T. Nakajima, Y. Honda, O. Kitao, H. Nakai, 
 T. Vreven, K. Throssell, J. A. Montgomery, Jr., J. E. Peralta, 
 F. Ogliaro, M. J. Bearpark, J. J. Heyd, E. N. Brothers, K. N. Kudin, 
 V. N. Staroverov, T. A. Keith, R. Kobayashi, J. Normand, 
 K. Raghavachari, A. P. Rendell, J. C. Burant, S. S. Iyengar, 
 J. Tomasi, M. Cossi, J. M. Millam, M. Klene, C. Adamo, R. Cammi, 
 J. W. Ochterski, R. L. Martin, K. Morokuma, O. Farkas, 
 J. B. Foresman, and D. J. Fox, Gaussian, Inc., Wallingford CT, 2016.
 
 ******************************************
 Gaussian 16:  ES64L-G16RevA.03 25-Dec-2016
                10-Jul-2023 
 ******************************************
 %mem=10GB
 %nprocshared=24
 Will use up to   24 processors via shared memory.
 ----------------------------------------------------------------------
 # opt=(calcfc,ts,noeigentest) freq 6-31+g(d,p) integral=grid=ultrafine
  m062x
 ----------------------------------------------------------------------
 1/5=1,10=4,11=1,18=20,26=4,38=1/1,3;
 2/9=110,12=2,17=6,18=5,40=1/2;
 3/5=1,6=6,7=111,11=2,25=1,30=1,71=2,74=-55,75=-5,140=1/1,2,3;
 4//1;
 5/5=2,38=5/2;
 8/6=4,10=90,11=11/1;
 11/6=1,8=1,9=11,15=111,16=1/1,2,10;
 10/6=1,13=1/2;
 6/7=2,8=2,9=2,10=2,28=1/1;
 7/10=1,18=20,25=1/1,2,3,16;
 1/5=1,10=4,11=1,18=20,26=4/3(2);
 2/9=110/2;
 99//99;
 2/9=110/2;
 3/5=1,6=6,7=111,11=2,25=1,30=1,71=1,74=-55,75=-5/1,2,3;
 4/5=5,16=3,69=1/1;
 5/5=2,38=5/2;
 7//1,2,3,16;
 1/5=1,11=1,18=20,26=4/3(-5);
 2/9=110/2;
 6/7=2,8=2,9=2,10=2,19=2,28=1/1;
 99/9=1/99;
 ----
 test
 ----
 Symbolic Z-matrix:
 Charge =  0 Multiplicity = 1
 N                     0.09236  -0.97181  -0.03197 
 N                     0.56767   0.2734   -0.00327 
 C                     1.91902   0.27025   0.02355 
 C                     2.24943  -1.06255   0.00958 
 N                     1.09794  -1.79124  -0.02418 
 H                     2.50191   1.1772    0.04861 
 H                     3.2204   -1.53184   0.02105 
 H                    -1.86388  -0.8272   -0.04032 
 C                    -0.37291   1.41794  -0.00547 
 O                     0.16867   2.52695   0.0283 
 O                    -1.56789   1.07441  -0.04108 
 H                    -2.61908  -2.13905   0.54237 
 O                    -2.70858  -1.37404  -0.05838 
 H                    -3.45595  -0.82379   0.24762 
 
 Add virtual bond connecting atoms N1         and H8         Dist= 3.71D+00.
 Add virtual bond connecting atoms O11        and H8         Dist= 3.64D+00.

 GradGradGradGradGradGradGradGradGradGradGradGradGradGradGradGradGradGrad
 Berny optimization.
 Initialization pass.
                           ----------------------------
                           !    Initial Parameters    !
                           ! (Angstroms and Degrees)  !
 --------------------------                            --------------------------
 ! Name  Definition              Value          Derivative Info.                !
 --------------------------------------------------------------------------------
 ! R1    R(1,2)                  1.3331         calculate D2E/DX2 analytically  !
 ! R2    R(1,5)                  1.2972         calculate D2E/DX2 analytically  !
 ! R3    R(1,8)                  1.9616         calculate D2E/DX2 analytically  !
 ! R4    R(2,3)                  1.3516         calculate D2E/DX2 analytically  !
 ! R5    R(2,9)                  1.4814         calculate D2E/DX2 analytically  !
 ! R6    R(3,4)                  1.3732         calculate D2E/DX2 analytically  !
 ! R7    R(3,6)                  1.0784         calculate D2E/DX2 analytically  !
 ! R8    R(4,5)                  1.3631         calculate D2E/DX2 analytically  !
 ! R9    R(4,7)                  1.0785         calculate D2E/DX2 analytically  !
 ! R10   R(8,11)                 1.9245         calculate D2E/DX2 analytically  !
 ! R11   R(8,13)                 1.0064         calculate D2E/DX2 analytically  !
 ! R12   R(9,10)                 1.2346         calculate D2E/DX2 analytically  !
 ! R13   R(9,11)                 1.2439         calculate D2E/DX2 analytically  !
 ! R14   R(12,13)                0.9768         calculate D2E/DX2 analytically  !
 ! R15   R(13,14)                0.9772         calculate D2E/DX2 analytically  !
 ! A1    A(2,1,5)              108.2714         calculate D2E/DX2 analytically  !
 ! A2    A(2,1,8)              106.666          calculate D2E/DX2 analytically  !
 ! A3    A(5,1,8)              145.0518         calculate D2E/DX2 analytically  !
 ! A4    A(1,2,3)              110.7757         calculate D2E/DX2 analytically  !
 ! A5    A(1,2,9)              119.6848         calculate D2E/DX2 analytically  !
 ! A6    A(3,2,9)              129.5395         calculate D2E/DX2 analytically  !
 ! A7    A(2,3,4)              104.0413         calculate D2E/DX2 analytically  !
 ! A8    A(2,3,6)              122.6093         calculate D2E/DX2 analytically  !
 ! A9    A(4,3,6)              133.3494         calculate D2E/DX2 analytically  !
 ! A10   A(3,4,5)              108.4118         calculate D2E/DX2 analytically  !
 ! A11   A(3,4,7)              129.7055         calculate D2E/DX2 analytically  !
 ! A12   A(5,4,7)              121.8826         calculate D2E/DX2 analytically  !
 ! A13   A(1,5,4)              108.4998         calculate D2E/DX2 analytically  !
 ! A14   A(1,8,11)              85.3805         calculate D2E/DX2 analytically  !
 ! A15   A(1,8,13)             142.8487         calculate D2E/DX2 analytically  !
 ! A16   A(11,8,13)            131.7566         calculate D2E/DX2 analytically  !
 ! A17   A(2,9,10)             114.5458         calculate D2E/DX2 analytically  !
 ! A18   A(2,9,11)             113.3668         calculate D2E/DX2 analytically  !
 ! A19   A(10,9,11)            132.0873         calculate D2E/DX2 analytically  !
 ! A20   A(8,11,9)             114.8745         calculate D2E/DX2 analytically  !
 ! A21   A(8,13,12)            109.7302         calculate D2E/DX2 analytically  !
 ! A22   A(8,13,14)            109.2886         calculate D2E/DX2 analytically  !
 ! A23   A(12,13,14)           108.5706         calculate D2E/DX2 analytically  !
 ! D1    D(5,1,2,3)              0.0216         calculate D2E/DX2 analytically  !
 ! D2    D(5,1,2,9)            179.9685         calculate D2E/DX2 analytically  !
 ! D3    D(8,1,2,3)            179.1368         calculate D2E/DX2 analytically  !
 ! D4    D(8,1,2,9)             -0.9163         calculate D2E/DX2 analytically  !
 ! D5    D(2,1,5,4)             -0.0314         calculate D2E/DX2 analytically  !
 ! D6    D(8,1,5,4)           -178.5516         calculate D2E/DX2 analytically  !
 ! D7    D(2,1,8,11)             1.2574         calculate D2E/DX2 analytically  !
 ! D8    D(2,1,8,13)           179.8331         calculate D2E/DX2 analytically  !
 ! D9    D(5,1,8,11)           179.7906         calculate D2E/DX2 analytically  !
 ! D10   D(5,1,8,13)            -1.6337         calculate D2E/DX2 analytically  !
 ! D11   D(1,2,3,4)             -0.0027         calculate D2E/DX2 analytically  !
 ! D12   D(1,2,3,6)            179.9649         calculate D2E/DX2 analytically  !
 ! D13   D(9,2,3,4)           -179.943          calculate D2E/DX2 analytically  !
 ! D14   D(9,2,3,6)              0.0247         calculate D2E/DX2 analytically  !
 ! D15   D(1,2,9,10)           179.7064         calculate D2E/DX2 analytically  !
 ! D16   D(1,2,9,11)            -0.2819         calculate D2E/DX2 analytically  !
 ! D17   D(3,2,9,10)            -0.3579         calculate D2E/DX2 analytically  !
 ! D18   D(3,2,9,11)           179.6538         calculate D2E/DX2 analytically  !
 ! D19   D(2,3,4,5)             -0.0162         calculate D2E/DX2 analytically  !
 ! D20   D(2,3,4,7)            179.958          calculate D2E/DX2 analytically  !
 ! D21   D(6,3,4,5)           -179.9788         calculate D2E/DX2 analytically  !
 ! D22   D(6,3,4,7)             -0.0045         calculate D2E/DX2 analytically  !
 ! D23   D(3,4,5,1)              0.0301         calculate D2E/DX2 analytically  !
 ! D24   D(7,4,5,1)           -179.9466         calculate D2E/DX2 analytically  !
 ! D25   D(1,8,11,9)            -1.5727         calculate D2E/DX2 analytically  !
 ! D26   D(13,8,11,9)          179.5803         calculate D2E/DX2 analytically  !
 ! D27   D(1,8,13,12)           42.2483         calculate D2E/DX2 analytically  !
 ! D28   D(1,8,13,14)          161.1935         calculate D2E/DX2 analytically  !
 ! D29   D(11,8,13,12)        -139.6549         calculate D2E/DX2 analytically  !
 ! D30   D(11,8,13,14)         -20.7097         calculate D2E/DX2 analytically  !
 ! D31   D(2,9,11,8)             1.4024         calculate D2E/DX2 analytically  !
 ! D32   D(10,9,11,8)         -178.5833         calculate D2E/DX2 analytically  !
 --------------------------------------------------------------------------------
 Trust Radius=3.00D-01 FncErr=1.00D-07 GrdErr=1.00D-06 EigMax=2.50D+02 EigMin=1.00D-04
 Number of steps in this run=     80 maximum allowed number of steps=    100.
 Search for a saddle point of order  1.
 GradGradGradGradGradGradGradGradGradGradGradGradGradGradGradGradGradGrad

                          Input orientation:                          
 ---------------------------------------------------------------------
 Center     Atomic      Atomic             Coordinates (Angstroms)
 Number     Number       Type             X           Y           Z
 ---------------------------------------------------------------------
      1          7           0        0.092362   -0.971810   -0.031973
      2          7           0        0.567667    0.273396   -0.003271
      3          6           0        1.919020    0.270248    0.023551
      4          6           0        2.249429   -1.062549    0.009579
      5          7           0        1.097940   -1.791243   -0.024182
      6          1           0        2.501912    1.177203    0.048607
      7          1           0        3.220405   -1.531842    0.021045
      8          1           0       -1.863882   -0.827204   -0.040316
      9          6           0       -0.372912    1.417937   -0.005471
     10          8           0        0.168673    2.526947    0.028302
     11          8           0       -1.567891    1.074405   -0.041083
     12          1           0       -2.619081   -2.139047    0.542374
     13          8           0       -2.708583   -1.374044   -0.058383
     14          1           0       -3.455954   -0.823792    0.247619
 ---------------------------------------------------------------------
                    Distance matrix (angstroms):
                    1          2          3          4          5
     1  N    0.000000
     2  N    1.333145   0.000000
     3  C    2.209631   1.351623   0.000000
     4  C    2.159374   2.147845   1.373213   0.000000
     5  N    1.297196   2.131751   2.219504   1.363107   0.000000
     6  H    3.229657   2.135618   1.078405   2.254276   3.284525
     7  H    3.178223   3.208815   2.222867   1.078500   2.138736
     8  H    1.961599   2.669293   3.939394   4.120340   3.114807
     9  C    2.434763   1.481441   2.563393   3.609669   3.530240
    10  O    3.500108   2.288817   2.855946   4.149021   4.417359
    11  O    2.635056   2.281152   3.579021   4.375051   3.913934
    12  H    3.007364   4.033977   5.164130   5.014490   3.776003
    13  O    2.829803   3.667548   4.911733   4.968252   3.829470
    14  H    3.562391   4.178073   5.489761   5.715336   4.663452
                    6          7          8          9         10
     6  H    0.000000
     7  H    2.802841   0.000000
     8  H    4.804759   5.133250   0.000000
     9  C    2.885393   4.649067   2.695341   0.000000
    10  O    2.695594   5.078079   3.922540   1.234649   0.000000
    11  O    4.072089   5.451987   1.924507   1.243888   2.265027
    12  H    6.120939   5.894071   1.621970   4.242351   5.459610
    13  O    5.802548   5.931619   1.006419   3.640510   4.848077
    14  H    6.288064   6.717622   1.617903   3.820282   4.940999
                   11         12         13         14
    11  O    0.000000
    12  H    3.430991   0.000000
    13  O    2.701181   0.976806   0.000000
    14  H    2.692821   1.586547   0.977230   0.000000
 Stoichiometry    C3H5N3O3
 Framework group  C1[X(C3H5N3O3)]
 Deg. of freedom    36
 Full point group                 C1      NOp   1
 Largest Abelian subgroup         C1      NOp   1
 Largest concise Abelian subgroup C1      NOp   1
                         Standard orientation:                         
 ---------------------------------------------------------------------
 Center     Atomic      Atomic             Coordinates (Angstroms)
 Number     Number       Type             X           Y           Z
 ---------------------------------------------------------------------
      1          7           0        0.092362   -0.971810   -0.031973
      2          7           0        0.567667    0.273396   -0.003271
      3          6           0        1.919020    0.270248    0.023551
      4          6           0        2.249429   -1.062549    0.009579
      5          7           0        1.097940   -1.791243   -0.024182
      6          1           0        2.501912    1.177203    0.048607
      7          1           0        3.220405   -1.531842    0.021045
      8          1           0       -1.863882   -0.827204   -0.040316
      9          6           0       -0.372912    1.417937   -0.005471
     10          8           0        0.168673    2.526947    0.028302
     11          8           0       -1.567891    1.074405   -0.041083
     12          1           0       -2.619081   -2.139047    0.542374
     13          8           0       -2.708583   -1.374044   -0.058383
     14          1           0       -3.455954   -0.823792    0.247619
 ---------------------------------------------------------------------
 Rotational constants (GHZ):           1.9612626           1.5511001           0.8674931
 Standard basis: 6-31+G(d,p) (6D, 7F)
 There are   196 symmetry adapted cartesian basis functions of A   symmetry.
 There are   196 symmetry adapted basis functions of A   symmetry.
   196 basis functions,   323 primitive gaussians,   196 cartesian basis functions
    34 alpha electrons       34 beta electrons
       nuclear repulsion energy       452.5263656873 Hartrees.
 NAtoms=   14 NActive=   14 NUniq=   14 SFac= 1.00D+00 NAtFMM=   60 NAOKFM=F Big=F
 Integral buffers will be    131072 words long.
 Raffenetti 2 integral format.
 Two-electron integral symmetry is turned on.
 One-electron integrals computed using PRISM.
 NBasis=   196 RedAO= T EigKep=  1.88D-05  NBF=   196
 NBsUse=   196 1.00D-06 EigRej= -1.00D+00 NBFU=   196
 ExpMin= 4.38D-02 ExpMax= 5.48D+03 ExpMxC= 8.25D+02 IAcc=3 IRadAn=         5 AccDes= 0.00D+00
 Harris functional with IExCor= 1009 and IRadAn=       5 diagonalized for initial guess.
 HarFok:  IExCor= 1009 AccDes= 0.00D+00 IRadAn=         5 IDoV= 1 UseB2=F ITyADJ=14
 ICtDFT=  3500011 ScaDFX=  1.000000  1.000000  1.000000  1.000000
 FoFCou: FMM=F IPFlag=           0 FMFlag=      100000 FMFlg1=           0
         NFxFlg=           0 DoJE=T BraDBF=F KetDBF=T FulRan=T
         wScrn=  0.000000 ICntrl=       500 IOpCl=  0 I1Cent=   200000004 NGrid=           0
         NMat0=    1 NMatS0=      1 NMatT0=    0 NMatD0=    1 NMtDS0=    0 NMtDT0=    0
 Petite list used in FoFCou.
 Requested convergence on RMS density matrix=1.00D-08 within 128 cycles.
 Requested convergence on MAX density matrix=1.00D-06.
 Requested convergence on             energy=1.00D-06.
 No special actions if energy rises.
 SCF Done:  E(RM062X) =  -507.009473903     A.U. after   14 cycles
            NFock= 14  Conv=0.95D-08     -V/T= 2.0084
 DoSCS=F DFT=T ScalE2(SS,OS)=  1.000000  1.000000
 Range of M.O.s used for correlation:     1   196
 NBasis=   196 NAE=    34 NBE=    34 NFC=     0 NFV=     0
 NROrb=    196 NOA=    34 NOB=    34 NVA=   162 NVB=   162

 **** Warning!!: The largest alpha MO coefficient is  0.55903992D+02

 Symmetrizing basis deriv contribution to polar:
 IMax=3 JMax=2 DiffMx= 0.00D+00
 G2DrvN: will do    15 centers at a time, making    1 passes.
 Calling FoFCou, ICntrl=  3107 FMM=F I1Cent=   0 AccDes= 0.00D+00.
 End of G2Drv F.D. properties file   721 does not exist.
 End of G2Drv F.D. properties file   722 does not exist.
 End of G2Drv F.D. properties file   788 does not exist.
          IDoAtm=11111111111111
          Differentiating once with respect to nuclear coordinates.
 Keep R1 ints in memory in canonical form, NReq=210913844.
          There are    45 degrees of freedom in the 1st order CPHF.  IDoFFX=6 NUNeed=     0.
     39 vectors produced by pass  0 Test12= 1.22D-14 2.22D-09 XBig12= 1.42D-01 9.41D-02.
 AX will form    39 AO Fock derivatives at one time.
     39 vectors produced by pass  1 Test12= 1.22D-14 2.22D-09 XBig12= 1.97D-02 5.84D-02.
     39 vectors produced by pass  2 Test12= 1.22D-14 2.22D-09 XBig12= 3.76D-04 4.74D-03.
     39 vectors produced by pass  3 Test12= 1.22D-14 2.22D-09 XBig12= 4.56D-06 2.80D-04.
     39 vectors produced by pass  4 Test12= 1.22D-14 2.22D-09 XBig12= 4.75D-08 2.30D-05.
     39 vectors produced by pass  5 Test12= 1.22D-14 2.22D-09 XBig12= 3.30D-10 1.77D-06.
     33 vectors produced by pass  6 Test12= 1.22D-14 2.22D-09 XBig12= 1.43D-12 1.28D-07.
     10 vectors produced by pass  7 Test12= 1.22D-14 2.22D-09 XBig12= 5.67D-15 8.29D-09.
 InvSVY:  IOpt=1 It=  1 EMax= 1.55D-15
 Solved reduced A of dimension   277 with    39 vectors.
 End of Minotr F.D. properties file   721 does not exist.
 End of Minotr F.D. properties file   722 does not exist.
 End of Minotr F.D. properties file   788 does not exist.

 **********************************************************************

            Population analysis using the SCF density.

 **********************************************************************

 Orbital symmetries:
       Occupied  (A) (A) (A) (A) (A) (A) (A) (A) (A) (A) (A) (A)
                 (A) (A) (A) (A) (A) (A) (A) (A) (A) (A) (A) (A)
                 (A) (A) (A) (A) (A) (A) (A) (A) (A) (A)
       Virtual   (A) (A) (A) (A) (A) (A) (A) (A) (A) (A) (A) (A)
                 (A) (A) (A) (A) (A) (A) (A) (A) (A) (A) (A) (A)
                 (A) (A) (A) (A) (A) (A) (A) (A) (A) (A) (A) (A)
                 (A) (A) (A) (A) (A) (A) (A) (A) (A) (A) (A) (A)
                 (A) (A) (A) (A) (A) (A) (A) (A) (A) (A) (A) (A)
                 (A) (A) (A) (A) (A) (A) (A) (A) (A) (A) (A) (A)
                 (A) (A) (A) (A) (A) (A) (A) (A) (A) (A) (A) (A)
                 (A) (A) (A) (A) (A) (A) (A) (A) (A) (A) (A) (A)
                 (A) (A) (A) (A) (A) (A) (A) (A) (A) (A) (A) (A)
                 (A) (A) (A) (A) (A) (A) (A) (A) (A) (A) (A) (A)
                 (A) (A) (A) (A) (A) (A) (A) (A) (A) (A) (A) (A)
                 (A) (A) (A) (A) (A) (A) (A) (A) (A) (A) (A) (A)
                 (A) (A) (A) (A) (A) (A) (A) (A) (A) (A) (A) (A)
                 (A) (A) (A) (A) (A) (A)
 The electronic state is 1-A.
 Alpha  occ. eigenvalues --  -19.85235 -19.60235 -19.58469 -14.84930 -14.83949
 Alpha  occ. eigenvalues --  -14.79702 -10.67391 -10.59560 -10.57696  -1.35325
 Alpha  occ. eigenvalues --   -1.23413  -1.16351  -1.07475  -1.00616  -0.91043
 Alpha  occ. eigenvalues --   -0.79583  -0.78256  -0.74191  -0.71305  -0.65261
 Alpha  occ. eigenvalues --   -0.62056  -0.56664  -0.56173  -0.52639  -0.51709
 Alpha  occ. eigenvalues --   -0.48290  -0.47714  -0.43298  -0.36845  -0.35927
 Alpha  occ. eigenvalues --   -0.34033  -0.32750  -0.31676  -0.31617
 Alpha virt. eigenvalues --   -0.03603   0.01137   0.02904   0.04597   0.05105
 Alpha virt. eigenvalues --    0.05544   0.05706   0.07106   0.08709   0.08758
 Alpha virt. eigenvalues --    0.09448   0.09599   0.11704   0.12241   0.12909
 Alpha virt. eigenvalues --    0.13353   0.14948   0.15575   0.16767   0.17028
 Alpha virt. eigenvalues --    0.18479   0.19389   0.21617   0.22188   0.22629
 Alpha virt. eigenvalues --    0.23304   0.24669   0.25473   0.25785   0.26685
 Alpha virt. eigenvalues --    0.27981   0.28681   0.29107   0.29646   0.31225
 Alpha virt. eigenvalues --    0.32216   0.32568   0.32933   0.33503   0.34541
 Alpha virt. eigenvalues --    0.37509   0.37923   0.38368   0.39952   0.41921
 Alpha virt. eigenvalues --    0.43761   0.44737   0.48879   0.52019   0.54198
 Alpha virt. eigenvalues --    0.55033   0.68589   0.73236   0.75268   0.76862
 Alpha virt. eigenvalues --    0.81544   0.85201   0.85238   0.88620   0.90399
 Alpha virt. eigenvalues --    0.91584   0.93757   0.94788   0.95320   0.96094
 Alpha virt. eigenvalues --    0.98190   1.00165   1.01012   1.02897   1.03369
 Alpha virt. eigenvalues --    1.05978   1.06712   1.08015   1.11076   1.19195
 Alpha virt. eigenvalues --    1.20891   1.21322   1.26242   1.29159   1.30022
 Alpha virt. eigenvalues --    1.30259   1.34519   1.35133   1.36319   1.38070
 Alpha virt. eigenvalues --    1.38989   1.39938   1.40018   1.41656   1.43496
 Alpha virt. eigenvalues --    1.45458   1.47623   1.49229   1.50869   1.54734
 Alpha virt. eigenvalues --    1.57589   1.59315   1.62896   1.65441   1.69255
 Alpha virt. eigenvalues --    1.80985   1.81338   1.86659   1.90604   1.91108
 Alpha virt. eigenvalues --    1.95336   1.95745   2.00973   2.03125   2.04515
 Alpha virt. eigenvalues --    2.04922   2.07563   2.10868   2.12640   2.13016
 Alpha virt. eigenvalues --    2.22407   2.23145   2.24997   2.25844   2.28602
 Alpha virt. eigenvalues --    2.29146   2.34900   2.38103   2.39835   2.40851
 Alpha virt. eigenvalues --    2.42281   2.46005   2.48269   2.54718   2.59368
 Alpha virt. eigenvalues --    2.60125   2.63701   2.64961   2.69302   2.75080
 Alpha virt. eigenvalues --    2.75104   2.84093   2.85044   2.87759   2.93558
 Alpha virt. eigenvalues --    2.95468   2.99818   3.00534   3.09163   3.13163
 Alpha virt. eigenvalues --    3.17914   3.26472   3.27519   3.30774   3.38060
 Alpha virt. eigenvalues --    3.39141   3.51051   3.75632   4.02683   4.19918
 Alpha virt. eigenvalues --    4.26245   4.28485   4.32187   4.50327   4.60014
 Alpha virt. eigenvalues --    4.73458   4.83309
          Condensed to atoms (all electrons):
               1          2          3          4          5          6
     1  N    8.542631  -0.668047  -0.563458   0.599023  -0.845065  -0.004302
     2  N   -0.668047   7.673197   0.430858  -0.264806   0.431546  -0.040757
     3  C   -0.563458   0.430858   5.965823  -0.374151   0.253560   0.433261
     4  C    0.599023  -0.264806  -0.374151   5.992228  -0.069442  -0.049451
     5  N   -0.845065   0.431546   0.253560  -0.069442   7.430712   0.004012
     6  H   -0.004302  -0.040757   0.433261  -0.049451   0.004012   0.438591
     7  H    0.025596  -0.029344   0.005412   0.372571  -0.049239   0.000645
     8  H    0.050581   0.005162   0.006085  -0.005572   0.018583  -0.000001
     9  C    0.024813  -0.001501  -0.081640  -0.015299   0.036948  -0.005173
    10  O    0.015460  -0.087156  -0.100361   0.069558  -0.008421  -0.002235
    11  O   -0.050712  -0.144302   0.021437   0.010568   0.006909  -0.000617
    12  H   -0.005215   0.005327   0.000532  -0.000509   0.002930  -0.000000
    13  O    0.018756  -0.038742   0.002776  -0.000147  -0.008894   0.000011
    14  H    0.001120   0.000452  -0.000297   0.000217  -0.000655  -0.000000
               7          8          9         10         11         12
     1  N    0.025596   0.050581   0.024813   0.015460  -0.050712  -0.005215
     2  N   -0.029344   0.005162  -0.001501  -0.087156  -0.144302   0.005327
     3  C    0.005412   0.006085  -0.081640  -0.100361   0.021437   0.000532
     4  C    0.372571  -0.005572  -0.015299   0.069558   0.010568  -0.000509
     5  N   -0.049239   0.018583   0.036948  -0.008421   0.006909   0.002930
     6  H    0.000645  -0.000001  -0.005173  -0.002235  -0.000617  -0.000000
     7  H    0.498612  -0.000001  -0.001036  -0.000191   0.000027  -0.000000
     8  H   -0.000001   0.205868   0.000975   0.001297   0.061389  -0.002690
     9  C   -0.001036   0.000975   4.503515   0.499517   0.285203  -0.000205
    10  O   -0.000191   0.001297   0.499517   8.275437  -0.127780   0.000021
    11  O    0.000027   0.061389   0.285203  -0.127780   8.665749   0.000634
    12  H   -0.000000  -0.002690  -0.000205   0.000021   0.000634   0.276826
    13  O    0.000015   0.119713  -0.020538  -0.002017  -0.031174   0.288745
    14  H   -0.000000  -0.004737   0.002064  -0.000017  -0.001582  -0.019616
              13         14
     1  N    0.018756   0.001120
     2  N   -0.038742   0.000452
     3  C    0.002776  -0.000297
     4  C   -0.000147   0.000217
     5  N   -0.008894  -0.000655
     6  H    0.000011  -0.000000
     7  H    0.000015  -0.000000
     8  H    0.119713  -0.004737
     9  C   -0.020538   0.002064
    10  O   -0.002017  -0.000017
    11  O   -0.031174  -0.001582
    12  H    0.288745  -0.019616
    13  O    7.914485   0.290760
    14  H    0.290760   0.260369
 Mulliken charges:
               1
     1  N   -0.141182
     2  N   -0.271887
     3  C    0.000162
     4  C   -0.264786
     5  N   -0.203484
     6  H    0.226016
     7  H    0.176932
     8  H    0.543347
     9  C    0.772355
    10  O   -0.533113
    11  O   -0.695750
    12  H    0.453219
    13  O   -0.533749
    14  H    0.471921
 Sum of Mulliken charges =  -0.00000
 Mulliken charges with hydrogens summed into heavy atoms:
               1
     1  N   -0.141182
     2  N   -0.271887
     3  C    0.226178
     4  C   -0.087854
     5  N   -0.203484
     9  C    0.772355
    10  O   -0.533113
    11  O   -0.695750
    13  O    0.934737
 APT charges:
               1
     1  N   -0.506904
     2  N   -0.423948
     3  C   -0.383344
     4  C   -0.477644
     5  N   -0.004664
     6  H    0.628425
     7  H    0.788276
     8  H    0.114894
     9  C    0.193517
    10  O   -0.228874
    11  O   -0.541863
    12  H    0.750343
    13  O   -0.776047
    14  H    0.867832
 Sum of APT charges =  -0.00000
 APT charges with hydrogens summed into heavy atoms:
               1
     1  N   -0.506904
     2  N   -0.423948
     3  C    0.245082
     4  C    0.310632
     5  N   -0.004664
     9  C    0.193517
    10  O   -0.228874
    11  O   -0.541863
    13  O    0.957022
 Electronic spatial extent (au):  <R**2>=           1232.0659
 Charge=             -0.0000 electrons
 Dipole moment (field-independent basis, Debye):
    X=             -4.8035    Y=             -7.0338    Z=              1.7577  Tot=              8.6970
 Quadrupole moment (field-independent basis, Debye-Ang):
   XX=            -22.3697   YY=            -64.7772   ZZ=            -52.5869
   XY=             16.7300   XZ=             -5.3227   YZ=             -3.4840
 Traceless Quadrupole moment (field-independent basis, Debye-Ang):
   XX=             24.2082   YY=            -18.1992   ZZ=             -6.0090
   XY=             16.7300   XZ=             -5.3227   YZ=             -3.4840
 Octapole moment (field-independent basis, Debye-Ang**2):
  XXX=            -81.9508  YYY=            -42.5519  ZZZ=              0.9378  XYY=            -27.4296
  XXY=            -43.7463  XXZ=             16.7870  XZZ=            -11.6071  YZZ=             -0.4849
  YYZ=              6.7551  XYZ=              9.1788
 Hexadecapole moment (field-independent basis, Debye-Ang**3):
 XXXX=           -445.9125 YYYY=           -762.9200 ZZZZ=            -52.9701 XXXY=            129.0624
 XXXZ=            -50.8425 YYYX=             85.7559 YYYZ=            -17.7962 ZZZX=             -3.8354
 ZZZY=             -2.6535 XXYY=           -184.6530 XXZZ=           -150.3506 YYZZ=           -117.2848
 XXYZ=            -26.5098 YYXZ=            -19.1638 ZZXY=             13.7049
 N-N= 4.525263656873D+02 E-N=-2.092121863075D+03  KE= 5.027951323324D+02
  Exact polarizability:   0.000   0.000   0.000   0.000   0.000   0.000
 Approx polarizability: 100.266   5.202 101.997   0.450   0.110  52.631
 Calling FoFJK, ICntrl=    100147 FMM=F ISym2X=0 I1Cent= 0 IOpClX= 0 NMat=1 NMatS=1 NMatT=0.
 ***** Axes restored to original set *****
 -------------------------------------------------------------------
 Center     Atomic                   Forces (Hartrees/Bohr)
 Number     Number              X              Y              Z
 -------------------------------------------------------------------
      1        7           0.002155060    0.000927185    0.001604850
      2        7           0.004200812   -0.005228349    0.000018697
      3        6          -0.004856921    0.001282468   -0.000251373
      4        6          -0.003971922   -0.004268736   -0.000266517
      5        7           0.001952546   -0.005363100    0.000489782
      6        1          -0.002828960    0.001056978   -0.000140535
      7        1          -0.000557097   -0.000779427   -0.000079911
      8        1           0.024841944    0.021102629   -0.004674403
      9        6           0.004499076    0.040770213    0.000718304
     10        8          -0.004445236   -0.023121158   -0.000528629
     11        8          -0.012074496   -0.021099850    0.001513703
     12        1           0.004050736    0.000993738   -0.004215487
     13        8          -0.017418712   -0.011461239    0.009744010
     14        1           0.004453170    0.005188648   -0.003932492
 -------------------------------------------------------------------
 Cartesian Forces:  Max     0.040770213 RMS     0.010575788
 FormGI is forming the generalized inverse of G from B-inverse, IUseBI=4.

 GradGradGradGradGradGradGradGradGradGradGradGradGradGradGradGradGradGrad
 Berny optimization.
 Internal  Forces:  Max     0.022730751 RMS     0.005004544
 Search for a saddle point.
 Step number   1 out of a maximum of   80
 All quantities printed in internal units (Hartrees-Bohrs-Radians)
 Swapping is turned off.
 Second derivative matrix not updated -- analytic derivatives used.
 ITU=  0
     Eigenvalues ---   -0.01826   0.00035   0.00148   0.00307   0.00470
     Eigenvalues ---    0.00697   0.01003   0.01352   0.01720   0.02540
     Eigenvalues ---    0.03467   0.03893   0.06254   0.06564   0.07655
     Eigenvalues ---    0.09322   0.10552   0.10933   0.11704   0.15931
     Eigenvalues ---    0.20447   0.22254   0.25737   0.31770   0.34911
     Eigenvalues ---    0.38470   0.38751   0.38985   0.43041   0.45355
     Eigenvalues ---    0.50417   0.50735   0.50829   0.59820   0.61595
     Eigenvalues ---    0.82469
 Eigenvectors required to have negative eigenvalues:
                          A15       A16       R10       R3        A3
   1                   -0.51101   0.49837  -0.48133   0.41285   0.14042
                          A2        A20       D27       D29       A22
   1                   -0.13334   0.11334  -0.09583  -0.08840   0.07668
 RFO step:  Lambda0=6.690426574D-05 Lambda=-1.75850522D-02.
 Linear search not attempted -- option 19 set.
 Maximum step size (   0.300) exceeded in Quadratic search.
    -- Step size scaled by   0.466
 Iteration  1 RMS(Cart)=  0.04880963 RMS(Int)=  0.00445946
 Iteration  2 RMS(Cart)=  0.00486856 RMS(Int)=  0.00049896
 Iteration  3 RMS(Cart)=  0.00000988 RMS(Int)=  0.00049890
 Iteration  4 RMS(Cart)=  0.00000000 RMS(Int)=  0.00049890
 Variable       Old X    -DE/DX   Delta X   Delta X   Delta X     New X
                                 (Linear)    (Quad)   (Total)
    R1        2.51928  -0.00184   0.00000  -0.00411  -0.00450   2.51478
    R2        2.45135   0.00050   0.00000   0.00083   0.00091   2.45226
    R3        3.70689  -0.00874   0.00000  -0.11239  -0.11155   3.59533
    R4        2.55420  -0.00699   0.00000  -0.00606  -0.00615   2.54805
    R5        2.79952   0.01060   0.00000   0.02528   0.02426   2.82378
    R6        2.59500   0.00562   0.00000   0.00560   0.00556   2.60055
    R7        2.03789  -0.00065   0.00000  -0.00037  -0.00037   2.03753
    R8        2.57590  -0.00413   0.00000  -0.00365  -0.00359   2.57231
    R9        2.03807  -0.00016   0.00000  -0.00007  -0.00007   2.03800
   R10        3.63679  -0.01390   0.00000  -0.23364  -0.23304   3.40375
   R11        1.90186   0.01032   0.00000   0.03121   0.03121   1.93307
   R12        2.33315  -0.02273   0.00000  -0.02237  -0.02237   2.31078
   R13        2.35061   0.00717   0.00000   0.00884   0.00832   2.35893
   R14        1.84590  -0.00300   0.00000  -0.00494  -0.00494   1.84095
   R15        1.84670  -0.00171   0.00000  -0.00139  -0.00139   1.84531
    A1        1.88969   0.00680   0.00000   0.00694   0.00669   1.89638
    A2        1.86167  -0.00511   0.00000  -0.04697  -0.04649   1.81519
    A3        2.53163  -0.00169   0.00000   0.04012   0.03987   2.57151
    A4        1.93340  -0.00364   0.00000  -0.00255  -0.00216   1.93124
    A5        2.08889   0.00388   0.00000  -0.00280  -0.00383   2.08506
    A6        2.26089  -0.00024   0.00000   0.00536   0.00599   2.26688
    A7        1.81586   0.00135   0.00000   0.00018  -0.00002   1.81585
    A8        2.13994  -0.00368   0.00000  -0.00851  -0.00841   2.13152
    A9        2.32739   0.00233   0.00000   0.00833   0.00843   2.33582
   A10        1.89214   0.00117   0.00000   0.00164   0.00159   1.89374
   A11        2.26379   0.00039   0.00000   0.00140   0.00142   2.26521
   A12        2.12725  -0.00156   0.00000  -0.00304  -0.00301   2.12424
   A13        1.89368  -0.00568   0.00000  -0.00620  -0.00611   1.88757
   A14        1.49017   0.00858   0.00000   0.07634   0.07815   1.56832
   A15        2.49318  -0.00089   0.00000   0.00570   0.00462   2.49780
   A16        2.29959  -0.00767   0.00000  -0.08147  -0.08253   2.21705
   A17        1.99920  -0.00416   0.00000   0.00013   0.00082   2.00002
   A18        1.97862  -0.00605   0.00000  -0.02230  -0.02369   1.95494
   A19        2.30536   0.01021   0.00000   0.02217   0.02287   2.32822
   A20        2.00494  -0.00128   0.00000  -0.00381  -0.00379   2.00115
   A21        1.91515  -0.00227   0.00000   0.00351   0.00349   1.91864
   A22        1.90745  -0.00824   0.00000  -0.04717  -0.04719   1.86025
   A23        1.89491   0.00677   0.00000   0.02429   0.02425   1.91916
    D1        0.00038   0.00036   0.00000   0.00224   0.00231   0.00268
    D2        3.14104   0.00045   0.00000   0.00618   0.00631  -3.13583
    D3        3.12653   0.00036   0.00000   0.00630   0.00604   3.13257
    D4       -0.01599   0.00046   0.00000   0.01025   0.01004  -0.00595
    D5       -0.00055  -0.00034   0.00000  -0.00205  -0.00213  -0.00268
    D6       -3.11631  -0.00037   0.00000  -0.00701  -0.00691  -3.12322
    D7        0.02195  -0.00052   0.00000  -0.01126  -0.01145   0.01050
    D8        3.13868   0.00064   0.00000   0.01652   0.01760  -3.12691
    D9        3.13794  -0.00039   0.00000  -0.00593  -0.00641   3.13153
   D10       -0.02851   0.00076   0.00000   0.02185   0.02264  -0.00587
   D11       -0.00005  -0.00022   0.00000  -0.00144  -0.00147  -0.00151
   D12        3.14098  -0.00012   0.00000  -0.00033  -0.00033   3.14065
   D13       -3.14060  -0.00033   0.00000  -0.00588  -0.00600   3.13659
   D14        0.00043  -0.00023   0.00000  -0.00477  -0.00487  -0.00444
   D15        3.13647  -0.00021   0.00000  -0.00173  -0.00180   3.13467
   D16       -0.00492   0.00014   0.00000   0.00062   0.00029  -0.00463
   D17       -0.00625  -0.00009   0.00000   0.00305   0.00307  -0.00317
   D18        3.13555   0.00026   0.00000   0.00540   0.00517   3.14072
   D19       -0.00028   0.00002   0.00000   0.00017   0.00015  -0.00013
   D20        3.14086   0.00008   0.00000   0.00049   0.00052   3.14138
   D21       -3.14122  -0.00011   0.00000  -0.00110  -0.00117   3.14079
   D22       -0.00008  -0.00004   0.00000  -0.00079  -0.00080  -0.00088
   D23        0.00053   0.00020   0.00000   0.00117   0.00123   0.00175
   D24       -3.14066   0.00014   0.00000   0.00088   0.00089  -3.13977
   D25       -0.02745   0.00061   0.00000   0.01259   0.01281  -0.01463
   D26        3.13427  -0.00044   0.00000  -0.01151  -0.01046   3.12381
   D27        0.73737  -0.00168   0.00000  -0.01357  -0.01315   0.72422
   D28        2.81336   0.00024   0.00000  -0.01031  -0.00985   2.80350
   D29       -2.43744   0.00007   0.00000   0.02577   0.02531  -2.41213
   D30       -0.36145   0.00199   0.00000   0.02903   0.02861  -0.33284
   D31        0.02448  -0.00066   0.00000  -0.01102  -0.01079   0.01368
   D32       -3.11687  -0.00023   0.00000  -0.00813  -0.00817  -3.12503
         Item               Value     Threshold  Converged?
 Maximum Force            0.022731     0.000450     NO 
 RMS     Force            0.005005     0.000300     NO 
 Maximum Displacement     0.207100     0.001800     NO 
 RMS     Displacement     0.052502     0.001200     NO 
 Predicted change in Energy=-7.072289D-03
 GradGradGradGradGradGradGradGradGradGradGradGradGradGradGradGradGradGrad

                          Input orientation:                          
 ---------------------------------------------------------------------
 Center     Atomic      Atomic             Coordinates (Angstroms)
 Number     Number       Type             X           Y           Z
 ---------------------------------------------------------------------
      1          7           0        0.097378   -1.001670   -0.033822
      2          7           0        0.552561    0.248474   -0.004074
      3          6           0        1.900588    0.263244    0.022472
      4          6           0        2.249384   -1.067905    0.009078
      5          7           0        1.110432   -1.812596   -0.024292
      6          1           0        2.463554    1.182462    0.047936
      7          1           0        3.225810   -1.525654    0.021018
      8          1           0       -1.794651   -0.802411   -0.050743
      9          6           0       -0.418366    1.384324   -0.000054
     10          8           0        0.095810    2.493198    0.035870
     11          8           0       -1.601744    0.988318   -0.032104
     12          1           0       -2.611285   -2.089646    0.541681
     13          8           0       -2.672565   -1.327335   -0.061787
     14          1           0       -3.367801   -0.714200    0.245220
 ---------------------------------------------------------------------
                    Distance matrix (angstroms):
                    1          2          3          4          5
     1  N    0.000000
     2  N    1.330766   0.000000
     3  C    2.203348   1.348370   0.000000
     4  C    2.153452   2.147612   1.376153   0.000000
     5  N    1.297679   2.135331   2.221632   1.361209   0.000000
     6  H    3.221166   2.127660   1.078212   2.260870   3.287329
     7  H    3.172483   3.208492   2.226291   1.078464   2.135231
     8  H    1.902568   2.572147   3.846528   4.053182   3.075822
     9  C    2.441332   1.494280   2.575826   3.623590   3.543743
    10  O    3.495563   2.291070   2.868815   4.161737   4.424132
    11  O    2.616690   2.277978   3.577015   4.365883   3.898856
    12  H    2.975189   3.971721   5.114945   4.995370   3.774686
    13  O    2.789161   3.589978   4.842599   4.929290   3.814177
    14  H    3.488262   4.044518   5.362923   5.633262   4.618840
                    6          7          8          9         10
     6  H    0.000000
     7  H    2.813477   0.000000
     8  H    4.699125   5.072796   0.000000
     9  C    2.889380   4.663522   2.584287   0.000000
    10  O    2.706361   5.093947   3.800314   1.222812   0.000000
    11  O    4.070718   5.443175   1.801186   1.248291   2.269576
    12  H    6.058421   5.887346   1.635491   4.143771   5.346650
    13  O    5.717591   5.902288   1.022937   3.526800   4.719101
    14  H    6.135223   6.647137   1.603177   3.628103   4.725233
                   11         12         13         14
    11  O    0.000000
    12  H    3.289720   0.000000
    13  O    2.551428   0.974190   0.000000
    14  H    2.468690   1.597516   0.976495   0.000000
 Stoichiometry    C3H5N3O3
 Framework group  C1[X(C3H5N3O3)]
 Deg. of freedom    36
 Full point group                 C1      NOp   1
 Largest Abelian subgroup         C1      NOp   1
 Largest concise Abelian subgroup C1      NOp   1
                         Standard orientation:                         
 ---------------------------------------------------------------------
 Center     Atomic      Atomic             Coordinates (Angstroms)
 Number     Number       Type             X           Y           Z
 ---------------------------------------------------------------------
      1          7           0        0.183672   -0.972996   -0.032214
      2          7           0        0.542461    0.308225   -0.006145
      3          6           0        1.885451    0.425538    0.020655
      4          6           0        2.334465   -0.875268    0.011362
      5          7           0        1.255452   -1.704508   -0.020008
      6          1           0        2.376877    1.384976    0.043464
      7          1           0        3.342865   -1.257404    0.024902
      8          1           0       -1.718023   -0.918240   -0.050156
      9          6           0       -0.512028    1.366962   -0.005774
     10          8           0       -0.083676    2.511827    0.026911
     11          8           0       -1.661851    0.882021   -0.036888
     12          1           0       -2.434676   -2.262064    0.545976
     13          8           0       -2.553474   -1.508433   -0.059807
     14          1           0       -3.293459   -0.949022    0.245192
 ---------------------------------------------------------------------
 Rotational constants (GHZ):           2.0340568           1.5556215           0.8828953
 Standard basis: 6-31+G(d,p) (6D, 7F)
 There are   196 symmetry adapted cartesian basis functions of A   symmetry.
 There are   196 symmetry adapted basis functions of A   symmetry.
   196 basis functions,   323 primitive gaussians,   196 cartesian basis functions
    34 alpha electrons       34 beta electrons
       nuclear repulsion energy       454.9621537140 Hartrees.
 NAtoms=   14 NActive=   14 NUniq=   14 SFac= 1.00D+00 NAtFMM=   60 NAOKFM=F Big=F
 Integral buffers will be    131072 words long.
 Raffenetti 2 integral format.
 Two-electron integral symmetry is turned on.
 One-electron integrals computed using PRISM.
 NBasis=   196 RedAO= T EigKep=  1.86D-05  NBF=   196
 NBsUse=   196 1.00D-06 EigRej= -1.00D+00 NBFU=   196
 Initial guess from the checkpoint file:  "/scratch/gongke2021/TS-H-cycle/Gau-15011.chk"
 B after Tr=    -0.000000   -0.000000   -0.000000
         Rot=    0.999140    0.000470    0.000040   -0.041465 Ang=   4.75 deg.
 ExpMin= 4.38D-02 ExpMax= 5.48D+03 ExpMxC= 8.25D+02 IAcc=2 IRadAn=         4 AccDes= 0.00D+00
 Harris functional with IExCor= 1009 and IRadAn=       4 diagonalized for initial guess.
 HarFok:  IExCor= 1009 AccDes= 0.00D+00 IRadAn=         4 IDoV= 1 UseB2=F ITyADJ=14
 ICtDFT=  3500011 ScaDFX=  1.000000  1.000000  1.000000  1.000000
 FoFCou: FMM=F IPFlag=           0 FMFlag=      100000 FMFlg1=           0
         NFxFlg=           0 DoJE=T BraDBF=F KetDBF=T FulRan=T
         wScrn=  0.000000 ICntrl=       500 IOpCl=  0 I1Cent=   200000004 NGrid=           0
         NMat0=    1 NMatS0=      1 NMatT0=    0 NMatD0=    1 NMtDS0=    0 NMtDT0=    0
 Petite list used in FoFCou.
 Requested convergence on RMS density matrix=1.00D-08 within 128 cycles.
 Requested convergence on MAX density matrix=1.00D-06.
 Requested convergence on             energy=1.00D-06.
 No special actions if energy rises.
 SCF Done:  E(RM062X) =  -507.016398116     A.U. after   13 cycles
            NFock= 13  Conv=0.40D-08     -V/T= 2.0083
 Calling FoFJK, ICntrl=      2127 FMM=F ISym2X=0 I1Cent= 0 IOpClX= 0 NMat=1 NMatS=1 NMatT=0.
 ***** Axes restored to original set *****
 -------------------------------------------------------------------
 Center     Atomic                   Forces (Hartrees/Bohr)
 Number     Number              X              Y              Z
 -------------------------------------------------------------------
      1        7          -0.000445002   -0.000335114    0.001772921
      2        7           0.002578365   -0.002903270   -0.000236413
      3        6          -0.002423258    0.000537222   -0.000079505
      4        6          -0.002217672   -0.002334466   -0.000153663
      5        7           0.001258518   -0.002812772    0.000116186
      6        1          -0.001658296    0.000618782   -0.000105985
      7        1          -0.000306971   -0.000450345   -0.000054583
      8        1           0.017900231    0.016616044   -0.004834054
      9        6           0.001987385    0.022961345    0.000602645
     10        8          -0.001934162   -0.012298252   -0.000390042
     11        8          -0.007456219   -0.014703578    0.001353657
     12        1           0.002111951    0.000364499   -0.002475203
     13        8          -0.012415146   -0.008343270    0.007043502
     14        1           0.003020277    0.003083175   -0.002559463
 -------------------------------------------------------------------
 Cartesian Forces:  Max     0.022961345 RMS     0.006792033

 GradGradGradGradGradGradGradGradGradGradGradGradGradGradGradGradGradGrad
 Berny optimization.
 FormGI is forming the generalized inverse of G from B-inverse, IUseBI=4.
 Internal  Forces:  Max     0.011979191 RMS     0.003077435
 Search for a saddle point.
 Step number   2 out of a maximum of   80
 All quantities printed in internal units (Hartrees-Bohrs-Radians)
 Swapping is turned off.
 Update second derivatives using D2CorX and points    1    2
 ITU=  0  0
     Eigenvalues ---   -0.01864   0.00049   0.00168   0.00307   0.00469
     Eigenvalues ---    0.00696   0.01123   0.01352   0.02153   0.02540
     Eigenvalues ---    0.03467   0.03892   0.06253   0.06562   0.07652
     Eigenvalues ---    0.09320   0.10553   0.10938   0.11704   0.15922
     Eigenvalues ---    0.20442   0.22254   0.25737   0.31770   0.34912
     Eigenvalues ---    0.38686   0.38764   0.38986   0.43047   0.45365
     Eigenvalues ---    0.50417   0.50735   0.50830   0.59820   0.61589
     Eigenvalues ---    0.82505
 Eigenvectors required to have negative eigenvalues:
                          R10       A15       A16       R3        A3
   1                   -0.53017  -0.50337   0.47612   0.39032   0.14721
                          A2        A20       D27       D28       D29
   1                   -0.13929   0.10887  -0.09690  -0.07942  -0.07205
 RFO step:  Lambda0=7.593016410D-05 Lambda=-9.10912019D-03.
 Linear search not attempted -- option 19 set.
 Maximum step size (   0.300) exceeded in Quadratic search.
    -- Step size scaled by   0.608
 Iteration  1 RMS(Cart)=  0.05621821 RMS(Int)=  0.00214059
 Iteration  2 RMS(Cart)=  0.00208973 RMS(Int)=  0.00076020
 Iteration  3 RMS(Cart)=  0.00000488 RMS(Int)=  0.00076019
 Iteration  4 RMS(Cart)=  0.00000000 RMS(Int)=  0.00076019
 Variable       Old X    -DE/DX   Delta X   Delta X   Delta X     New X
                                 (Linear)    (Quad)   (Total)
    R1        2.51478  -0.00074   0.00000  -0.00279  -0.00342   2.51136
    R2        2.45226   0.00033   0.00000   0.00060   0.00069   2.45295
    R3        3.59533  -0.00598   0.00000  -0.16505  -0.16414   3.43119
    R4        2.54805  -0.00380   0.00000  -0.00528  -0.00539   2.54266
    R5        2.82378   0.00622   0.00000   0.01936   0.01816   2.84193
    R6        2.60055   0.00307   0.00000   0.00448   0.00445   2.60500
    R7        2.03753  -0.00034   0.00000  -0.00009  -0.00009   2.03743
    R8        2.57231  -0.00220   0.00000  -0.00295  -0.00286   2.56945
    R9        2.03800  -0.00009   0.00000  -0.00007  -0.00007   2.03793
   R10        3.40375  -0.01003   0.00000  -0.18374  -0.18287   3.22087
   R11        1.93307   0.00874   0.00000   0.04023   0.04023   1.97330
   R12        2.31078  -0.01198   0.00000  -0.01641  -0.01641   2.29437
   R13        2.35893   0.00453   0.00000   0.00660   0.00618   2.36510
   R14        1.84095  -0.00168   0.00000  -0.00451  -0.00451   1.83644
   R15        1.84531  -0.00102   0.00000  -0.00047  -0.00047   1.84484
    A1        1.89638   0.00362   0.00000   0.00482   0.00458   1.90096
    A2        1.81519  -0.00316   0.00000  -0.02964  -0.02933   1.78586
    A3        2.57151  -0.00046   0.00000   0.02496   0.02484   2.59635
    A4        1.93124  -0.00195   0.00000  -0.00133  -0.00084   1.93040
    A5        2.08506   0.00191   0.00000  -0.00770  -0.00906   2.07600
    A6        2.26688   0.00004   0.00000   0.00900   0.00986   2.27674
    A7        1.81585   0.00070   0.00000  -0.00032  -0.00057   1.81528
    A8        2.13152  -0.00213   0.00000  -0.00703  -0.00691   2.12462
    A9        2.33582   0.00143   0.00000   0.00735   0.00748   2.34329
   A10        1.89374   0.00071   0.00000   0.00152   0.00146   1.89520
   A11        2.26521   0.00019   0.00000   0.00089   0.00092   2.26613
   A12        2.12424  -0.00090   0.00000  -0.00241  -0.00238   2.12186
   A13        1.88757  -0.00308   0.00000  -0.00470  -0.00463   1.88294
   A14        1.56832   0.00585   0.00000   0.07948   0.08124   1.64956
   A15        2.49780  -0.00117   0.00000   0.03272   0.03116   2.52896
   A16        2.21705  -0.00469   0.00000  -0.11236  -0.11361   2.10344
   A17        2.00002  -0.00201   0.00000   0.00340   0.00413   2.00416
   A18        1.95494  -0.00388   0.00000  -0.02413  -0.02560   1.92933
   A19        2.32822   0.00588   0.00000   0.02073   0.02147   2.34969
   A20        2.00115  -0.00071   0.00000  -0.01764  -0.01718   1.98397
   A21        1.91864  -0.00090   0.00000   0.00892   0.00891   1.92755
   A22        1.86025  -0.00545   0.00000  -0.05373  -0.05375   1.80651
   A23        1.91916   0.00404   0.00000   0.01887   0.01883   1.93799
    D1        0.00268   0.00022   0.00000   0.00161   0.00186   0.00454
    D2       -3.13583   0.00035   0.00000   0.00851   0.00881  -3.12702
    D3        3.13257   0.00028   0.00000   0.00878   0.00846   3.14103
    D4       -0.00595   0.00040   0.00000   0.01567   0.01542   0.00947
    D5       -0.00268  -0.00021   0.00000  -0.00157  -0.00182  -0.00450
    D6       -3.12322  -0.00030   0.00000  -0.01348  -0.01325  -3.13648
    D7        0.01050  -0.00049   0.00000  -0.01873  -0.01907  -0.00858
    D8       -3.12691   0.00071   0.00000   0.03496   0.03730  -3.08961
    D9        3.13153  -0.00036   0.00000  -0.00691  -0.00783   3.12370
   D10       -0.00587   0.00083   0.00000   0.04678   0.04854   0.04267
   D11       -0.00151  -0.00014   0.00000  -0.00095  -0.00107  -0.00258
   D12        3.14065  -0.00007   0.00000   0.00011   0.00009   3.14073
   D13        3.13659  -0.00027   0.00000  -0.00881  -0.00911   3.12748
   D14       -0.00444  -0.00020   0.00000  -0.00775  -0.00796  -0.01240
   D15        3.13467  -0.00015   0.00000  -0.00258  -0.00251   3.13215
   D16       -0.00463   0.00005   0.00000  -0.00080  -0.00125  -0.00588
   D17       -0.00317   0.00000   0.00000   0.00585   0.00608   0.00290
   D18        3.14072   0.00020   0.00000   0.00763   0.00733  -3.13513
   D19       -0.00013   0.00001   0.00000  -0.00002  -0.00005  -0.00019
   D20        3.14138   0.00005   0.00000   0.00039   0.00048  -3.14133
   D21        3.14079  -0.00007   0.00000  -0.00126  -0.00143   3.13937
   D22       -0.00088  -0.00003   0.00000  -0.00086  -0.00090  -0.00178
   D23        0.00175   0.00012   0.00000   0.00098   0.00115   0.00291
   D24       -3.13977   0.00008   0.00000   0.00061   0.00068  -3.13909
   D25       -0.01463   0.00057   0.00000   0.02078   0.02091   0.00627
   D26        3.12381  -0.00032   0.00000  -0.01918  -0.01635   3.10745
   D27        0.72422  -0.00111   0.00000  -0.00275  -0.00179   0.72243
   D28        2.80350   0.00006   0.00000  -0.00659  -0.00559   2.79791
   D29       -2.41213   0.00037   0.00000   0.06406   0.06306  -2.34906
   D30       -0.33284   0.00154   0.00000   0.06022   0.05926  -0.27358
   D31        0.01368  -0.00051   0.00000  -0.01640  -0.01555  -0.00187
   D32       -3.12503  -0.00024   0.00000  -0.01412  -0.01389  -3.13892
         Item               Value     Threshold  Converged?
 Maximum Force            0.011979     0.000450     NO 
 RMS     Force            0.003077     0.000300     NO 
 Maximum Displacement     0.218081     0.001800     NO 
 RMS     Displacement     0.056904     0.001200     NO 
 Predicted change in Energy=-4.289374D-03
 GradGradGradGradGradGradGradGradGradGradGradGradGradGradGradGradGradGrad

                          Input orientation:                          
 ---------------------------------------------------------------------
 Center     Atomic      Atomic             Coordinates (Angstroms)
 Number     Number       Type             X           Y           Z
 ---------------------------------------------------------------------
      1          7           0        0.094201   -1.024287   -0.038130
      2          7           0        0.535157    0.228964   -0.005866
      3          6           0        1.880107    0.257137    0.021248
      4          6           0        2.242068   -1.072924    0.006863
      5          7           0        1.112566   -1.829109   -0.027543
      6          1           0        2.427392    1.185663    0.048723
      7          1           0        3.222309   -1.522349    0.019225
      8          1           0       -1.707408   -0.800505   -0.068535
      9          6           0       -0.464724    1.352219    0.008682
     10          8           0        0.019156    2.465038    0.048684
     11          8           0       -1.631970    0.901551   -0.020203
     12          1           0       -2.616125   -2.033231    0.562515
     13          8           0       -2.629381   -1.290766   -0.064360
     14          1           0       -3.254245   -0.598796    0.225097
 ---------------------------------------------------------------------
                    Distance matrix (angstroms):
                    1          2          3          4          5
     1  N    0.000000
     2  N    1.328956   0.000000
     3  C    2.198871   1.345518   0.000000
     4  C    2.148888   2.146770   1.378508   0.000000
     5  N    1.298044   2.137647   2.223493   1.359696   0.000000
     6  H    3.214841   2.121038   1.078163   2.266564   3.289898
     7  H    3.168030   3.207571   2.228918   1.078428   2.132441
     8  H    1.815709   2.468367   3.741248   3.959578   3.001993
     9  C    2.441797   1.503887   2.587971   3.634288   3.551057
    10  O    3.491211   2.295486   2.887684   4.178548   4.431823
    11  O    2.586280   2.269145   3.570949   4.348271   3.871568
    12  H    2.953745   3.920608   5.074924   4.983270   3.780605
    13  O    2.736713   3.511026   4.768523   4.876837   3.780653
    14  H    3.385620   3.885628   5.209198   5.521040   4.543846
                    6          7          8          9         10
     6  H    0.000000
     7  H    2.822426   0.000000
     8  H    4.588593   4.983058   0.000000
     9  C    2.897184   4.675196   2.486856   0.000000
    10  O    2.726977   5.114715   3.695746   1.214127   0.000000
    11  O    4.069876   5.425944   1.704413   1.251559   2.274962
    12  H    6.005191   5.885871   1.656383   4.049263   5.238621
    13  O    5.631735   5.856867   1.044225   3.417081   4.597128
    14  H    5.957886   6.545310   1.587328   3.410972   4.487021
                   11         12         13         14
    11  O    0.000000
    12  H    3.149773   0.000000
    13  O    2.408948   0.971804   0.000000
    14  H    2.223284   1.605818   0.976249   0.000000
 Stoichiometry    C3H5N3O3
 Framework group  C1[X(C3H5N3O3)]
 Deg. of freedom    36
 Full point group                 C1      NOp   1
 Largest Abelian subgroup         C1      NOp   1
 Largest concise Abelian subgroup C1      NOp   1
                         Standard orientation:                         
 ---------------------------------------------------------------------
 Center     Atomic      Atomic             Coordinates (Angstroms)
 Number     Number       Type             X           Y           Z
 ---------------------------------------------------------------------
      1          7           0        0.254489   -0.964725   -0.033711
      2          7           0        0.519168    0.337400   -0.010540
      3          6           0        1.847461    0.550144    0.017705
      4          6           0        2.388603   -0.717702    0.013800
      5          7           0        1.373669   -1.622022   -0.015983
      6          1           0        2.262047    1.545190    0.038665
      7          1           0        3.421231   -1.028196    0.030562
      8          1           0       -1.560719   -0.990624   -0.067621
      9          6           0       -0.625466    1.312830   -0.005538
     10          8           0       -0.299008    2.481806    0.026482
     11          8           0       -1.719738    0.705984   -0.032163
     12          1           0       -2.292898   -2.331727    0.571877
     13          8           0       -2.406671   -1.602769   -0.060641
     14          1           0       -3.121196   -1.001013    0.222919
 ---------------------------------------------------------------------
 Rotational constants (GHZ):           2.1087277           1.5655648           0.9000269
 Standard basis: 6-31+G(d,p) (6D, 7F)
 There are   196 symmetry adapted cartesian basis functions of A   symmetry.
 There are   196 symmetry adapted basis functions of A   symmetry.
   196 basis functions,   323 primitive gaussians,   196 cartesian basis functions
    34 alpha electrons       34 beta electrons
       nuclear repulsion energy       457.8034962438 Hartrees.
 NAtoms=   14 NActive=   14 NUniq=   14 SFac= 1.00D+00 NAtFMM=   60 NAOKFM=F Big=F
 Integral buffers will be    131072 words long.
 Raffenetti 2 integral format.
 Two-electron integral symmetry is turned on.
 One-electron integrals computed using PRISM.
 NBasis=   196 RedAO= T EigKep=  1.85D-05  NBF=   196
 NBsUse=   196 1.00D-06 EigRej= -1.00D+00 NBFU=   196
 Initial guess from the checkpoint file:  "/scratch/gongke2021/TS-H-cycle/Gau-15011.chk"
 B after Tr=     0.000000    0.000000    0.000000
         Rot=    0.999402    0.000529    0.000107   -0.034588 Ang=   3.96 deg.
 ExpMin= 4.38D-02 ExpMax= 5.48D+03 ExpMxC= 8.25D+02 IAcc=2 IRadAn=         4 AccDes= 0.00D+00
 Harris functional with IExCor= 1009 and IRadAn=       4 diagonalized for initial guess.
 HarFok:  IExCor= 1009 AccDes= 0.00D+00 IRadAn=         4 IDoV= 1 UseB2=F ITyADJ=14
 ICtDFT=  3500011 ScaDFX=  1.000000  1.000000  1.000000  1.000000
 FoFCou: FMM=F IPFlag=           0 FMFlag=      100000 FMFlg1=           0
         NFxFlg=           0 DoJE=T BraDBF=F KetDBF=T FulRan=T
         wScrn=  0.000000 ICntrl=       500 IOpCl=  0 I1Cent=   200000004 NGrid=           0
         NMat0=    1 NMatS0=      1 NMatT0=    0 NMatD0=    1 NMtDS0=    0 NMtDT0=    0
 Petite list used in FoFCou.
 Requested convergence on RMS density matrix=1.00D-08 within 128 cycles.
 Requested convergence on MAX density matrix=1.00D-06.
 Requested convergence on             energy=1.00D-06.
 No special actions if energy rises.
 SCF Done:  E(RM062X) =  -507.020199489     A.U. after   13 cycles
            NFock= 13  Conv=0.42D-08     -V/T= 2.0082
 Calling FoFJK, ICntrl=      2127 FMM=F ISym2X=0 I1Cent= 0 IOpClX= 0 NMat=1 NMatS=1 NMatT=0.
 ***** Axes restored to original set *****
 -------------------------------------------------------------------
 Center     Atomic                   Forces (Hartrees/Bohr)
 Number     Number              X              Y              Z
 -------------------------------------------------------------------
      1        7          -0.001092644   -0.000301055    0.001815734
      2        7           0.001576928   -0.000959297   -0.000349024
      3        6          -0.000799288    0.000215916    0.000079313
      4        6          -0.000938608   -0.001148900   -0.000051501
      5        7           0.000486504   -0.001251788   -0.000316323
      6        1          -0.000668870    0.000229599   -0.000079335
      7        1          -0.000148968   -0.000220099   -0.000028393
      8        1           0.011275264    0.009627630   -0.003885495
      9        6           0.000812344    0.010074214    0.000352879
     10        8          -0.000380917   -0.004437176   -0.000196402
     11        8          -0.002315009   -0.004092578    0.000864648
     12        1           0.000556506   -0.000014720   -0.001188169
     13        8          -0.010011352   -0.009023088    0.004301907
     14        1           0.001648109    0.001301340   -0.001319840
 -------------------------------------------------------------------
 Cartesian Forces:  Max     0.011275264 RMS     0.003784154

 GradGradGradGradGradGradGradGradGradGradGradGradGradGradGradGradGradGrad
 Berny optimization.
 FormGI is forming the generalized inverse of G from B-inverse, IUseBI=4.
 Internal  Forces:  Max     0.010531464 RMS     0.001715571
 Search for a saddle point.
 Step number   3 out of a maximum of   80
 All quantities printed in internal units (Hartrees-Bohrs-Radians)
 Swapping is turned off.
 Update second derivatives using D2CorX and points    2    3
 ITU=  0  0  0
     Eigenvalues ---   -0.01857  -0.00025   0.00213   0.00304   0.00434
     Eigenvalues ---    0.00676   0.00972   0.01352   0.02540   0.03439
     Eigenvalues ---    0.03813   0.03978   0.06253   0.06557   0.07661
     Eigenvalues ---    0.09319   0.10552   0.10987   0.11704   0.15897
     Eigenvalues ---    0.20433   0.22254   0.25733   0.31766   0.34911
     Eigenvalues ---    0.38746   0.38982   0.39432   0.43053   0.45377
     Eigenvalues ---    0.50416   0.50735   0.50829   0.59821   0.61580
     Eigenvalues ---    0.82535
 Eigenvectors required to have negative eigenvalues:
                          R10       A15       A16       R3        A3
   1                   -0.55221  -0.48613   0.45343   0.40603   0.15259
                          A2        A20       D27       D28       D29
   1                   -0.14342   0.10905  -0.09405  -0.07768  -0.06953
 RFO step:  Lambda0=2.953874194D-05 Lambda=-3.94272465D-03.
 Linear search not attempted -- option 19 set.
 Maximum step size (   0.300) exceeded in Quadratic search.
    -- Step size scaled by   0.476
 Iteration  1 RMS(Cart)=  0.08208108 RMS(Int)=  0.00993559
 Iteration  2 RMS(Cart)=  0.01338114 RMS(Int)=  0.00320655
 Iteration  3 RMS(Cart)=  0.00017618 RMS(Int)=  0.00320544
 Iteration  4 RMS(Cart)=  0.00000085 RMS(Int)=  0.00320544
 Variable       Old X    -DE/DX   Delta X   Delta X   Delta X     New X
                                 (Linear)    (Quad)   (Total)
    R1        2.51136   0.00036   0.00000  -0.00632  -0.00668   2.50468
    R2        2.45295   0.00013   0.00000   0.00309   0.00329   2.45624
    R3        3.43119  -0.00293   0.00000  -0.24571  -0.24449   3.18670
    R4        2.54266  -0.00130   0.00000  -0.00481  -0.00487   2.53779
    R5        2.84193   0.00303   0.00000   0.01884   0.01721   2.85914
    R6        2.60500   0.00141   0.00000   0.00447   0.00423   2.60923
    R7        2.03743  -0.00015   0.00000   0.00020   0.00020   2.03763
    R8        2.56945  -0.00103   0.00000  -0.00347  -0.00353   2.56592
    R9        2.03793  -0.00004   0.00000  -0.00000  -0.00000   2.03793
   R10        3.22087  -0.00118   0.00000   0.02448   0.02570   3.24657
   R11        1.97330   0.01053   0.00000   0.03925   0.03925   2.01255
   R12        2.29437  -0.00422   0.00000  -0.00565  -0.00565   2.28872
   R13        2.36510   0.00282   0.00000  -0.00215  -0.00291   2.36219
   R14        1.83644  -0.00075   0.00000  -0.00050  -0.00050   1.83594
   R15        1.84484  -0.00052   0.00000  -0.00229  -0.00229   1.84256
    A1        1.90096   0.00140   0.00000   0.00447   0.00386   1.90482
    A2        1.78586  -0.00035   0.00000   0.02963   0.03062   1.81648
    A3        2.59635  -0.00105   0.00000  -0.03388  -0.03488   2.56146
    A4        1.93040  -0.00098   0.00000  -0.00081  -0.00028   1.93012
    A5        2.07600   0.00073   0.00000  -0.01532  -0.01610   2.05990
    A6        2.27674   0.00025   0.00000   0.01603   0.01624   2.29297
    A7        1.81528   0.00031   0.00000   0.00029   0.00013   1.81541
    A8        2.12462  -0.00086   0.00000  -0.00273  -0.00265   2.12197
    A9        2.34329   0.00055   0.00000   0.00244   0.00252   2.34581
   A10        1.89520   0.00036   0.00000   0.00036   0.00022   1.89541
   A11        2.26613   0.00009   0.00000   0.00038   0.00046   2.26659
   A12        2.12186  -0.00045   0.00000  -0.00074  -0.00067   2.12119
   A13        1.88294  -0.00109   0.00000  -0.00430  -0.00392   1.87902
   A14        1.64956   0.00183   0.00000   0.04713   0.04392   1.69348
   A15        2.52896  -0.00262   0.00000  -0.11544  -0.11955   2.40941
   A16        2.10344   0.00075   0.00000   0.05933   0.04774   2.15118
   A17        2.00416  -0.00056   0.00000  -0.00177  -0.00123   2.00292
   A18        1.92933  -0.00214   0.00000  -0.01936  -0.02044   1.90889
   A19        2.34969   0.00270   0.00000   0.02113   0.02166   2.37135
   A20        1.98397  -0.00007   0.00000  -0.04257  -0.04015   1.94382
   A21        1.92755   0.00028   0.00000  -0.03108  -0.03110   1.89645
   A22        1.80651  -0.00286   0.00000   0.00563   0.00560   1.81211
   A23        1.93799   0.00177   0.00000   0.00159   0.00153   1.93952
    D1        0.00454   0.00005   0.00000   0.00003  -0.00123   0.00331
    D2       -3.12702   0.00014   0.00000   0.01003   0.00744  -3.11958
    D3        3.14103   0.00015   0.00000   0.02428   0.02643  -3.11572
    D4        0.00947   0.00025   0.00000   0.03428   0.03510   0.04457
    D5       -0.00450  -0.00004   0.00000  -0.00003   0.00141  -0.00310
    D6       -3.13648  -0.00024   0.00000  -0.04632  -0.04813   3.09857
    D7       -0.00858  -0.00034   0.00000  -0.04363  -0.04653  -0.05511
    D8       -3.08961   0.00043   0.00000   0.17296   0.16333  -2.92628
    D9        3.12370  -0.00014   0.00000   0.00114   0.00167   3.12537
   D10        0.04267   0.00064   0.00000   0.21774   0.21152   0.25419
   D11       -0.00258  -0.00003   0.00000  -0.00001   0.00052  -0.00206
   D12        3.14073  -0.00002   0.00000  -0.00001   0.00000   3.14074
   D13        3.12748  -0.00014   0.00000  -0.01176  -0.00994   3.11754
   D14       -0.01240  -0.00013   0.00000  -0.01176  -0.01046  -0.02285
   D15        3.13215  -0.00010   0.00000  -0.00360  -0.00235   3.12981
   D16       -0.00588   0.00002   0.00000  -0.00292   0.00029  -0.00559
   D17        0.00290   0.00003   0.00000   0.00887   0.00864   0.01154
   D18       -3.13513   0.00015   0.00000   0.00955   0.01128  -3.12385
   D19       -0.00019   0.00001   0.00000  -0.00001   0.00034   0.00015
   D20       -3.14133   0.00000   0.00000   0.00004  -0.00044   3.14142
   D21        3.13937  -0.00001   0.00000  -0.00002   0.00095   3.14031
   D22       -0.00178  -0.00002   0.00000   0.00003   0.00017  -0.00161
   D23        0.00291   0.00001   0.00000   0.00002  -0.00110   0.00181
   D24       -3.13909   0.00002   0.00000  -0.00003  -0.00040  -3.13949
   D25        0.00627   0.00040   0.00000   0.04763   0.05153   0.05780
   D26        3.10745  -0.00028   0.00000  -0.10486  -0.12326   2.98419
   D27        0.72243  -0.00060   0.00000  -0.16490  -0.16469   0.55774
   D28        2.79791   0.00001   0.00000  -0.17482  -0.17455   2.62336
   D29       -2.34906   0.00031   0.00000   0.08810   0.08783  -2.26124
   D30       -0.27358   0.00093   0.00000   0.07817   0.07796  -0.19562
   D31       -0.00187  -0.00030   0.00000  -0.03388  -0.03566  -0.03753
   D32       -3.13892  -0.00014   0.00000  -0.03291  -0.03212   3.11215
         Item               Value     Threshold  Converged?
 Maximum Force            0.010531     0.000450     NO 
 RMS     Force            0.001716     0.000300     NO 
 Maximum Displacement     0.459222     0.001800     NO 
 RMS     Displacement     0.091194     0.001200     NO 
 Predicted change in Energy=-2.077642D-03
 GradGradGradGradGradGradGradGradGradGradGradGradGradGradGradGradGradGrad

                          Input orientation:                          
 ---------------------------------------------------------------------
 Center     Atomic      Atomic             Coordinates (Angstroms)
 Number     Number       Type             X           Y           Z
 ---------------------------------------------------------------------
      1          7           0        0.017459   -0.970175   -0.056431
      2          7           0        0.504894    0.261632   -0.014006
      3          6           0        1.846778    0.237130    0.033282
      4          6           0        2.157340   -1.108168    0.019725
      5          7           0        1.001653   -1.818894   -0.034581
      6          1           0        2.427121    1.145090    0.071638
      7          1           0        3.118824   -1.595940    0.044865
      8          1           0       -1.651314   -0.747796   -0.153679
      9          6           0       -0.475449    1.413975   -0.000475
     10          8           0        0.033065    2.511950    0.051655
     11          8           0       -1.641929    0.966457   -0.040498
     12          1           0       -2.373115   -2.040151    0.587243
     13          8           0       -2.535305   -1.334381   -0.060420
     14          1           0       -3.200916   -0.702123    0.268079
 ---------------------------------------------------------------------
                    Distance matrix (angstroms):
                    1          2          3          4          5
     1  N    0.000000
     2  N    1.325421   0.000000
     3  C    2.193636   1.342940   0.000000
     4  C    2.145678   2.146641   1.380747   0.000000
     5  N    1.299785   2.139108   2.223977   1.357826   0.000000
     6  H    3.208928   2.117259   1.078268   2.269945   3.290660
     7  H    3.165488   3.207284   2.231229   1.078427   2.130360
     8  H    1.686331   2.384888   3.638912   3.829593   2.863507
     9  C    2.435213   1.512994   2.603621   3.645984   3.554496
    10  O    3.483837   2.300188   2.909415   4.197478   4.438672
    11  O    2.550366   2.259719   3.564889   4.329220   3.840149
    12  H    2.697037   3.733986   4.827047   4.660010   3.438704
    13  O    2.578617   3.433981   4.656294   4.698778   3.570083
    14  H    3.245781   3.839457   5.139702   5.379355   4.358941
                    6          7          8          9         10
     6  H    0.000000
     7  H    2.827087   0.000000
     8  H    4.501935   4.849019   0.000000
     9  C    2.915890   4.688331   2.465641   0.000000
    10  O    2.756847   5.137773   3.674948   1.211137   0.000000
    11  O    4.074512   5.407212   1.718011   1.250020   2.280931
    12  H    5.783933   5.536506   1.655338   3.984663   5.176696
    13  O    5.548954   5.661155   1.064997   3.435122   4.626376
    14  H    5.926684   6.386537   1.606621   3.460949   4.564619
                   11         12         13         14
    11  O    0.000000
    12  H    3.157275   0.000000
    13  O    2.468274   0.971537   0.000000
    14  H    2.304305   1.605440   0.975038   0.000000
 Stoichiometry    C3H5N3O3
 Framework group  C1[X(C3H5N3O3)]
 Deg. of freedom    36
 Full point group                 C1      NOp   1
 Largest Abelian subgroup         C1      NOp   1
 Largest concise Abelian subgroup C1      NOp   1
                         Standard orientation:                         
 ---------------------------------------------------------------------
 Center     Atomic      Atomic             Coordinates (Angstroms)
 Number     Number       Type             X           Y           Z
 ---------------------------------------------------------------------
      1          7           0        0.233276   -0.925557   -0.050557
      2          7           0        0.488976    0.374542   -0.017374
      3          6           0        1.813069    0.594435    0.026363
      4          6           0        2.362752   -0.672165    0.020572
      5          7           0        1.355265   -1.581283   -0.025985
      6          1           0        2.218936    1.592922    0.057296
      7          1           0        3.396866   -0.977054    0.046182
      8          1           0       -1.448282   -1.010567   -0.144619
      9          6           0       -0.684309    1.329776   -0.008523
     10          8           0       -0.383561    2.502165    0.035165
     11          8           0       -1.750185    0.677621   -0.042454
     12          1           0       -1.922240   -2.407434    0.606562
     13          8           0       -2.210905   -1.747272   -0.045161
     14          1           0       -2.979756   -1.244170    0.281116
 ---------------------------------------------------------------------
 Rotational constants (GHZ):           2.0472816           1.6561397           0.9175145
 Standard basis: 6-31+G(d,p) (6D, 7F)
 There are   196 symmetry adapted cartesian basis functions of A   symmetry.
 There are   196 symmetry adapted basis functions of A   symmetry.
   196 basis functions,   323 primitive gaussians,   196 cartesian basis functions
    34 alpha electrons       34 beta electrons
       nuclear repulsion energy       459.8683133292 Hartrees.
 NAtoms=   14 NActive=   14 NUniq=   14 SFac= 1.00D+00 NAtFMM=   60 NAOKFM=F Big=F
 Integral buffers will be    131072 words long.
 Raffenetti 2 integral format.
 Two-electron integral symmetry is turned on.
 One-electron integrals computed using PRISM.
 NBasis=   196 RedAO= T EigKep=  1.84D-05  NBF=   196
 NBsUse=   196 1.00D-06 EigRej= -1.00D+00 NBFU=   196
 Initial guess from the checkpoint file:  "/scratch/gongke2021/TS-H-cycle/Gau-15011.chk"
 B after Tr=    -0.000000   -0.000000   -0.000000
         Rot=    0.999807   -0.000281   -0.000881   -0.019601 Ang=  -2.25 deg.
 ExpMin= 4.38D-02 ExpMax= 5.48D+03 ExpMxC= 8.25D+02 IAcc=2 IRadAn=         4 AccDes= 0.00D+00
 Harris functional with IExCor= 1009 and IRadAn=       4 diagonalized for initial guess.
 HarFok:  IExCor= 1009 AccDes= 0.00D+00 IRadAn=         4 IDoV= 1 UseB2=F ITyADJ=14
 ICtDFT=  3500011 ScaDFX=  1.000000  1.000000  1.000000  1.000000
 FoFCou: FMM=F IPFlag=           0 FMFlag=      100000 FMFlg1=           0
         NFxFlg=           0 DoJE=T BraDBF=F KetDBF=T FulRan=T
         wScrn=  0.000000 ICntrl=       500 IOpCl=  0 I1Cent=   200000004 NGrid=           0
         NMat0=    1 NMatS0=      1 NMatT0=    0 NMatD0=    1 NMtDS0=    0 NMtDT0=    0
 Petite list used in FoFCou.
 Requested convergence on RMS density matrix=1.00D-08 within 128 cycles.
 Requested convergence on MAX density matrix=1.00D-06.
 Requested convergence on             energy=1.00D-06.
 No special actions if energy rises.
 SCF Done:  E(RM062X) =  -507.020970287     A.U. after   13 cycles
            NFock= 13  Conv=0.46D-08     -V/T= 2.0081
 Calling FoFJK, ICntrl=      2127 FMM=F ISym2X=0 I1Cent= 0 IOpClX= 0 NMat=1 NMatS=1 NMatT=0.
 ***** Axes restored to original set *****
 -------------------------------------------------------------------
 Center     Atomic                   Forces (Hartrees/Bohr)
 Number     Number              X              Y              Z
 -------------------------------------------------------------------
      1        7           0.004840719    0.001158921    0.000328356
      2        7           0.002841054   -0.000125550   -0.000082750
      3        6          -0.000509666    0.000142874    0.000068864
      4        6          -0.000637868   -0.000963510   -0.000012752
      5        7           0.000175124   -0.001423269   -0.000505395
      6        1          -0.000308824    0.000061993   -0.000022331
      7        1          -0.000101125   -0.000170276    0.000016099
      8        1           0.009972134    0.001524864    0.000308290
      9        6          -0.001312224    0.004888331    0.000344992
     10        8           0.000096646   -0.001586785   -0.000097980
     11        8          -0.003608148   -0.001708808   -0.000565199
     12        1           0.000434656    0.000555053   -0.000769263
     13        8          -0.012212653   -0.002164531    0.001278806
     14        1           0.000330175   -0.000189308   -0.000289738
 -------------------------------------------------------------------
 Cartesian Forces:  Max     0.012212653 RMS     0.002846181

 GradGradGradGradGradGradGradGradGradGradGradGradGradGradGradGradGradGrad
 Berny optimization.
 FormGI is forming the generalized inverse of G from B-inverse, IUseBI=4.
 Internal  Forces:  Max     0.010506186 RMS     0.001678069
 Search for a saddle point.
 Step number   4 out of a maximum of   80
 All quantities printed in internal units (Hartrees-Bohrs-Radians)
 Swapping is turned off.
 Update second derivatives using D2CorX and points    3    4
 ITU=  0  0  0  0
[...]
 ! D4    D(8,1,2,9)              2.122          -DE/DX =    0.0                 !
 ! D5    D(2,1,5,4)             -0.0373         -DE/DX =    0.0                 !
 ! D6    D(8,1,5,4)            176.9336         -DE/DX =    0.0                 !
 ! D7    D(2,1,8,11)            -2.3716         -DE/DX =    0.0                 !
 ! D8    D(2,1,8,13)          -172.2698         -DE/DX =    0.0                 !
 ! D9    D(5,1,8,11)          -179.4398         -DE/DX =    0.0                 !
 ! D10   D(5,1,8,13)            10.6621         -DE/DX =    0.0                 !
 ! D11   D(1,2,3,4)             -0.0325         -DE/DX =    0.0                 !
 ! D12   D(1,2,3,6)            179.9204         -DE/DX =    0.0                 !
 ! D13   D(9,2,3,4)            179.4751         -DE/DX =    0.0                 !
 ! D14   D(9,2,3,6)             -0.5721         -DE/DX =    0.0                 !
 ! D15   D(1,2,9,10)           179.0432         -DE/DX =    0.0                 !
 ! D16   D(1,2,9,11)            -0.7677         -DE/DX =    0.0                 !
 ! D17   D(3,2,9,10)            -0.4374         -DE/DX =    0.0                 !
 ! D18   D(3,2,9,11)           179.7517         -DE/DX =    0.0                 !
 ! D19   D(2,3,4,5)              0.0095         -DE/DX =    0.0                 !
 ! D20   D(2,3,4,7)            179.9562         -DE/DX =    0.0                 !
 ! D21   D(6,3,4,5)           -179.9343         -DE/DX =    0.0                 !
 ! D22   D(6,3,4,7)              0.0124         -DE/DX =    0.0                 !
 ! D23   D(3,4,5,1)              0.0168         -DE/DX =    0.0                 !
 ! D24   D(7,4,5,1)           -179.9352         -DE/DX =    0.0                 !
 ! D25   D(1,8,11,9)             2.1795         -DE/DX =    0.0                 !
 ! D26   D(13,8,11,9)          174.5977         -DE/DX =    0.0                 !
 ! D27   D(1,8,13,12)           35.2898         -DE/DX =    0.0                 !
 ! D28   D(1,8,13,14)          154.0179         -DE/DX =    0.0                 !
 ! D29   D(11,8,13,12)        -133.0491         -DE/DX =    0.0                 !
 ! D30   D(11,8,13,14)         -14.321          -DE/DX =    0.0                 !
 ! D31   D(2,9,11,8)            -1.1423         -DE/DX =    0.0                 !
 ! D32   D(10,9,11,8)          179.105          -DE/DX =    0.0                 !
 --------------------------------------------------------------------------------
 GradGradGradGradGradGradGradGradGradGradGradGradGradGradGradGradGradGrad


 ----------------------------------------------------------------------

 Electric dipole moment (input orientation):
 (Debye = 10**-18 statcoulomb cm , SI units = C m)
                  (au)            (Debye)         (10**-30 SI)
   Tot        0.227832D+01      0.579091D+01      0.193164D+02
   x         -0.941364D+00     -0.239271D+01     -0.798121D+01
   y         -0.197461D+01     -0.501897D+01     -0.167415D+02
   z          0.636766D+00      0.161850D+01      0.539873D+01

 Dipole polarizability, Alpha (input orientation).
 (esu units = cm**3 , SI units = C**2 m**2 J**-1)
 Alpha(0;0):
               (au)            (10**-24 esu)      (10**-40 SI)
   iso        0.690334D+02      0.102297D+02      0.113821D+02
   aniso      0.420331D+02      0.622866D+01      0.693032D+01
   xx         0.840874D+02      0.124605D+02      0.138641D+02
   yx        -0.204472D+00     -0.302996D-01     -0.337128D-01
   yy         0.819739D+02      0.121473D+02      0.135157D+02
   zx         0.271621D-01      0.402500D-02      0.447842D-02
   zy         0.596254D-01      0.883557D-02      0.983090D-02
   zz         0.410391D+02      0.608136D+01      0.676643D+01

 ----------------------------------------------------------------------

 Dipole orientation:
     7          0.56555370         -0.83776903          1.54793823
     7          0.71822846         -0.07680037         -0.83281090
     6          2.94738822         -0.75388648         -1.83835611
     6          4.16796266         -1.99508806          0.10845084
     7          2.63447394         -2.00557812          2.16529139
     1          3.42811446         -0.30501155         -3.76669968
     1          6.01196458         -2.86173145          0.15217218
     1         -2.35933761          0.10138530          2.41466179
     6         -1.52809374          1.35530941         -1.90618931
     8         -1.28934927          2.04030827         -4.07097637
     8         -3.19974043          1.52292343         -0.23691852
     1         -2.52322554          0.63061511          5.58287542
     8         -3.55785832          0.22291685          4.12638741
     1         -4.71914328          1.59283564          3.72771327

 Electric dipole moment (dipole orientation):
 (Debye = 10**-18 statcoulomb cm , SI units = C m)
                  (au)            (Debye)         (10**-30 SI)
   Tot        0.227832D+01      0.579091D+01      0.193164D+02
   x          0.000000D+00      0.000000D+00      0.000000D+00
   y          0.000000D+00      0.000000D+00      0.000000D+00
   z          0.227832D+01      0.579091D+01      0.193164D+02

 Dipole polarizability, Alpha (dipole orientation).
 (esu units = cm**3 , SI units = C**2 m**2 J**-1)
 Alpha(0;0):
               (au)            (10**-24 esu)      (10**-40 SI)
   iso        0.690334D+02      0.102297D+02      0.113821D+02
   aniso      0.420331D+02      0.622866D+01      0.693032D+01
   xx         0.766774D+02      0.113624D+02      0.126424D+02
   yx        -0.152478D+02     -0.225949D+01     -0.251402D+01
   yy         0.514674D+02      0.762668D+01      0.848582D+01
   zx        -0.537806D+01     -0.796946D+00     -0.886722D+00
   zy        -0.973581D+01     -0.144270D+01     -0.160522D+01
   zz         0.789555D+02      0.117000D+02      0.130180D+02

 ----------------------------------------------------------------------
 1\1\GINC-NODE4\Freq\RM062X\6-31+G(d,p)\C3H5N3O3\GONGKE2021\10-Jul-2023
 \0\\#N Geom=AllCheck Guess=TCheck SCRF=Check GenChk RM062X/6-31+G(d,p)
  Freq\\test\\0,1\N,0.0449728053,-0.9767619424,-0.0316359099\N,0.522824
 3354,0.2588017927,-0.0013570198\C,1.8651904742,0.2418802078,0.02678643
 99\C,2.1830756124,-1.1029833592,0.0123323917\N,1.0316951621,-1.8214981
 258,-0.0235663736\H,2.4407825132,1.1531728757,0.0525656826\H,3.1474755
 126,-1.5855122237,0.0245100655\H,-1.6248959587,-0.7358653915,-0.112236
 6294\C,-0.4846852964,1.3967138556,0.0055571844\O,-0.0033326522,2.50388
 20167,0.0517530767\O,-1.6410582059,0.9153319093,-0.0361856698\H,-2.471
 1535978,-2.049011533,0.5632307247\O,-2.5667650664,-1.3168611944,-0.065
 3878832\H,-3.2150206379,-0.6626838879,0.2500319201\\Version=ES64L-G16R
 evA.03\State=1-A\HF=-507.021665\RMSD=1.464e-09\RMSF=1.322e-05\ZeroPoin
 t=0.0966077\Thermal=0.1048781\Dipole=-0.9413637,-1.9746149,0.6367659\D
 ipoleDeriv=-0.8806845,-0.1466811,0.0029858,-0.0710385,0.2543875,0.0065
 173,-0.0099054,0.0160207,-0.1108133,-0.5001187,0.6330337,0.0034002,0.7
 017392,-0.9299858,-0.0099027,0.0058679,-0.0090946,0.0182548,0.0572572,
 -0.3029146,0.0001528,0.0543546,0.1588568,0.002039,0.0030554,-0.0046305
 ,-0.0375437,0.0573099,-0.0918065,0.0051228,-0.18321,-0.1022975,-0.0003
 399,-0.0010815,-0.0005921,-0.1099702,-0.0376488,0.3516954,0.0116568,0.
 0376232,-0.4108754,0.0028041,0.0022185,0.009787,-0.2369577,0.1320755,0
 .0094292,-0.0010563,-0.0199678,0.1145598,-0.0018896,-0.0015568,-0.0009
 544,0.1901605,0.0180375,0.0268686,-0.0024833,0.0469019,0.0786699,-0.00
 01209,-0.0018855,-0.0008454,0.1724579,1.597604,0.4078659,-0.0356535,0.
 485803,1.0021693,-0.0118592,-0.0356495,-0.0213247,0.2727945,2.3464785,
 0.0146745,0.0313785,-0.1895757,2.5595066,0.0478181,0.0471509,0.0645593
 ,0.3791247,-0.7750066,-0.2636809,-0.0095676,-0.1220027,-1.5677926,-0.0
 259158,-0.0143292,-0.0439351,-0.424006,-1.671022,-0.2635081,-0.0130868
 ,-0.3747414,-1.2295354,0.0005089,-0.021878,-0.0232659,-0.4662025,0.383
 684,0.0343142,-0.0063662,0.0805372,0.4368389,-0.0171663,-0.0048733,-0.
 0117055,0.3452288,-1.2374694,-0.4128722,-0.0003952,-0.4580734,-0.76518
 76,0.0037409,0.0076898,0.0099472,-0.3292502,0.5095035,0.003582,0.01391
 2,0.0116503,0.4006857,0.0037661,0.0251767,0.016034,0.3367223\Polar=84.
 0873585,-0.2044715,81.9738512,0.0271621,0.0596254,41.039061\Quadrupole
 =13.4989091,-11.0446173,-2.4542918,8.7595166,-3.5348872,-2.447013\PG=C
 01 [X(C3H5N3O3)]\NImag=1\\0.68341624,-0.02878179,0.55255790,0.01033832
 ,0.00764570,0.12540955,-0.16291823,-0.12130138,-0.00380958,0.79208775,
 -0.06059579,-0.24695534,-0.00447838,-0.02599253,0.69007112,-0.00243911
 ,-0.00493139,-0.07946921,0.01365633,0.01017338,0.12031977,-0.08846320,
 -0.06756584,-0.00281641,-0.35722646,0.00133697,-0.00621455,0.70184369,
 -0.01266586,-0.04548257,-0.00151583,-0.00409904,-0.12458634,-0.0012110
 7,0.14790234,0.85973188,-0.00252266,-0.00246305,0.01684749,-0.00614772
 ,-0.00090831,-0.06619122,0.01407476,0.01455355,0.13327918,-0.13038418,
 0.04866676,-0.00221441,-0.03691168,0.01202912,-0.00070945,-0.13386080,
 0.08220040,-0.00004279,0.83453141,-0.03181676,0.01080890,-0.00019753,0
 .11924753,-0.02592234,0.00201773,0.03952530,-0.35400719,-0.00381439,-0
 .16393728,0.68050443,-0.00353919,0.00069305,0.02086796,0.00070220,-0.0
 0030609,0.01076146,-0.00059729,-0.00278917,-0.06961227,0.01197121,0.00
 521230,0.13637153,-0.27331191,0.17777632,-0.00234204,-0.04753853,0.072
 69556,-0.00073469,0.02617612,-0.09551969,-0.00119463,-0.23993557,-0.09
 273477,-0.00494862,0.54451840,0.10316551,-0.21527482,0.00012256,0.0200
 3498,-0.14237342,-0.00234324,-0.00332099,-0.05553356,-0.00127856,-0.09
 518521,-0.18676389,-0.00367480,-0.03480739,0.58814872,-0.00268763,0.00
 163638,-0.09040658,-0.00119436,-0.00099245,0.02875805,-0.00010173,-0.0
 0300068,0.01951433,-0.00542525,-0.00401334,-0.07264966,0.00908635,0.00
 659889,0.11411235,-0.00649691,0.00123012,-0.00025879,-0.01231936,-0.03
 060051,-0.00065321,-0.14383209,-0.13636022,-0.00451012,0.01240246,0.00
 602151,0.00035000,0.00064171,0.00551355,-0.00003404,0.14831195,0.00504
 606,0.00061161,-0.00001818,0.00261962,0.00843680,0.00020914,-0.1480315
 7,-0.28813508,-0.00699775,-0.01400017,-0.00349545,-0.00034220,-0.00112
 465,-0.00422881,-0.00016460,0.15601897,0.28734926,-0.00022658,-0.00007
 949,0.00748009,-0.00020845,-0.00050707,-0.00292718,-0.00458761,-0.0067
 4150,-0.03138887,0.00002259,0.00006579,0.00007634,-0.00008934,-0.00007
 483,0.00619843,0.00505154,0.00725626,0.02428946,-0.00427873,-0.0023035
 5,-0.00033295,0.00041892,-0.00243527,-0.00016287,0.00416825,-0.0025983
 2,0.00006185,-0.30201655,0.12675436,-0.00355404,-0.01793452,0.01328139
 ,-0.00001044,-0.00043025,0.00045877,0.00003508,0.31946085,-0.00730093,
 -0.00047602,-0.00033277,0.00193292,-0.00733183,-0.00020220,0.02260013,
 -0.00028677,0.00048057,0.13273740,-0.12647126,0.00122957,-0.01669507,0
 .01378305,-0.00001025,-0.00041795,-0.00015548,0.00001762,-0.13376132,0
 .11937430,-0.00029922,-0.00028561,0.00868633,-0.00008002,-0.00023052,0
 .00665151,0.00045287,-0.00005274,-0.00076366,-0.00335760,0.00114047,-0
 .03063116,-0.00062212,0.00062777,-0.00739786,0.00002540,0.00003559,-0.
 00193902,0.00393454,-0.00124995,0.02443716,0.01002066,-0.03254574,0.00
 320576,-0.01026547,-0.00132157,-0.00021310,0.00928595,-0.00055379,0.00
 002070,0.00791565,0.00414343,-0.00015951,0.00605601,0.01010217,0.00119
 057,0.00048917,-0.00039858,-0.00008762,0.00109964,0.00105621,-0.000082
 22,0.08569036,-0.01045564,-0.00090574,-0.00048022,0.00415874,-0.004364
 30,-0.00011994,-0.00669323,-0.00247196,-0.00020084,-0.00171645,-0.0046
 5366,-0.00014637,0.00539167,-0.00400572,0.00019662,-0.00086145,0.00039
 020,0.00001802,-0.00022348,-0.00039541,-0.00000763,0.04890828,0.009730
 95,-0.00025444,-0.00057798,-0.01225383,0.00007941,0.00008635,-0.000296
 65,-0.00008837,0.00010804,0.00094014,0.00006593,-0.00027363,0.00200478
 ,0.00081233,0.00025031,-0.00410292,0.00001405,0.00000244,0.00031290,0.
 00002877,0.00001618,0.00050635,-0.01018442,-0.01042252,0.06188041,0.00
 753664,0.03550779,0.00050005,-0.08315526,-0.00791981,-0.00066088,-0.02
 662475,0.01564571,-0.00008680,-0.01003489,-0.01325231,-0.00042431,0.01
 508899,-0.02802523,-0.00021873,-0.00119048,-0.00009263,-0.00000260,-0.
 00025121,-0.00103737,-0.00003468,0.01420892,-0.05925434,0.00004005,0.7
 4004546,0.01341173,-0.04297425,-0.00026306,-0.02000727,-0.06742326,-0.
 00074772,0.01765450,0.01473409,0.00073300,-0.00597750,0.01152020,-0.00
 008121,-0.01764698,0.00721647,-0.00045073,-0.00322389,0.00106853,0.000
 03770,0.00000253,0.00205019,-0.00001655,-0.01595385,-0.00540129,-0.000
 44774,0.41423492,0.87448878,0.00022560,0.00023826,-0.00946593,-0.00083
 414,-0.00057040,-0.05252230,-0.00005786,0.00083715,-0.00614921,-0.0004
 7389,-0.00008680,0.00375206,-0.00017188,-0.00042843,0.00656330,-0.0000
 9607,0.00005495,-0.00149602,-0.00003886,0.00001064,0.00156790,-0.00007
 393,-0.00098575,-0.00114459,0.02416328,0.02983614,0.22063689,0.0004772
 1,-0.00377359,0.00002789,0.01591214,0.02176935,0.00054573,0.00049892,-
 0.00162463,0.00000824,0.00301723,-0.00017776,0.00007216,0.00012722,0.0
 0559432,0.00010085,0.00172721,-0.00011821,0.00001435,0.00011722,0.0000
 6241,0.00000113,-0.00408325,0.01660835,-0.00003011,-0.19567329,-0.2257
 1601,-0.00968972,0.21764955,0.01431825,0.00380183,0.00021805,0.0065439
 1,-0.08721601,-0.00280013,-0.00772477,-0.00123449,-0.00017141,-0.00024
 158,-0.00381421,-0.00005060,0.00534939,-0.00860523,0.00013166,0.001287
 84,-0.00116364,-0.00000409,0.00022713,-0.00037914,0.00000326,0.0031570
 1,0.00946528,-0.00004573,-0.23666497,-0.62588674,-0.02277413,0.2764231
 0,0.75521083,0.00050016,-0.00011068,0.00339749,0.00006131,-0.00262292,
 0.01768514,-0.00018979,-0.00008647,0.00042221,0.00006863,-0.00010515,0
 .00018834,0.00016929,-0.00014457,-0.00174929,0.00008404,-0.00001228,-0
 .00058672,0.00001375,-0.00000899,-0.00018618,-0.00007210,0.00034455,0.
 00184652,-0.00990043,-0.02212588,-0.08333657,0.01301888,0.02879401,0.0
 3568537,-0.00135411,-0.01158653,-0.00022458,-0.09320283,0.02212285,-0.
 00206854,0.01145604,0.00797175,0.00025345,-0.00118912,0.00693349,0.000
 09121,-0.00850732,0.00740923,-0.00010782,0.00099535,-0.00052452,0.0000
 0129,0.00011245,0.00128703,0.00004207,-0.02306156,0.02163032,-0.000210
 14,-0.46211494,-0.15697816,-0.01269950,-0.03862316,-0.06098157,-0.0037
 6245,0.61751753,0.01761817,-0.02259404,0.00021282,0.01938673,0.0084520
 7,0.00004113,0.00401745,-0.00313608,-0.00001391,0.00544930,0.00163394,
 0.00012359,0.00039200,0.00804497,0.00029523,0.00121283,-0.00059015,-0.
 00001204,0.00061166,0.00032889,0.00002122,0.00680782,0.04884972,0.0004
 1896,-0.13463916,-0.16364632,-0.00624530,-0.08322320,-0.03716038,-0.00
 369278,0.19013367,0.21221270,0.00049060,-0.00100466,0.00377372,-0.0018
 5092,0.00022942,0.01653513,0.00024792,0.00000144,0.00331172,0.00013737
 ,0.00017708,-0.00071152,-0.00015726,0.00029446,0.00067536,0.00004552,-
 0.00002664,0.00004059,0.00003828,0.00004402,-0.00085328,0.00121898,0.0
 0506786,-0.01516467,-0.01334045,-0.00722484,-0.07969234,-0.00399944,-0
 .00295068,0.02729964,0.01874606,0.00740953,0.03955200,-0.00038234,0.00
 114399,-0.00144581,-0.00040196,0.00026861,-0.00032381,0.00114019,0.000
 35851,0.00018355,0.00010139,0.00095723,0.00013233,-0.00159497,0.000580
 89,-0.00030233,0.00008835,-0.00006580,0.00007639,0.00003642,0.00002860
 ,0.00003975,0.01659723,-0.01218930,0.01871636,0.00436589,-0.00195486,-
 0.00007221,-0.00124161,0.00013312,0.00011839,-0.00374947,-0.00471126,-
 0.00139035,0.04792888,0.00175001,0.00007791,-0.00101808,0.00013846,-0.
 00102735,-0.00004416,0.00044187,-0.00019283,0.00004542,0.00075642,0.00
 028769,0.00011702,-0.00004908,0.00026691,0.00002196,0.00001976,-0.0000
 4176,0.00003180,0.00008158,0.00005425,0.00001984,-0.00241903,-0.010367
 05,0.01025225,-0.00204108,-0.00191402,-0.00028078,0.00050425,0.0008017
 7,0.00011236,-0.00022902,0.00075436,-0.00073126,-0.04527533,0.32165798
 ,-0.00033418,0.00010987,-0.00056491,-0.00046158,0.00003475,-0.00004135
 ,-0.00019929,-0.00010483,0.00007340,-0.00011627,-0.00009415,0.00002796
 ,-0.00007851,-0.00003260,-0.00025746,-0.00002061,0.00000603,0.00005772
 ,-0.00002906,-0.00000778,0.00003575,0.00186143,0.00123757,-0.00129539,
 0.00060504,0.00039366,0.00031743,-0.00036330,-0.00043455,-0.00012076,-
 0.00120171,-0.00271305,-0.00023277,0.01945320,-0.24857519,0.22847567,-
 0.03202497,0.00444646,-0.00007457,-0.00483860,-0.00073770,0.00003028,-
 0.00424775,-0.00040377,-0.00013513,-0.00356279,-0.00161501,-0.00014851
 ,-0.00389050,-0.00408482,-0.00018944,-0.00028800,0.00019315,-0.0000170
 5,-0.00049732,-0.00044817,-0.00003698,-0.09360132,-0.02169784,-0.02104
 266,0.00453386,0.00327686,0.00038541,-0.00233811,-0.00414969,-0.000416
 27,-0.00392650,-0.02751046,0.00087514,-0.06418210,0.04926200,-0.020382
 15,0.44540889,-0.00065201,0.00551313,0.00040087,-0.00455180,0.00157050
 ,-0.00008801,0.00135863,0.00089930,0.00003333,-0.00038375,0.00126103,0
 .00000471,-0.00374645,0.00042434,-0.00018577,0.00029569,-0.00012335,-0
 .00001706,-0.00004665,0.00000933,-0.00000310,-0.02117769,-0.05699695,-
 0.00265605,0.02456405,-0.00302751,0.00098640,-0.00831725,-0.00503957,-
 0.00047399,-0.03264979,-0.05039895,-0.00112008,0.04239255,-0.29652160,
 0.26569737,-0.19800170,0.65703225,0.00106633,-0.00080250,0.00516904,0.
 00042605,0.00013417,0.00052871,0.00002111,0.00001825,-0.00029115,0.000
 02877,-0.00010091,-0.00046447,0.00029884,0.00002511,0.00092369,-0.0000
 0057,0.00000156,-0.00012171,0.00001999,0.00000608,-0.00011739,0.002634
 32,0.00809516,-0.03461262,-0.00104924,0.00054504,0.00143864,0.00058919
 ,0.00027480,-0.00061874,0.00189408,0.00441169,0.00776565,-0.01154169,0
 .22095185,-0.23677773,-0.09661805,-0.15851435,0.34645114,-0.00183618,-
 0.00091303,-0.00055288,0.00035956,-0.00061928,-0.00005214,-0.00031410,
 -0.00025340,0.00003729,-0.00007256,-0.00004897,0.00005235,0.00010489,-
 0.00025841,-0.00010600,-0.00009912,0.00001956,0.00001801,-0.00000518,-
 0.00004387,0.00001708,-0.02035199,0.01639437,0.01205326,-0.00673495,-0
 .00112202,-0.00056621,0.00243273,0.00232284,0.00030658,0.00564764,0.00
 445445,-0.00106144,0.00129411,-0.00294081,0.00126700,-0.23654479,0.200
 91617,0.10223087,0.25611996,-0.00304097,0.00129152,-0.00029593,0.00188
 912,-0.00133030,0.00004648,-0.00150078,-0.00029841,0.00000235,-0.00039
 745,-0.00088821,0.00001021,0.00071916,-0.00109901,-0.00006293,-0.00013
 627,0.00007733,0.00000891,-0.00004882,-0.00010411,-0.00000205,0.000195
 33,0.02112592,0.00328913,-0.00702557,-0.00080488,-0.00059195,0.0019888
 6,0.00121970,0.00013278,0.00546124,-0.00275074,-0.00016566,0.01833304,
 -0.01383625,-0.01551709,0.20147071,-0.25460194,-0.07504593,-0.21790758
 ,0.25199937,-0.00031799,-0.00006789,0.00052878,-0.00033855,-0.00004192
 ,0.00020815,0.00005624,-0.00001615,0.00000790,0.00004516,0.00007253,0.
 00001863,-0.00002771,0.00005794,-0.00018173,0.00000287,-0.00000430,0.0
 0000399,-0.00000404,0.00000727,0.00000354,0.00074116,-0.00259650,0.001
 37955,0.00040970,-0.00018781,-0.00046928,-0.00029585,-0.00019046,0.000
 07356,-0.00075342,-0.00025708,-0.00229923,-0.02364376,0.01909695,0.010
 30243,0.13776999,-0.10406424,-0.08927305,-0.11364378,0.08819167,0.0796
 9676\\-0.00000837,0.00000858,-0.00001717,0.00001325,-0.00000927,-0.000
 00273,0.00000240,-0.00000427,0.00000458,-0.00000025,-0.00000577,0.0000
 0224,-0.00000621,-0.00000582,0.00000437,0.00000313,-0.00000552,0.00000
 095,-0.00000274,-0.00000690,0.00000058,-0.00002346,-0.00003856,0.00001
 017,-0.00000407,0.00001101,0.00000527,0.00000535,-0.00000185,0.0000021
 0,-0.00001045,-0.00000246,-0.00000195,-0.00000440,0.00000771,0.0000005
 2,0.00003990,0.00004602,-0.00000627,-0.00000408,0.00000708,-0.00000267
 \\\@


 Change starts when someone sees the next step.
                            -- William Drayton
 Job cpu time:       0 days  0 hours 20 minutes 19.1 seconds.
 Elapsed time:       0 days  0 hours  0 minutes 51.3 seconds.
 File lengths (MBytes):  RWF=     66 Int=      0 D2E=      0 Chk=      4 Scr=      1
 Normal termination of Gaussian 16 at Mon Jul 10 23:44:04 2023.
