 Entering Gaussian System, Link 0=/opt/soft/g16b/g16/g16
 Initial command:
 /opt/soft/g16b/g16/l1.exe "/scratch/gongke2021/RC/Gau-15002.inp" -scrdir="/scratch/gongke2021/RC/"
 Entering Link 1 = /opt/soft/g16b/g16/l1.exe PID=     15003.
  
 Copyright (c) 1988,1990,1992,1993,1995,1998,2003,2009,2016,
            Gaussian, Inc.  All Rights Reserved.
  
 This is part of the Gaussian(R) 16 program.  It is based on
 the Gaussian(R) 09 system (copyright 2009, Gaussian, Inc.),
 the Gaussian(R) 03 system (copyright 2003, Gaussian, Inc.),
 the Gaussian(R) 98 system (copyright 1998, Gaussian, Inc.),
 the Gaussian(R) 94 system (copyright 1995, Gaussian, Inc.),
 the Gaussian 92(TM) system (copyright 1992, Gaussian, Inc.),
 the Gaussian 90(TM) system (copyright 1990, Gaussian, Inc.),
 the Gaussian 88(TM) system (copyright 1988, Gaussian, Inc.),
 the Gaussian 86(TM) system (copyright 1986, Carnegie Mellon
 University), and the Gaussian 82(TM) system (copyright 1983,
 Carnegie Mellon University). Gaussian is a federally registered
 trademark of Gaussian, Inc.
  
 This software contains proprietary and confidential information,
 including trade secrets, belonging to Gaussian, Inc.
  
 This software is provided under written license and may be
 used, copied, transmitted, or stored only in accord with that
 written license.
  
 The following legend is applicable only to US Government
 contracts under FAR:
  
                    RESTRICTED RIGHTS LEGEND
  
 Use, reproduction and disclosure by the US Government is
 subject to restrictions as set forth in subparagraphs (a)
 and (c) of the Commercial Computer Software - Restricted
 Rights clause in FAR 52.227-19.
  
 Gaussian, Inc.
 340 Quinnipiac St., Bldg. 40, Wallingford CT 06492
  
  
 ---------------------------------------------------------------
 Warning -- This program may not be used in any manner that
 competes with the business of Gaussian, Inc. or will provide
 assistance to any competitor of Gaussian, Inc.  The licensee
 of this program is prohibited from giving any competitor of
 Gaussian, Inc. access to this program.  By using this program,
 the user acknowledges that Gaussian, Inc. is engaged in the
 business of creating and licensing software in the field of
 computational chemistry and represents and warrants to the
 licensee that it is not a competitor of Gaussian, Inc. and that
 it will not use this program in any manner prohibited above.
 ---------------------------------------------------------------
  

 Cite this work as:
 Gaussian 16, Revision A.03,
 M. J. Frisch, G. W. Trucks, H. B. Schlegel, G. E. Scuseria, 
 M. A. Robb, J. R. Cheeseman, G. Scalmani, V. Barone, 
 G. A. Petersson, H. Nakatsuji, X. Li, M. Caricato, A. V. Marenich, 
 J. Bloino, B. G. Janesko, R. Gomperts, B. Mennucci, H. P. Hratchian, 
 J. V. Ortiz, A. F. Izmaylov, J. L. Sonnenberg, D. Williams-Young, 
 F. Ding, F. Lipparini, F. Egidi, J. Goings, B. Peng, A. Petrone, 
 T. Henderson, D. Ranasinghe, V. G. Zakrzewski, J. Gao, N. Rega, 
 G. Zheng, W. Liang, M. Hada, M. Ehara, K. Toyota, R. Fukuda, 
 J. Hasegawa, M. Ishida, T. Nakajima, Y. Honda, O. Kitao, H. Nakai, 
 T. Vreven, K. Throssell, J. A. Montgomery, Jr., J. E. Peralta, 
 F. Ogliaro, M. J. Bearpark, J. J. Heyd, E. N. Brothers, K. N. Kudin, 
 V. N. Staroverov, T. A. Keith, R. Kobayashi, J. Normand, 
 K. Raghavachari, A. P. Rendell, J. C. Burant, S. S. Iyengar, 
 J. Tomasi, M. Cossi, J. M. Millam, M. Klene, C. Adamo, R. Cammi, 
 J. W. Ochterski, R. L. Martin, K. Morokuma, O. Farkas, 
 J. B. Foresman, and D. J. Fox, Gaussian, Inc., Wallingford CT, 2016.
 
 ******************************************
 Gaussian 16:  ES64L-G16RevA.03 25-Dec-2016
                 4-Jun-2023 
 ******************************************
 %mem=10GB
 %nprocshared=24
 Will use up to   24 processors via shared memory.
 ----------------------------
 # opt freq 6-31+g(d,p) m062x
 ----------------------------
 1/18=20,19=15,26=3,38=1/1,3;
 2/9=110,12=2,17=6,18=5,40=1/2;
 3/5=1,6=6,7=111,11=2,25=1,30=1,71=1,74=-55/1,2,3;
 4//1;
 5/5=2,38=5/2;
 6/7=2,8=2,9=2,10=2,28=1/1;
 7//1,2,3,16;
 1/18=20,19=15,26=3/3(2);
 2/9=110/2;
 99//99;
 2/9=110/2;
 3/5=1,6=6,7=111,11=2,25=1,30=1,71=1,74=-55/1,2,3;
 4/5=5,16=3,69=1/1;
 5/5=2,38=5/2;
 7//1,2,3,16;
 1/18=20,19=15,26=3/3(-5);
 2/9=110/2;
 6/7=2,8=2,9=2,10=2,19=2,28=1/1;
 99/9=1/99;
 ----
 test
 ----
 Symbolic Z-matrix:
 Charge = -1 Multiplicity = 2
 N                     1.04473  -1.08903   0.00915 
 N                     0.87863   0.2199   -0.00497 
 C                     2.12211   0.70184   0.03811 
 C                     3.00689  -0.38472   0.07603 
 N                     2.28947  -1.50845   0.0556 
 H                     2.3073    1.76491   0.03805 
 H                     4.08452  -0.41017   0.11518 
 H                     0.24809  -1.73964  -0.02594 
 C                     0.03468   1.34499   0.10947 
 O                     0.68742   2.48219  -0.00169 
 O                    -1.21678   1.15225   0.08425 
 H                    -2.04148  -2.2046   -0.04879 
 O                    -1.22606  -2.73896  -0.11193 
 H                    -1.35656  -3.38011  -0.81643 
 H                    -2.35828   0.11498   0.04594 
 O                    -2.77215  -0.7554    0.12265 
 H                    -3.33695  -0.72301   0.90102 
 
 Add virtual bond connecting atoms H15        and O11        Dist= 2.92D+00.
 Add virtual bond connecting atoms H8         and O13        Dist= 3.37D+00.
 Add virtual bond connecting atoms O16        and H12        Dist= 3.08D+00.

 GradGradGradGradGradGradGradGradGradGradGradGradGradGradGradGradGradGrad
 Berny optimization.
 Initialization pass.
                           ----------------------------
                           !    Initial Parameters    !
                           ! (Angstroms and Degrees)  !
 --------------------------                            --------------------------
 ! Name  Definition              Value          Derivative Info.                !
 --------------------------------------------------------------------------------
 ! R1    R(1,2)                  1.3195         estimate D2E/DX2                !
 ! R2    R(1,5)                  1.3143         estimate D2E/DX2                !
 ! R3    R(1,8)                  1.0292         estimate D2E/DX2                !
 ! R4    R(2,3)                  1.3343         estimate D2E/DX2                !
 ! R5    R(2,9)                  1.4111         estimate D2E/DX2                !
 ! R6    R(3,4)                  1.4017         estimate D2E/DX2                !
 ! R7    R(3,6)                  1.0791         estimate D2E/DX2                !
 ! R8    R(4,5)                  1.3334         estimate D2E/DX2                !
 ! R9    R(4,7)                  1.0786         estimate D2E/DX2                !
 ! R10   R(8,13)                 1.783          estimate D2E/DX2                !
 ! R11   R(9,10)                 1.3159         estimate D2E/DX2                !
 ! R12   R(9,11)                 1.2665         estimate D2E/DX2                !
 ! R13   R(11,15)                1.5429         estimate D2E/DX2                !
 ! R14   R(12,13)                0.977          estimate D2E/DX2                !
 ! R15   R(12,16)                1.632          estimate D2E/DX2                !
 ! R16   R(13,14)                0.9615         estimate D2E/DX2                !
 ! R17   R(15,16)                0.9668         estimate D2E/DX2                !
 ! R18   R(16,17)                0.9622         estimate D2E/DX2                !
 ! A1    A(2,1,5)              115.8586         estimate D2E/DX2                !
 ! A2    A(2,1,8)              121.9589         estimate D2E/DX2                !
 ! A3    A(5,1,8)              122.1782         estimate D2E/DX2                !
 ! A4    A(1,2,3)              103.9244         estimate D2E/DX2                !
 ! A5    A(1,2,9)              149.9226         estimate D2E/DX2                !
 ! A6    A(3,2,9)              105.4723         estimate D2E/DX2                !
 ! A7    A(2,3,4)              108.0067         estimate D2E/DX2                !
 ! A8    A(2,3,6)              121.0489         estimate D2E/DX2                !
 ! A9    A(4,3,6)              130.9443         estimate D2E/DX2                !
 ! A10   A(3,4,5)              108.2553         estimate D2E/DX2                !
 ! A11   A(3,4,7)              130.532          estimate D2E/DX2                !
 ! A12   A(5,4,7)              121.2128         estimate D2E/DX2                !
 ! A13   A(1,5,4)              103.9549         estimate D2E/DX2                !
 ! A14   A(2,9,10)             112.6752         estimate D2E/DX2                !
 ! A15   A(2,9,11)             117.9072         estimate D2E/DX2                !
 ! A16   A(10,9,11)            128.3157         estimate D2E/DX2                !
 ! A17   A(9,11,15)            146.502          estimate D2E/DX2                !
 ! A18   A(13,12,16)           150.0168         estimate D2E/DX2                !
 ! A19   A(8,13,12)            112.3585         estimate D2E/DX2                !
 ! A20   A(8,13,14)            121.4191         estimate D2E/DX2                !
 ! A21   A(12,13,14)           107.3861         estimate D2E/DX2                !
 ! A22   A(11,15,16)           156.9249         estimate D2E/DX2                !
 ! A23   A(12,16,15)           126.8282         estimate D2E/DX2                !
 ! A24   A(12,16,17)           112.1883         estimate D2E/DX2                !
 ! A25   A(15,16,17)           106.5673         estimate D2E/DX2                !
 ! A26   L(1,8,13,11,-1)       174.9233         estimate D2E/DX2                !
 ! A27   L(1,8,13,11,-2)       179.0347         estimate D2E/DX2                !
 ! D1    D(5,1,2,3)             -0.1046         estimate D2E/DX2                !
 ! D2    D(5,1,2,9)           -167.6591         estimate D2E/DX2                !
 ! D3    D(8,1,2,3)           -179.3729         estimate D2E/DX2                !
 ! D4    D(8,1,2,9)             13.0726         estimate D2E/DX2                !
 ! D5    D(2,1,5,4)              0.1011         estimate D2E/DX2                !
 ! D6    D(8,1,5,4)            179.3677         estimate D2E/DX2                !
 ! D7    D(2,1,13,12)           -6.9421         estimate D2E/DX2                !
 ! D8    D(2,1,13,14)          120.852          estimate D2E/DX2                !
 ! D9    D(5,1,13,12)          174.3817         estimate D2E/DX2                !
 ! D10   D(5,1,13,14)          -57.8242         estimate D2E/DX2                !
 ! D11   D(1,2,3,4)              0.0617         estimate D2E/DX2                !
 ! D12   D(1,2,3,6)            179.9722         estimate D2E/DX2                !
 ! D13   D(9,2,3,4)            173.6271         estimate D2E/DX2                !
 ! D14   D(9,2,3,6)             -6.4624         estimate D2E/DX2                !
 ! D15   D(1,2,9,10)           177.9121         estimate D2E/DX2                !
 ! D16   D(1,2,9,11)           -13.0848         estimate D2E/DX2                !
 ! D17   D(3,2,9,10)            10.4475         estimate D2E/DX2                !
 ! D18   D(3,2,9,11)           179.4507         estimate D2E/DX2                !
 ! D19   D(2,3,4,5)             -0.0056         estimate D2E/DX2                !
 ! D20   D(2,3,4,7)            179.969          estimate D2E/DX2                !
 ! D21   D(6,3,4,5)           -179.9041         estimate D2E/DX2                !
 ! D22   D(6,3,4,7)              0.0705         estimate D2E/DX2                !
 ! D23   D(3,4,5,1)             -0.0533         estimate D2E/DX2                !
 ! D24   D(7,4,5,1)            179.9693         estimate D2E/DX2                !
 ! D25   D(2,9,11,15)            5.0203         estimate D2E/DX2                !
 ! D26   D(10,9,11,15)         172.0568         estimate D2E/DX2                !
 ! D27   D(9,11,15,16)          15.1984         estimate D2E/DX2                !
 ! D28   D(16,12,13,8)          -1.1216         estimate D2E/DX2                !
 ! D29   D(16,12,13,14)       -137.1304         estimate D2E/DX2                !
 ! D30   D(13,12,16,15)         13.3392         estimate D2E/DX2                !
 ! D31   D(13,12,16,17)       -120.3028         estimate D2E/DX2                !
 ! D32   D(11,15,16,12)        -25.5251         estimate D2E/DX2                !
 ! D33   D(11,15,16,17)        110.12           estimate D2E/DX2                !
 --------------------------------------------------------------------------------
 Trust Radius=3.00D-01 FncErr=1.00D-07 GrdErr=1.00D-06 EigMax=2.50D+02 EigMin=1.00D-04
 Number of steps in this run=     88 maximum allowed number of steps=    102.
 GradGradGradGradGradGradGradGradGradGradGradGradGradGradGradGradGradGrad

                          Input orientation:                          
 ---------------------------------------------------------------------
 Center     Atomic      Atomic             Coordinates (Angstroms)
 Number     Number       Type             X           Y           Z
 ---------------------------------------------------------------------
      1          7           0        1.044732   -1.089026    0.009145
      2          7           0        0.878634    0.219902   -0.004969
      3          6           0        2.122110    0.701839    0.038112
      4          6           0        3.006885   -0.384722    0.076031
      5          7           0        2.289474   -1.508449    0.055598
      6          1           0        2.307303    1.764912    0.038045
      7          1           0        4.084517   -0.410166    0.115175
      8          1           0        0.248093   -1.739638   -0.025937
      9          6           0        0.034680    1.344990    0.109468
     10          8           0        0.687422    2.482186   -0.001690
     11          8           0       -1.216778    1.152249    0.084246
     12          1           0       -2.041482   -2.204600   -0.048793
     13          8           0       -1.226062   -2.738958   -0.111931
     14          1           0       -1.356558   -3.380105   -0.816433
     15          1           0       -2.358276    0.114983    0.045942
     16          8           0       -2.772154   -0.755396    0.122648
     17          1           0       -3.336947   -0.723008    0.901025
 ---------------------------------------------------------------------
                    Distance matrix (angstroms):
                    1          2          3          4          5
     1  N    0.000000
     2  N    1.319500   0.000000
     3  C    2.090163   1.334298   0.000000
     4  C    2.085800   2.213952   1.401742   0.000000
     5  N    1.314327   2.231890   2.216684   1.333364   0.000000
     6  H    3.120879   2.104757   1.079083   2.260926   3.273457
     7  H    3.116470   3.269420   2.256886   1.078643   2.105221
     8  H    1.029155   2.058596   3.078450   3.075244   2.056048
     9  C    2.637177   1.411091   2.185429   3.439044   3.637185
    10  O    3.589058   2.270352   2.286820   3.688510   4.300583
    11  O    3.184867   2.295208   3.369447   4.494627   4.401583
    12  H    3.282161   3.795683   5.078429   5.367825   4.387790
    13  O    2.809527   3.632635   4.803317   4.847226   3.728433
    14  H    3.420061   4.314465   5.430805   5.367350   4.190117
    15  H    3.609911   3.239010   4.518664   5.388466   4.923130
    16  O    3.833120   3.780972   5.107299   5.791102   5.117779
    17  H    4.486483   4.413732   5.707549   6.406189   5.743542
                    6          7          8          9         10
     6  H    0.000000
     7  H    2.809876   0.000000
     8  H    4.065256   4.062703   0.000000
     9  C    2.312196   4.413817   3.094966   0.000000
    10  O    1.772026   4.463139   4.244690   1.315918   0.000000
    11  O    3.577239   5.526828   3.243608   1.266465   2.324241
    12  H    5.888675   6.385510   2.336422   4.115226   5.423568
    13  O    5.726430   5.803197   1.783022   4.279851   5.561827
    14  H    6.373791   6.268471   2.427122   5.011922   6.261638
    15  H    4.948733   6.464531   3.199679   2.691318   3.857745
    16  O    5.670978   6.865361   3.180048   3.505726   4.739838
    17  H    6.228326   7.469509   3.839962   4.033739   5.223381
                   11         12         13         14         15
    11  O    0.000000
    12  H    3.459229   0.000000
    13  O    3.896160   0.976952   0.000000
    14  H    4.623093   1.562115   0.961469   0.000000
    15  H    1.542856   2.343032   3.074380   3.736679   0.000000
    16  O    2.461661   1.632013   2.525856   3.126481   0.966819
    17  H    2.945986   2.185292   3.089655   3.732528   1.546348
                   16         17
    16  O    0.000000
    17  H    0.962243   0.000000
 Stoichiometry    C3H7N3O4(1-,2)
 Framework group  C1[X(C3H7N3O4)]
 Deg. of freedom    45
 Full point group                 C1      NOp   1
 Largest Abelian subgroup         C1      NOp   1
 Largest concise Abelian subgroup C1      NOp   1
                         Standard orientation:                         
 ---------------------------------------------------------------------
 Center     Atomic      Atomic             Coordinates (Angstroms)
 Number     Number       Type             X           Y           Z
 ---------------------------------------------------------------------
      1          7           0        0.372247   -1.148519    0.011973
      2          7           0        0.694738    0.129699   -0.044922
      3          6           0        2.028383    0.126534   -0.003283
      4          6           0        2.456203   -1.205827    0.078342
      5          7           0        1.378480   -1.990890    0.085204
      6          1           0        2.588379    1.048405   -0.034584
      7          1           0        3.450444   -1.620888    0.130102
      8          1           0       -0.606793   -1.464891   -0.011483
      9          6           0        0.319154    1.488092    0.024968
     10          8           0        1.341414    2.304892   -0.114544
     11          8           0       -0.916475    1.763898   -0.007960
     12          1           0       -2.908334   -1.064069   -0.044935
     13          8           0       -2.343906   -1.860597   -0.082355
     14          1           0       -2.699984   -2.433085   -0.767839
     15          1           0       -2.357601    1.213242   -0.026325
     16          8           0       -3.060207    0.556575    0.073029
     17          1           0       -3.573408    0.818323    0.843758
 ---------------------------------------------------------------------
 Rotational constants (GHZ):           1.5290540           1.0243762           0.6163138
 Standard basis: 6-31+G(d,p) (6D, 7F)
 There are   225 symmetry adapted cartesian basis functions of A   symmetry.
 There are   225 symmetry adapted basis functions of A   symmetry.
   225 basis functions,   369 primitive gaussians,   225 cartesian basis functions
    40 alpha electrons       39 beta electrons
       nuclear repulsion energy       555.9386142855 Hartrees.
 NAtoms=   17 NActive=   17 NUniq=   17 SFac= 1.00D+00 NAtFMM=   60 NAOKFM=F Big=F
 Integral buffers will be    131072 words long.
 Raffenetti 2 integral format.
 Two-electron integral symmetry is turned on.
 One-electron integrals computed using PRISM.
 NBasis=   225 RedAO= T EigKep=  1.89D-05  NBF=   225
 NBsUse=   225 1.00D-06 EigRej= -1.00D+00 NBFU=   225
 ExpMin= 4.38D-02 ExpMax= 5.48D+03 ExpMxC= 8.25D+02 IAcc=3 IRadAn=         5 AccDes= 0.00D+00
 Harris functional with IExCor= 1009 and IRadAn=       5 diagonalized for initial guess.
 HarFok:  IExCor= 1009 AccDes= 0.00D+00 IRadAn=         5 IDoV= 1 UseB2=F ITyADJ=14
 ICtDFT=  3500011 ScaDFX=  1.000000  1.000000  1.000000  1.000000
 FoFCou: FMM=F IPFlag=           0 FMFlag=      100000 FMFlg1=           0
         NFxFlg=           0 DoJE=T BraDBF=F KetDBF=T FulRan=T
         wScrn=  0.000000 ICntrl=       500 IOpCl=  0 I1Cent=   200000004 NGrid=           0
         NMat0=    1 NMatS0=      1 NMatT0=    0 NMatD0=    1 NMtDS0=    0 NMtDT0=    0
 Petite list used in FoFCou.
 Initial guess <Sx>= 0.0000 <Sy>= 0.0000 <Sz>= 0.5000 <S**2>= 0.7500 S= 0.5000
 Requested convergence on RMS density matrix=1.00D-08 within 128 cycles.
 Requested convergence on MAX density matrix=1.00D-06.
 Requested convergence on             energy=1.00D-06.
 No special actions if energy rises.
 SCF Done:  E(UM062X) =  -583.421800465     A.U. after   19 cycles
            NFock= 19  Conv=0.87D-08     -V/T= 2.0072
 <Sx>= 0.0000 <Sy>= 0.0000 <Sz>= 0.5000 <S**2>= 0.7634 S= 0.5067
 <L.S>= 0.000000000000E+00
 Annihilation of the first spin contaminant:
 S**2 before annihilation     0.7634,   after     0.7501

 **********************************************************************

            Population analysis using the SCF density.

 **********************************************************************

 Orbital symmetries:
 Alpha Orbitals:
       Occupied  (A) (A) (A) (A) (A) (A) (A) (A) (A) (A) (A) (A)
                 (A) (A) (A) (A) (A) (A) (A) (A) (A) (A) (A) (A)
                 (A) (A) (A) (A) (A) (A) (A) (A) (A) (A) (A) (A)
                 (A) (A) (A) (A)
       Virtual   (A) (A) (A) (A) (A) (A) (A) (A) (A) (A) (A) (A)
                 (A) (A) (A) (A) (A) (A) (A) (A) (A) (A) (A) (A)
                 (A) (A) (A) (A) (A) (A) (A) (A) (A) (A) (A) (A)
                 (A) (A) (A) (A) (A) (A) (A) (A) (A) (A) (A) (A)
                 (A) (A) (A) (A) (A) (A) (A) (A) (A) (A) (A) (A)
                 (A) (A) (A) (A) (A) (A) (A) (A) (A) (A) (A) (A)
                 (A) (A) (A) (A) (A) (A) (A) (A) (A) (A) (A) (A)
                 (A) (A) (A) (A) (A) (A) (A) (A) (A) (A) (A) (A)
                 (A) (A) (A) (A) (A) (A) (A) (A) (A) (A) (A) (A)
                 (A) (A) (A) (A) (A) (A) (A) (A) (A) (A) (A) (A)
                 (A) (A) (A) (A) (A) (A) (A) (A) (A) (A) (A) (A)
                 (A) (A) (A) (A) (A) (A) (A) (A) (A) (A) (A) (A)
                 (A) (A) (A) (A) (A) (A) (A) (A) (A) (A) (A) (A)
                 (A) (A) (A) (A) (A) (A) (A) (A) (A) (A) (A) (A)
                 (A) (A) (A) (A) (A) (A) (A) (A) (A) (A) (A) (A)
                 (A) (A) (A) (A) (A)
 Beta  Orbitals:
       Occupied  (A) (A) (A) (A) (A) (A) (A) (A) (A) (A) (A) (A)
                 (A) (A) (A) (A) (A) (A) (A) (A) (A) (A) (A) (A)
                 (A) (A) (A) (A) (A) (A) (A) (A) (A) (A) (A) (A)
                 (A) (A) (A)
       Virtual   (A) (A) (A) (A) (A) (A) (A) (A) (A) (A) (A) (A)
                 (A) (A) (A) (A) (A) (A) (A) (A) (A) (A) (A) (A)
                 (A) (A) (A) (A) (A) (A) (A) (A) (A) (A) (A) (A)
                 (A) (A) (A) (A) (A) (A) (A) (A) (A) (A) (A) (A)
                 (A) (A) (A) (A) (A) (A) (A) (A) (A) (A) (A) (A)
                 (A) (A) (A) (A) (A) (A) (A) (A) (A) (A) (A) (A)
                 (A) (A) (A) (A) (A) (A) (A) (A) (A) (A) (A) (A)
                 (A) (A) (A) (A) (A) (A) (A) (A) (A) (A) (A) (A)
                 (A) (A) (A) (A) (A) (A) (A) (A) (A) (A) (A) (A)
                 (A) (A) (A) (A) (A) (A) (A) (A) (A) (A) (A) (A)
                 (A) (A) (A) (A) (A) (A) (A) (A) (A) (A) (A) (A)
                 (A) (A) (A) (A) (A) (A) (A) (A) (A) (A) (A) (A)
                 (A) (A) (A) (A) (A) (A) (A) (A) (A) (A) (A) (A)
                 (A) (A) (A) (A) (A) (A) (A) (A) (A) (A) (A) (A)
                 (A) (A) (A) (A) (A) (A) (A) (A) (A) (A) (A) (A)
                 (A) (A) (A) (A) (A) (A)
 The electronic state is 2-A.
 Alpha  occ. eigenvalues --  -19.52236 -19.50994 -19.44457 -19.42368 -14.69199
 Alpha  occ. eigenvalues --  -14.68256 -14.62726 -10.52685 -10.42034 -10.40270
 Alpha  occ. eigenvalues --   -1.09129  -1.01822  -1.00267  -0.99013  -0.90688
 Alpha  occ. eigenvalues --   -0.86622  -0.77109  -0.62170  -0.56441  -0.54982
 Alpha  occ. eigenvalues --   -0.50338  -0.49411  -0.43316  -0.41627  -0.39468
 Alpha  occ. eigenvalues --   -0.37063  -0.36787  -0.33778  -0.33013  -0.32526
 Alpha  occ. eigenvalues --   -0.30372  -0.27735  -0.26850  -0.23941  -0.22541
 Alpha  occ. eigenvalues --   -0.19320  -0.18884  -0.16295  -0.14236   0.00020
 Alpha virt. eigenvalues --    0.13500   0.15516   0.17265   0.18114   0.18471
 Alpha virt. eigenvalues --    0.18649   0.19880   0.20719   0.22022   0.23861
 Alpha virt. eigenvalues --    0.24176   0.24756   0.26145   0.26964   0.27845
 Alpha virt. eigenvalues --    0.29145   0.30022   0.30624   0.31115   0.31323
 Alpha virt. eigenvalues --    0.32140   0.34107   0.34759   0.35417   0.35818
 Alpha virt. eigenvalues --    0.37821   0.38585   0.38997   0.39467   0.39948
 Alpha virt. eigenvalues --    0.40036   0.41226   0.42421   0.43248   0.44030
 Alpha virt. eigenvalues --    0.44876   0.45453   0.46309   0.46903   0.47832
 Alpha virt. eigenvalues --    0.49318   0.49727   0.50387   0.51876   0.52574
 Alpha virt. eigenvalues --    0.52825   0.55089   0.56068   0.56992   0.58312
 Alpha virt. eigenvalues --    0.60936   0.64004   0.66048   0.66466   0.69366
 Alpha virt. eigenvalues --    0.71523   0.80058   0.88697   0.91927   0.93111
 Alpha virt. eigenvalues --    0.99678   1.01216   1.03091   1.06523   1.08932
 Alpha virt. eigenvalues --    1.09612   1.11130   1.12358   1.12556   1.14575
 Alpha virt. eigenvalues --    1.15436   1.16947   1.17216   1.18643   1.18861
 Alpha virt. eigenvalues --    1.23338   1.25068   1.26613   1.29040   1.29522
 Alpha virt. eigenvalues --    1.32419   1.34810   1.36741   1.37525   1.38863
 Alpha virt. eigenvalues --    1.39754   1.43188   1.43824   1.48014   1.48629
 Alpha virt. eigenvalues --    1.50048   1.50753   1.52274   1.53410   1.54082
 Alpha virt. eigenvalues --    1.57075   1.59353   1.60838   1.63840   1.64118
 Alpha virt. eigenvalues --    1.65741   1.68690   1.69162   1.72289   1.73443
 Alpha virt. eigenvalues --    1.75474   1.76584   1.78834   1.79141   1.82155
 Alpha virt. eigenvalues --    1.84243   1.87862   1.93603   1.94322   1.96385
 Alpha virt. eigenvalues --    1.97374   2.01723   2.03535   2.05596   2.07692
 Alpha virt. eigenvalues --    2.13764   2.14913   2.16791   2.19665   2.23121
 Alpha virt. eigenvalues --    2.25149   2.27706   2.32132   2.35884   2.37705
 Alpha virt. eigenvalues --    2.38808   2.42110   2.42279   2.42952   2.45282
 Alpha virt. eigenvalues --    2.48107   2.55219   2.57323   2.60837   2.61728
 Alpha virt. eigenvalues --    2.62011   2.64941   2.70554   2.72437   2.72838
 Alpha virt. eigenvalues --    2.75875   2.77992   2.78536   2.81040   2.84004
 Alpha virt. eigenvalues --    2.86273   2.87889   2.91186   2.92723   2.94109
 Alpha virt. eigenvalues --    2.95067   2.97000   2.99527   3.09151   3.14387
 Alpha virt. eigenvalues --    3.17302   3.22755   3.24056   3.26755   3.31278
 Alpha virt. eigenvalues --    3.34019   3.40930   3.46597   3.51139   3.55507
 Alpha virt. eigenvalues --    3.62110   3.78507   3.81304   3.92773   3.98183
 Alpha virt. eigenvalues --    4.22303   4.39158   4.45646   4.47530   4.57636
 Alpha virt. eigenvalues --    4.58675   4.68115   4.75508   4.81150   5.00490
  Beta  occ. eigenvalues --  -19.52237 -19.50994 -19.44318 -19.42313 -14.68705
  Beta  occ. eigenvalues --  -14.67994 -14.62245 -10.52634 -10.42140 -10.40099
  Beta  occ. eigenvalues --   -1.07955  -1.01806  -1.00059  -0.98717  -0.90210
  Beta  occ. eigenvalues --   -0.85572  -0.76097  -0.61052  -0.55822  -0.54367
  Beta  occ. eigenvalues --   -0.50300  -0.49363  -0.41271  -0.40726  -0.39161
  Beta  occ. eigenvalues --   -0.36868  -0.36430  -0.33502  -0.32541  -0.30929
  Beta  occ. eigenvalues --   -0.30092  -0.27675  -0.26815  -0.22843  -0.19205
  Beta  occ. eigenvalues --   -0.18528  -0.16772  -0.14745  -0.13996
  Beta virt. eigenvalues --    0.13290   0.15241   0.15284   0.16186   0.17655
  Beta virt. eigenvalues --    0.17808   0.18368   0.19925   0.20161   0.21560
  Beta virt. eigenvalues --    0.23220   0.23312   0.24330   0.26394   0.26830
  Beta virt. eigenvalues --    0.27415   0.28500   0.29327   0.30368   0.31094
  Beta virt. eigenvalues --    0.31331   0.32213   0.33999   0.34526   0.35330
  Beta virt. eigenvalues --    0.35747   0.37024   0.38346   0.38924   0.39109
  Beta virt. eigenvalues --    0.39583   0.40019   0.41023   0.42374   0.42865
  Beta virt. eigenvalues --    0.43775   0.44694   0.45156   0.46075   0.46950
  Beta virt. eigenvalues --    0.47673   0.48873   0.49853   0.50221   0.51817
  Beta virt. eigenvalues --    0.52229   0.52948   0.54781   0.55628   0.56798
  Beta virt. eigenvalues --    0.58219   0.60702   0.64203   0.66380   0.66498
  Beta virt. eigenvalues --    0.69587   0.71634   0.80415   0.88017   0.92118
  Beta virt. eigenvalues --    0.94066   0.99915   1.01303   1.03100   1.06713
  Beta virt. eigenvalues --    1.09685   1.10685   1.11216   1.12589   1.12711
  Beta virt. eigenvalues --    1.14855   1.15870   1.17795   1.18393   1.19203
  Beta virt. eigenvalues --    1.19502   1.23468   1.25222   1.26634   1.29085
  Beta virt. eigenvalues --    1.29552   1.32398   1.34911   1.36855   1.37519
  Beta virt. eigenvalues --    1.39050   1.39935   1.43768   1.43928   1.48237
  Beta virt. eigenvalues --    1.48670   1.50294   1.51081   1.52895   1.53901
  Beta virt. eigenvalues --    1.54448   1.57827   1.59452   1.60961   1.64100
  Beta virt. eigenvalues --    1.64540   1.65971   1.68929   1.70251   1.72698
  Beta virt. eigenvalues --    1.73713   1.75553   1.76886   1.78972   1.79228
  Beta virt. eigenvalues --    1.82316   1.84519   1.87885   1.93681   1.94424
  Beta virt. eigenvalues --    1.96735   1.97513   2.01880   2.03796   2.05822
  Beta virt. eigenvalues --    2.07897   2.13951   2.15177   2.17042   2.19925
  Beta virt. eigenvalues --    2.23186   2.25733   2.28032   2.32419   2.36413
  Beta virt. eigenvalues --    2.38077   2.39187   2.42433   2.43081   2.43199
  Beta virt. eigenvalues --    2.45464   2.48662   2.55250   2.57399   2.61215
  Beta virt. eigenvalues --    2.62143   2.62339   2.65319   2.70838   2.72696
  Beta virt. eigenvalues --    2.73391   2.76564   2.78052   2.78553   2.81126
  Beta virt. eigenvalues --    2.84267   2.86654   2.88367   2.91865   2.93324
  Beta virt. eigenvalues --    2.94558   2.95163   2.97695   2.99966   3.09449
  Beta virt. eigenvalues --    3.14600   3.17394   3.22863   3.24099   3.26946
  Beta virt. eigenvalues --    3.31625   3.34352   3.41310   3.46990   3.51328
  Beta virt. eigenvalues --    3.55553   3.62129   3.79004   3.81394   3.93256
  Beta virt. eigenvalues --    3.98293   4.22473   4.39172   4.45600   4.47621
  Beta virt. eigenvalues --    4.57670   4.58793   4.68012   4.76271   4.81080
  Beta virt. eigenvalues --    5.01359
          Condensed to atoms (all electrons):
               1          2          3          4          5          6
     1  N    9.662482  -1.379385  -0.823320   1.082210  -1.071681   0.027026
     2  N   -1.379385   8.520578   0.162101  -0.344969   0.234398  -0.035886
     3  C   -0.823320   0.162101   8.033343  -1.924678   0.463104   0.450808
     4  C    1.082210  -0.344969  -1.924678   7.871253  -0.548743  -0.046243
     5  N   -1.071681   0.234398   0.463104  -0.548743   8.107647   0.002960
     6  H    0.027026  -0.035886   0.450808  -0.046243   0.002960   0.457486
     7  H    0.046783  -0.036989  -0.012163   0.395075  -0.070529   0.000359
     8  H    0.295960  -0.022760   0.019429   0.002125  -0.016141  -0.000085
     9  C   -0.342178   0.332411  -0.111962  -0.382359   0.165385  -0.031520
    10  O   -0.011058  -0.133621  -0.165129   0.181926  -0.022383  -0.052532
    11  O   -0.110576  -0.124942   0.107711  -0.035499   0.035275  -0.001127
    12  H   -0.009918   0.012983   0.000124   0.000298  -0.002637  -0.000000
    13  O   -0.039241  -0.008709   0.014674  -0.001364  -0.006936   0.000022
    14  H    0.002678   0.003605  -0.001024   0.000740  -0.001453  -0.000000
    15  H   -0.001224   0.006237  -0.001595  -0.000666   0.000223  -0.000002
    16  O    0.030295  -0.027093  -0.013345   0.006252  -0.006654   0.000003
    17  H   -0.002878   0.002389   0.000398   0.000049  -0.000324   0.000000
               7          8          9         10         11         12
     1  N    0.046783   0.295960  -0.342178  -0.011058  -0.110576  -0.009918
     2  N   -0.036989  -0.022760   0.332411  -0.133621  -0.124942   0.012983
     3  C   -0.012163   0.019429  -0.111962  -0.165129   0.107711   0.000124
     4  C    0.395075   0.002125  -0.382359   0.181926  -0.035499   0.000298
     5  N   -0.070529  -0.016141   0.165385  -0.022383   0.035275  -0.002637
     6  H    0.000359  -0.000085  -0.031520  -0.052532  -0.001127  -0.000000
     7  H    0.556866  -0.000073  -0.004086  -0.000750   0.000001  -0.000000
     8  H   -0.000073   0.312120  -0.004081   0.000014   0.001647   0.001111
     9  C   -0.004086  -0.004081   4.860520   0.371844   0.317128   0.000268
    10  O   -0.000750   0.000014   0.371844   8.506737  -0.077783   0.000036
    11  O    0.000001   0.001647   0.317128  -0.077783   8.676446   0.000973
    12  H   -0.000000   0.001111   0.000268   0.000036   0.000973   0.269295
    13  O    0.000032  -0.034549  -0.018879   0.000453  -0.004407   0.273291
    14  H   -0.000000  -0.000445   0.000584   0.000001   0.000155  -0.018683
    15  H   -0.000000  -0.000125  -0.002964   0.000344   0.053392   0.001089
    16  O   -0.000000   0.003210   0.008655  -0.001558  -0.071542   0.001188
    17  H   -0.000000  -0.000045   0.000714   0.000050   0.002505  -0.002667
              13         14         15         16         17
     1  N   -0.039241   0.002678  -0.001224   0.030295  -0.002878
     2  N   -0.008709   0.003605   0.006237  -0.027093   0.002389
     3  C    0.014674  -0.001024  -0.001595  -0.013345   0.000398
     4  C   -0.001364   0.000740  -0.000666   0.006252   0.000049
     5  N   -0.006936  -0.001453   0.000223  -0.006654  -0.000324
     6  H    0.000022  -0.000000  -0.000002   0.000003   0.000000
     7  H    0.000032  -0.000000  -0.000000  -0.000000  -0.000000
     8  H   -0.034549  -0.000445  -0.000125   0.003210  -0.000045
     9  C   -0.018879   0.000584  -0.002964   0.008655   0.000714
    10  O    0.000453   0.000001   0.000344  -0.001558   0.000050
    11  O   -0.004407   0.000155   0.053392  -0.071542   0.002505
    12  H    0.273291  -0.018683   0.001089   0.001188  -0.002667
    13  O    8.487649   0.269401   0.002772  -0.099624   0.006757
    14  H    0.269401   0.382982  -0.000049   0.005158  -0.000073
    15  H    0.002772  -0.000049   0.211787   0.237907  -0.012986
    16  O   -0.099624   0.005158   0.237907   8.547297   0.266483
    17  H    0.006757  -0.000073  -0.012986   0.266483   0.386925
          Atomic-Atomic Spin Densities.
               1          2          3          4          5          6
     1  N    0.717131  -0.294478   0.190268   0.017747  -0.362330  -0.004150
     2  N   -0.294478   0.466890  -0.263855  -0.032427   0.167096   0.004931
     3  C    0.190268  -0.263855   0.451872   0.153004  -0.152844  -0.009794
     4  C    0.017747  -0.032427   0.153004  -0.277691  -0.013818   0.000747
     5  N   -0.362330   0.167096  -0.152844  -0.013818   0.722087   0.000778
     6  H   -0.004150   0.004931  -0.009794   0.000747   0.000778  -0.014898
     7  H    0.003424  -0.000482  -0.004552   0.007542  -0.004458   0.000018
     8  H    0.010349  -0.005248  -0.000309   0.000451  -0.007143   0.000002
     9  C   -0.050915   0.104470  -0.100859   0.005395   0.008069   0.003959
    10  O    0.006437  -0.023603   0.033164  -0.006080  -0.000326   0.004141
    11  O    0.016070  -0.037979   0.017628  -0.001031  -0.001484   0.000247
    12  H    0.000757  -0.000612  -0.000034   0.000037   0.000001   0.000000
    13  O   -0.006805   0.005449   0.000165  -0.000436   0.000486  -0.000003
    14  H   -0.000089  -0.000116   0.000041  -0.000005   0.000108   0.000000
    15  H   -0.000019  -0.000578  -0.000499   0.000061  -0.000026  -0.000000
    16  O   -0.001051   0.001515   0.000667  -0.000247  -0.000202   0.000000
    17  H   -0.000025  -0.000034  -0.000099   0.000010   0.000009  -0.000000
               7          8          9         10         11         12
     1  N    0.003424   0.010349  -0.050915   0.006437   0.016070   0.000757
     2  N   -0.000482  -0.005248   0.104470  -0.023603  -0.037979  -0.000612
     3  C   -0.004552  -0.000309  -0.100859   0.033164   0.017628  -0.000034
     4  C    0.007542   0.000451   0.005395  -0.006080  -0.001031   0.000037
     5  N   -0.004458  -0.007143   0.008069  -0.000326  -0.001484   0.000001
     6  H    0.000018   0.000002   0.003959   0.004141   0.000247   0.000000
     7  H    0.003329  -0.000001  -0.000459  -0.000014   0.000005  -0.000000
     8  H   -0.000001  -0.013507  -0.000393   0.000003   0.000096  -0.000131
     9  C   -0.000459  -0.000393   0.173945  -0.029784  -0.045598   0.000018
    10  O   -0.000014   0.000003  -0.029784   0.042876   0.008897  -0.000001
    11  O    0.000005   0.000096  -0.045598   0.008897   0.104967   0.000020
    12  H   -0.000000  -0.000131   0.000018  -0.000001   0.000020   0.000021
    13  O    0.000000   0.003464  -0.000009   0.000006  -0.000031  -0.000037
    14  H    0.000000  -0.000134  -0.000138  -0.000000   0.000004   0.000000
    15  H   -0.000000  -0.000017   0.001017  -0.000044  -0.001170   0.000007
    16  O    0.000000   0.000136  -0.000987   0.000067   0.000836  -0.000093
    17  H    0.000000  -0.000001   0.000226  -0.000003  -0.000230   0.000003
              13         14         15         16         17
     1  N   -0.006805  -0.000089  -0.000019  -0.001051  -0.000025
     2  N    0.005449  -0.000116  -0.000578   0.001515  -0.000034
     3  C    0.000165   0.000041  -0.000499   0.000667  -0.000099
     4  C   -0.000436  -0.000005   0.000061  -0.000247   0.000010
     5  N    0.000486   0.000108  -0.000026  -0.000202   0.000009
     6  H   -0.000003   0.000000  -0.000000   0.000000  -0.000000
     7  H    0.000000   0.000000  -0.000000   0.000000   0.000000
     8  H    0.003464  -0.000134  -0.000017   0.000136  -0.000001
     9  C   -0.000009  -0.000138   0.001017  -0.000987   0.000226
    10  O    0.000006  -0.000000  -0.000044   0.000067  -0.000003
    11  O   -0.000031   0.000004  -0.001170   0.000836  -0.000230
    12  H   -0.000037   0.000000   0.000007  -0.000093   0.000003
    13  O   -0.001457  -0.000429  -0.000004   0.000404  -0.000008
    14  H   -0.000429   0.000804  -0.000006  -0.000024  -0.000002
    15  H   -0.000004  -0.000006   0.000215   0.000163   0.000114
    16  O    0.000404  -0.000024   0.000163  -0.000248  -0.000240
    17  H   -0.000008  -0.000002   0.000114  -0.000240   0.000285
 Mulliken charges and spin densities:
               1          2
     1  N   -0.355975   0.242321
     2  N   -0.160345   0.090939
     3  C   -0.198476   0.313964
     4  C   -0.255408  -0.146742
     5  N   -0.261510   0.356000
     6  H    0.228731  -0.014022
     7  H    0.125474   0.004354
     8  H    0.442688  -0.012386
     9  C    0.840518   0.067954
    10  O   -0.596591   0.035735
    11  O   -0.769358   0.061245
    12  H    0.473247  -0.000045
    13  O   -0.841342   0.000758
    14  H    0.356421   0.000013
    15  H    0.505859  -0.000787
    16  O   -0.886633   0.000697
    17  H    0.352703   0.000003
 Sum of Mulliken charges =  -1.00000   1.00000
 Mulliken charges and spin densities with hydrogens summed into heavy atoms:
               1          2
     1  N    0.086713   0.229935
     2  N   -0.160345   0.090939
     3  C    0.030255   0.299943
     4  C   -0.129934  -0.142389
     5  N   -0.261510   0.356000
     9  C    0.840518   0.067954
    10  O   -0.596591   0.035735
    11  O   -0.769358   0.061245
    13  O   -0.011674   0.000726
    16  O   -0.028072  -0.000087
 Electronic spatial extent (au):  <R**2>=           1754.0681
 Charge=             -1.0000 electrons
 Dipole moment (field-independent basis, Debye):
    X=             -3.4010    Y=             -3.9158    Z=              0.2599  Tot=              5.1930
 Quadrupole moment (field-independent basis, Debye-Ang):
   XX=            -66.4495   YY=            -89.8704   ZZ=            -62.4443
   XY=              0.1001   XZ=             -1.0121   YZ=              5.6040
 Traceless Quadrupole moment (field-independent basis, Debye-Ang):
   XX=              6.4719   YY=            -16.9490   ZZ=             10.4771
   XY=              0.1001   XZ=             -1.0121   YZ=              5.6040
 Octapole moment (field-independent basis, Debye-Ang**2):
  XXX=            -41.8211  YYY=            -27.5306  ZZZ=             -0.2823  XYY=            -39.6790
  XXY=            -10.6227  XXZ=             10.0077  XZZ=            -20.5126  YZZ=              1.2290
  YYZ=             -7.2114  XYZ=            -12.9897
 Hexadecapole moment (field-independent basis, Debye-Ang**3):
 XXXX=          -1222.0572 YYYY=          -1061.2128 ZZZZ=            -75.1888 XXXY=              4.8641
 XXXZ=            -43.9528 YYYX=             23.7561 YYYZ=             34.4121 ZZZX=             -3.8889
 ZZZY=              7.3008 XXYY=           -373.8122 XXZZ=           -227.6171 YYZZ=           -159.3984
 XXYZ=             44.3135 YYXZ=             21.9073 ZZXY=              9.7058
 N-N= 5.559386142855D+02 E-N=-2.493383801134D+03  KE= 5.792315762186D+02
                          Isotropic Fermi Contact Couplings
        Atom                 a.u.       MegaHertz       Gauss      10(-4) cm-1
     1  N(14)              0.05868      18.95936       6.76517       6.32416
     2  N(14)              0.02780       8.98359       3.20557       2.99660
     3  C(13)              0.03413      38.36550      13.68976      12.79735
     4  C(13)             -0.03068     -34.48570     -12.30536     -11.50319
     5  N(14)              0.08574      27.70345       9.88528       9.24088
     6  H(1)              -0.00426     -19.04683      -6.79638      -6.35334
     7  H(1)               0.00096       4.29244       1.53165       1.43180
     8  H(1)              -0.00648     -28.97735     -10.33984      -9.66580
     9  C(13)              0.01671      18.78002       6.70118       6.26434
    10  O(17)              0.00599      -3.63343      -1.29650      -1.21198
    11  O(17)              0.01586      -9.61216      -3.42986      -3.20627
    12  H(1)              -0.00001      -0.04328      -0.01544      -0.01444
    13  O(17)             -0.00221       1.33965       0.47802       0.44686
    14  H(1)               0.00002       0.11110       0.03964       0.03706
    15  H(1)              -0.00000      -0.00081      -0.00029      -0.00027
    16  O(17)             -0.00058       0.35053       0.12508       0.11692
    17  H(1)               0.00002       0.07817       0.02789       0.02608
 --------------------------------------------------------
       Center         ----  Spin Dipole Couplings  ----
                      3XX-RR        3YY-RR        3ZZ-RR
 --------------------------------------------------------
     1   Atom       -0.341057     -0.341736      0.682793
     2   Atom       -0.221844     -0.194060      0.415904
     3   Atom       -0.113354     -0.113724      0.227078
     4   Atom        0.058188      0.051600     -0.109788
     5   Atom       -0.379870     -0.375201      0.755071
     6   Atom       -0.007064      0.009441     -0.002377
     7   Atom        0.003301      0.003083     -0.006384
     8   Atom        0.035610     -0.025497     -0.010113
     9   Atom       -0.048509     -0.031705      0.080214
    10   Atom       -0.063518     -0.060766      0.124284
    11   Atom       -0.132465     -0.124510      0.256974
    12   Atom        0.003812     -0.001577     -0.002236
    13   Atom        0.000086     -0.001422      0.001335
    14   Atom        0.002511     -0.000740     -0.001771
    15   Atom        0.006200     -0.002470     -0.003730
    16   Atom        0.002393     -0.002138     -0.000255
    17   Atom        0.002316     -0.001029     -0.001288
 --------------------------------------------------------
                        XY            XZ            YZ
 --------------------------------------------------------
     1   Atom       -0.001199     -0.041554      0.014177
     2   Atom       -0.004636      0.028765     -0.022930
     3   Atom        0.004006     -0.016176      0.018690
     4   Atom        0.007890      0.004782     -0.007535
     5   Atom        0.003476     -0.016175      0.030118
     6   Atom        0.017103     -0.001315      0.000800
     7   Atom        0.002810      0.000063     -0.000405
     8   Atom        0.022271     -0.000726      0.000909
     9   Atom       -0.009609      0.013446     -0.026164
    10   Atom       -0.003416      0.010987     -0.009192
    11   Atom       -0.000082      0.018165     -0.011386
    12   Atom        0.000688      0.000093     -0.000033
    13   Atom        0.001753     -0.000411     -0.001036
    14   Atom        0.001910      0.000966      0.000402
    15   Atom       -0.000112      0.000030     -0.000084
    16   Atom       -0.001432      0.000806     -0.000714
    17   Atom       -0.000516     -0.000843      0.000085
 --------------------------------------------------------


 ---------------------------------------------------------------------------------
              Anisotropic Spin Dipole Couplings in Principal Axis System
 ---------------------------------------------------------------------------------

       Atom             a.u.   MegaHertz   Gauss  10(-4) cm-1        Axes

              Baa    -0.3431   -13.232    -4.721    -4.414  0.8780  0.4777  0.0290
     1 N(14)  Bbb    -0.3416   -13.174    -4.701    -4.395 -0.4769  0.8784 -0.0315
              Bcc     0.6847    26.406     9.422     8.808 -0.0405  0.0138  0.9991
 
              Baa    -0.2236    -8.623    -3.077    -2.876  0.9914  0.1245 -0.0401
     2 N(14)  Bbb    -0.1945    -7.501    -2.676    -2.502 -0.1227  0.9915  0.0430
              Bcc     0.4181    16.124     5.753     5.378  0.0451 -0.0377  0.9983
 
              Baa    -0.1193   -16.010    -5.713    -5.340 -0.6825  0.7274 -0.0711
     3 C(13)  Bbb    -0.1095   -14.698    -5.245    -4.903  0.7294  0.6841 -0.0029
              Bcc     0.2288    30.708    10.958    10.243 -0.0465  0.0539  0.9975
 
              Baa    -0.1103   -14.801    -5.281    -4.937 -0.0306  0.0480  0.9984
     4 C(13)  Bbb     0.0469     6.287     2.243     2.097 -0.5541  0.8305 -0.0569
              Bcc     0.0634     8.514     3.038     2.840  0.8319  0.5549 -0.0012
 
              Baa    -0.3825   -14.751    -5.263    -4.920  0.8556 -0.5170  0.0259
     5 N(14)  Bbb    -0.3736   -14.411    -5.142    -4.807  0.5175  0.8556 -0.0154
              Bcc     0.7561    29.161    10.405     9.727 -0.0142  0.0266  0.9995
 
              Baa    -0.0180    -9.579    -3.418    -3.195  0.8428 -0.5291  0.0983
     6 H(1)   Bbb    -0.0022    -1.187    -0.424    -0.396 -0.0828  0.0531  0.9952
              Bcc     0.0202    10.766     3.842     3.591  0.5317  0.8469 -0.0009
 
              Baa    -0.0064    -3.418    -1.219    -1.140 -0.0206  0.0487  0.9986
     7 H(1)   Bbb     0.0004     0.211     0.075     0.071 -0.6940  0.7183 -0.0494
              Bcc     0.0060     3.206     1.144     1.069  0.7197  0.6940 -0.0190
 
              Baa    -0.0328   -17.503    -6.245    -5.838 -0.3096  0.9496 -0.0479
     8 H(1)   Bbb    -0.0101    -5.370    -1.916    -1.791 -0.0075  0.0480  0.9988
              Bcc     0.0429    22.873     8.162     7.629  0.9508  0.3096 -0.0077
 
              Baa    -0.0529    -7.098    -2.533    -2.367  0.9172  0.3982 -0.0144
     9 C(13)  Bbb    -0.0348    -4.675    -1.668    -1.559 -0.3827  0.8902  0.2472
              Bcc     0.0877    11.773     4.201     3.927  0.1112 -0.2212  0.9689
 
              Baa    -0.0659     4.770     1.702     1.591  0.8525  0.5222 -0.0240
    10 O(17)  Bbb    -0.0595     4.304     1.536     1.436 -0.5194  0.8514  0.0736
              Bcc     0.1254    -9.074    -3.238    -3.027  0.0589 -0.0503  0.9970
 
              Baa    -0.1333     9.648     3.443     3.218  0.9975 -0.0526 -0.0480
    11 O(17)  Bbb    -0.1248     9.032     3.223     3.013  0.0540  0.9982  0.0272
              Bcc     0.2582   -18.680    -6.666    -6.231  0.0464 -0.0297  0.9985
 
              Baa    -0.0022    -1.195    -0.427    -0.399 -0.0238  0.0749  0.9969
    12 H(1)   Bbb    -0.0017    -0.885    -0.316    -0.295 -0.1230  0.9894 -0.0773
              Bcc     0.0039     2.081     0.743     0.694  0.9921  0.1245  0.0144
 
              Baa    -0.0027     0.194     0.069     0.065 -0.5098  0.8442  0.1654
    13 O(17)  Bbb     0.0004    -0.032    -0.011    -0.011  0.6968  0.2924  0.6549
              Bcc     0.0022    -0.163    -0.058    -0.054 -0.5045 -0.4492  0.7373
 
              Baa    -0.0020    -1.056    -0.377    -0.352 -0.2183  0.0197  0.9757
    14 H(1)   Bbb    -0.0016    -0.863    -0.308    -0.288 -0.3966  0.9117 -0.1072
              Bcc     0.0036     1.919     0.685     0.640  0.8917  0.4104  0.1912
 
              Baa    -0.0037    -1.993    -0.711    -0.665 -0.0023  0.0658  0.9978
    15 H(1)   Bbb    -0.0025    -1.316    -0.469    -0.439  0.0131  0.9978 -0.0657
              Bcc     0.0062     3.309     1.181     1.104  0.9999 -0.0129  0.0031
 
              Baa    -0.0026     0.192     0.068     0.064  0.2372  0.9499  0.2035
    16 O(17)  Bbb    -0.0004     0.032     0.011     0.011 -0.3265 -0.1193  0.9377
              Bcc     0.0031    -0.224    -0.080    -0.075  0.9150 -0.2888  0.2818
 
              Baa    -0.0015    -0.788    -0.281    -0.263  0.2262  0.0764  0.9711
    17 H(1)   Bbb    -0.0011    -0.588    -0.210    -0.196  0.1229  0.9867 -0.1062
              Bcc     0.0026     1.376     0.491     0.459  0.9663 -0.1433 -0.2138
 

 ---------------------------------------------------------------------------------

 Calling FoFJK, ICntrl=      2127 FMM=F ISym2X=0 I1Cent= 0 IOpClX= 1 NMat=1 NMatS=1 NMatT=0.
 ***** Axes restored to original set *****
 -------------------------------------------------------------------
 Center     Atomic                   Forces (Hartrees/Bohr)
 Number     Number              X              Y              Z
 -------------------------------------------------------------------
      1        7          -0.078799986   -0.067372369    0.001804624
      2        7           0.024141060    0.072107095    0.002552758
      3        6           0.120561687   -0.009910415   -0.001577253
      4        6          -0.018269331    0.025447944   -0.001450775
      5        7           0.032252037   -0.026423037    0.002670222
      6        1           0.004716728   -0.012430949    0.000431549
      7        1           0.000777417    0.001471433    0.000026404
      8        1           0.005319738    0.007177740   -0.000038854
      9        6          -0.031234261    0.054775711   -0.029477348
     10        8          -0.067367170   -0.043131742    0.015717832
     11        8           0.011606376    0.013229084    0.008070008
     12        1           0.003393897    0.014040161   -0.000671390
     13        8           0.002537636   -0.021071434   -0.002098369
     14        1           0.001948111    0.000625261    0.000272163
     15        1           0.028982083    0.018484083   -0.001386494
     16        8          -0.041277735   -0.028557584    0.006319141
     17        1           0.000711712    0.001539019   -0.001164218
 -------------------------------------------------------------------
 Cartesian Forces:  Max     0.120561687 RMS     0.031450417

 GradGradGradGradGradGradGradGradGradGradGradGradGradGradGradGradGradGrad
 Berny optimization.
 FormGI is forming the generalized inverse of G from B-inverse, IUseBI=4.
 Internal  Forces:  Max     0.108169827 RMS     0.027397024
 Search for a local minimum.
 Step number   1 out of a maximum of   88
 All quantities printed in internal units (Hartrees-Bohrs-Radians)
 Mixed Optimization -- RFO/linear search
 Second derivative matrix not updated -- first step.
 ITU=  0
     Eigenvalues ---    0.00235   0.00696   0.00879   0.01080   0.01731
     Eigenvalues ---    0.01981   0.02136   0.02188   0.02308   0.02351
     Eigenvalues ---    0.02378   0.02650   0.02897   0.03250   0.05558
     Eigenvalues ---    0.07236   0.08816   0.10634   0.12628   0.14795
     Eigenvalues ---    0.15955   0.16000   0.16000   0.18983   0.20252
     Eigenvalues ---    0.22090   0.22819   0.23305   0.24578   0.24640
     Eigenvalues ---    0.36105   0.36159   0.41356   0.42378   0.43382
     Eigenvalues ---    0.51166   0.51856   0.53240   0.54994   0.55159
     Eigenvalues ---    0.55868   0.59252   0.61888   0.62959   0.76324
 RFO step:  Lambda=-1.28577794D-01 EMin= 2.35132582D-03
 Linear search not attempted -- first point.
 Maximum step size (   0.300) exceeded in Quadratic search.
    -- Step size scaled by   0.543
 Iteration  1 RMS(Cart)=  0.09985227 RMS(Int)=  0.00407598
 Iteration  2 RMS(Cart)=  0.00543088 RMS(Int)=  0.00057250
 Iteration  3 RMS(Cart)=  0.00000823 RMS(Int)=  0.00057247
 Iteration  4 RMS(Cart)=  0.00000001 RMS(Int)=  0.00057247
 Variable       Old X    -DE/DX   Delta X   Delta X   Delta X     New X
                                 (Linear)    (Quad)   (Total)
    R1        2.49349   0.07557   0.00000   0.05762   0.05820   2.55169
    R2        2.48372   0.03470   0.00000   0.02563   0.02574   2.50946
    R3        1.94482  -0.00281   0.00000  -0.00451  -0.00433   1.94049
    R4        2.52146   0.09408   0.00000   0.07342   0.07344   2.59490
    R5        2.66658   0.07332   0.00000   0.06976   0.07007   2.73664
    R6        2.64891  -0.01884   0.00000  -0.02112  -0.02130   2.62760
    R7        2.03917  -0.01144   0.00000  -0.01270  -0.01270   2.02648
    R8        2.51969   0.01608   0.00000   0.00867   0.00853   2.52822
    R9        2.03834   0.00074   0.00000   0.00082   0.00082   2.03916
   R10        3.36942   0.00484   0.00000   0.00868   0.00886   3.37829
   R11        2.48673  -0.07202   0.00000  -0.05163  -0.05163   2.43510
   R12        2.39327  -0.00707   0.00000  -0.00345  -0.00347   2.38980
   R13        2.91558   0.00634   0.00000   0.01916   0.01895   2.93452
   R14        1.84617   0.00603   0.00000   0.00499   0.00475   1.85092
   R15        3.08406  -0.00280   0.00000  -0.00487  -0.00521   3.07884
   R16        1.81691  -0.00088   0.00000  -0.00070  -0.00070   1.81621
   R17        1.82702   0.03438   0.00000   0.02932   0.02901   1.85603
   R18        1.81838  -0.00131   0.00000  -0.00105  -0.00105   1.81733
    A1        2.02211  -0.01362   0.00000  -0.00960  -0.00974   2.01237
    A2        2.12858   0.03083   0.00000   0.03985   0.04071   2.16930
    A3        2.13241  -0.01725   0.00000  -0.03032  -0.03105   2.10136
    A4        1.81382  -0.02226   0.00000  -0.01847  -0.01832   1.79550
    A5        2.61664  -0.08713   0.00000  -0.14093  -0.14032   2.47632
    A6        1.84084   0.10817   0.00000   0.15792   0.15751   1.99835
    A7        1.88507   0.00264   0.00000   0.00076   0.00075   1.88582
    A8        2.11270   0.00560   0.00000   0.01266   0.01266   2.12536
    A9        2.28541  -0.00823   0.00000  -0.01341  -0.01341   2.27200
   A10        1.88941   0.02247   0.00000   0.02159   0.02144   1.91085
   A11        2.27821  -0.01275   0.00000  -0.01365  -0.01359   2.26463
   A12        2.11556  -0.00971   0.00000  -0.00794  -0.00787   2.10770
   A13        1.81436   0.01077   0.00000   0.00572   0.00587   1.82022
   A14        1.96655   0.04396   0.00000   0.06765   0.06717   2.03372
   A15        2.05787   0.00493   0.00000   0.00552   0.00584   2.06371
   A16        2.23953  -0.04618   0.00000  -0.06413  -0.06505   2.17449
   A17        2.55694   0.02725   0.00000   0.05128   0.05140   2.60834
   A18        2.61829  -0.00003   0.00000  -0.00745  -0.00822   2.61007
   A19        1.96103  -0.00778   0.00000  -0.02848  -0.02880   1.93223
   A20        2.11916  -0.00161   0.00000   0.00074   0.00102   2.12019
   A21        1.87424   0.00404   0.00000   0.01039   0.01017   1.88441
   A22        2.73886   0.01852   0.00000   0.03023   0.02980   2.76866
   A23        2.21357  -0.01675   0.00000  -0.03396  -0.03513   2.17844
   A24        1.95805   0.00547   0.00000   0.01010   0.01051   1.96857
   A25        1.85995   0.00313   0.00000   0.00555   0.00595   1.86590
   A26        3.05299   0.03119   0.00000   0.08727   0.08807   3.14106
   A27        3.12475  -0.00384   0.00000  -0.00132  -0.00029   3.12446
    D1       -0.00183   0.00054   0.00000   0.00083   0.00128  -0.00054
    D2       -2.92620  -0.00869   0.00000  -0.01752  -0.01751  -2.94371
    D3       -3.13065   0.00415   0.00000   0.00729   0.00730  -3.12335
    D4        0.22816  -0.00508   0.00000  -0.01105  -0.01149   0.21667
    D5        0.00177  -0.00186   0.00000  -0.00302  -0.00331  -0.00155
    D6        3.13056  -0.00509   0.00000  -0.00893  -0.00851   3.12205
    D7       -0.12116  -0.00633   0.00000  -0.01271  -0.01236  -0.13352
    D8        2.10927  -0.00502   0.00000  -0.01041  -0.01014   2.09912
    D9        3.04353   0.00133   0.00000  -0.00250  -0.00225   3.04129
   D10       -1.00922   0.00264   0.00000  -0.00020  -0.00003  -1.00926
   D11        0.00108   0.00102   0.00000   0.00169   0.00128   0.00236
   D12        3.14111   0.00382   0.00000   0.00588   0.00551  -3.13657
   D13        3.03036  -0.01461   0.00000  -0.02131  -0.02053   3.00983
   D14       -0.11279  -0.01180   0.00000  -0.01711  -0.01631  -0.12910
   D15        3.10515   0.00108   0.00000  -0.00753  -0.00962   3.09553
   D16       -0.22837   0.00895   0.00000   0.02943   0.02902  -0.19936
   D17        0.18234  -0.00033   0.00000  -0.01527  -0.01562   0.16672
   D18        3.13201   0.00753   0.00000   0.02168   0.02301  -3.12817
   D19       -0.00010  -0.00219   0.00000  -0.00360  -0.00338  -0.00348
   D20        3.14105   0.00128   0.00000   0.00193   0.00199  -3.14015
   D21       -3.13992  -0.00539   0.00000  -0.00839  -0.00812   3.13515
   D22        0.00123  -0.00192   0.00000  -0.00286  -0.00275  -0.00151
   D23       -0.00093   0.00233   0.00000   0.00383   0.00393   0.00300
   D24        3.14106  -0.00075   0.00000  -0.00108  -0.00088   3.14018
   D25        0.08762  -0.00329   0.00000  -0.02035  -0.02008   0.06754
   D26        3.00296   0.01866   0.00000   0.04160   0.03944   3.04240
   D27        0.26526   0.01026   0.00000   0.02208   0.02069   0.28595
   D28       -0.01958  -0.00656   0.00000  -0.01395  -0.01329  -0.03287
   D29       -2.39338  -0.00119   0.00000   0.00047   0.00097  -2.39240
   D30        0.23281  -0.00582   0.00000  -0.01051  -0.01007   0.22274
   D31       -2.09968   0.00221   0.00000   0.00859   0.00871  -2.09097
   D32       -0.44550   0.00592   0.00000   0.01406   0.01340  -0.43210
   D33        1.92196  -0.00030   0.00000  -0.00134  -0.00150   1.92045
         Item               Value     Threshold  Converged?
 Maximum Force            0.108170     0.000450     NO 
 RMS     Force            0.027397     0.000300     NO 
 Maximum Displacement     0.440437     0.001800     NO 
 RMS     Displacement     0.098409     0.001200     NO 
 Predicted change in Energy=-5.705967D-02
 GradGradGradGradGradGradGradGradGradGradGradGradGradGradGradGradGradGrad

                          Input orientation:                          
 ---------------------------------------------------------------------
 Center     Atomic      Atomic             Coordinates (Angstroms)
 Number     Number       Type             X           Y           Z
 ---------------------------------------------------------------------
      1          7           0        1.012440   -1.026580    0.013182
      2          7           0        0.934595    0.321088   -0.018890
      3          6           0        2.252485    0.704719    0.020658
      4          6           0        3.034275   -0.444057    0.070863
      5          7           0        2.242962   -1.522822    0.067997
      6          1           0        2.540372    1.737692    0.013282
      7          1           0        4.107629   -0.547021    0.112347
      8          1           0        0.200091   -1.653916   -0.018207
      9          6           0       -0.011825    1.410802    0.099457
     10          8           0        0.472447    2.603176    0.034567
     11          8           0       -1.246060    1.135525    0.086492
     12          1           0       -2.048576   -2.233820   -0.047132
     13          8           0       -1.214313   -2.743960   -0.102935
     14          1           0       -1.308454   -3.390040   -0.808217
     15          1           0       -2.379204    0.074404    0.048398
     16          8           0       -2.812216   -0.804289    0.119502
     17          1           0       -3.381058   -0.773907    0.894317
 ---------------------------------------------------------------------
                    Distance matrix (angstroms):
                    1          2          3          4          5
     1  N    0.000000
     2  N    1.350296   0.000000
     3  C    2.129592   1.373161   0.000000
     4  C    2.104869   2.236551   1.390468   0.000000
     5  N    1.327947   2.262605   2.228065   1.337879   0.000000
     6  H    3.158445   2.141570   1.072365   2.237697   3.274508
     7  H    3.133688   3.292261   2.239825   1.079079   2.105027
     8  H    1.026863   2.107164   3.126818   3.082903   2.048886
     9  C    2.645258   1.448168   2.373154   3.566517   3.700162
    10  O    3.669765   2.329026   2.602474   3.981194   4.489956
    11  O    3.127442   2.330165   3.525584   4.562520   4.386391
    12  H    3.291032   3.927807   5.209485   5.390042   4.351560
    13  O    2.814481   3.744247   4.891559   4.834279   3.670577
    14  H    3.412798   4.407582   5.489478   5.320798   4.106921
    15  H    3.566042   3.323649   4.674464   5.438296   4.890391
    16  O    3.832585   3.914616   5.285648   5.857780   5.106247
    17  H    4.488103   4.545088   5.889518   6.476370   5.733522
                    6          7          8          9         10
     6  H    0.000000
     7  H    2.772367   0.000000
     8  H    4.120790   4.063386   0.000000
     9  C    2.574489   4.561045   3.074288   0.000000
    10  O    2.241836   4.810856   4.266122   1.288599   0.000000
    11  O    3.834714   5.611917   3.143771   1.264627   2.260522
    12  H    6.069185   6.385107   2.322420   4.177692   5.455160
    13  O    5.847766   5.761592   1.787712   4.330009   5.608558
    14  H    6.463897   6.185802   2.431862   5.055017   6.308767
    15  H    5.193264   6.516844   3.105526   2.719016   3.811403
    16  O    5.926479   6.924629   3.132862   3.570605   4.733608
    17  H    6.492125   7.532820   3.798914   4.093469   5.195513
                   11         12         13         14         15
    11  O    0.000000
    12  H    3.466176   0.000000
    13  O    3.884236   0.979465   0.000000
    14  H    4.613582   1.569674   0.961096   0.000000
    15  H    1.552883   2.333739   3.053366   3.725946   0.000000
    16  O    2.493354   1.629254   2.522913   3.131784   0.982170
    17  H    2.976026   2.189333   3.093607   3.746794   1.561705
                   16         17
    16  O    0.000000
    17  H    0.961688   0.000000
 Stoichiometry    C3H7N3O4(1-,2)
 Framework group  C1[X(C3H7N3O4)]
 Deg. of freedom    45
 Full point group                 C1      NOp   1
 Largest Abelian subgroup         C1      NOp   1
 Largest concise Abelian subgroup C1      NOp   1
                         Standard orientation:                         
 ---------------------------------------------------------------------
 Center     Atomic      Atomic             Coordinates (Angstroms)
 Number     Number       Type             X           Y           Z
 ---------------------------------------------------------------------
      1          7           0        0.392626   -1.095392    0.011904
      2          7           0        0.792778    0.192133   -0.061973
      3          6           0        2.161468    0.090109   -0.018949
      4          6           0        2.490281   -1.257644    0.075103
      5          7           0        1.370663   -1.989725    0.095905
      6          1           0        2.793618    0.955613   -0.054383
      7          1           0        3.459195   -1.729211    0.132029
      8          1           0       -0.588231   -1.398536   -0.009753
      9          6           0        0.289060    1.547838    0.012339
     10          8           0        1.161058    2.491759   -0.083162
     11          8           0       -0.963266    1.722784   -0.006445
     12          1           0       -2.897370   -1.153322   -0.046899
     13          8           0       -2.295245   -1.925238   -0.077590
     14          1           0       -2.610102   -2.519768   -0.763961
     15          1           0       -2.396768    1.125992   -0.025318
     16          8           0       -3.110664    0.457857    0.067456
     17          1           0       -3.632727    0.711011    0.834402
 ---------------------------------------------------------------------
 Rotational constants (GHZ):           1.4557962           1.0097074           0.5987929
 Standard basis: 6-31+G(d,p) (6D, 7F)
 There are   225 symmetry adapted cartesian basis functions of A   symmetry.
 There are   225 symmetry adapted basis functions of A   symmetry.
   225 basis functions,   369 primitive gaussians,   225 cartesian basis functions
    40 alpha electrons       39 beta electrons
       nuclear repulsion energy       548.4125143483 Hartrees.
 NAtoms=   17 NActive=   17 NUniq=   17 SFac= 1.00D+00 NAtFMM=   60 NAOKFM=F Big=F
 Integral buffers will be    131072 words long.
 Raffenetti 2 integral format.
 Two-electron integral symmetry is turned on.
 One-electron integrals computed using PRISM.
 NBasis=   225 RedAO= T EigKep=  2.14D-05  NBF=   225
 NBsUse=   225 1.00D-06 EigRej= -1.00D+00 NBFU=   225
 Initial guess from the checkpoint file:  "/scratch/gongke2021/RC/Gau-15003.chk"
 B after Tr=     0.000000    0.000000    0.000000
         Rot=    0.999922   -0.001245    0.000279   -0.012439 Ang=  -1.43 deg.
 Initial guess <Sx>= 0.0000 <Sy>= 0.0000 <Sz>= 0.5000 <S**2>= 0.7634 S= 0.5067
 ExpMin= 4.38D-02 ExpMax= 5.48D+03 ExpMxC= 8.25D+02 IAcc=2 IRadAn=         4 AccDes= 0.00D+00
 Harris functional with IExCor= 1009 and IRadAn=       4 diagonalized for initial guess.
 HarFok:  IExCor= 1009 AccDes= 0.00D+00 IRadAn=         4 IDoV= 1 UseB2=F ITyADJ=14
 ICtDFT=  3500011 ScaDFX=  1.000000  1.000000  1.000000  1.000000
 FoFCou: FMM=F IPFlag=           0 FMFlag=      100000 FMFlg1=           0
         NFxFlg=           0 DoJE=T BraDBF=F KetDBF=T FulRan=T
         wScrn=  0.000000 ICntrl=       500 IOpCl=  0 I1Cent=   200000004 NGrid=           0
         NMat0=    1 NMatS0=      1 NMatT0=    0 NMatD0=    1 NMtDS0=    0 NMtDT0=    0
 Petite list used in FoFCou.
 Requested convergence on RMS density matrix=1.00D-08 within 128 cycles.
 Requested convergence on MAX density matrix=1.00D-06.
 Requested convergence on             energy=1.00D-06.
 No special actions if energy rises.
 SCF Done:  E(UM062X) =  -583.464108660     A.U. after   18 cycles
            NFock= 18  Conv=0.32D-08     -V/T= 2.0080
 <Sx>= 0.0000 <Sy>= 0.0000 <Sz>= 0.5000 <S**2>= 0.7637 S= 0.5068
 <L.S>= 0.000000000000E+00
 Annihilation of the first spin contaminant:
 S**2 before annihilation     0.7637,   after     0.7501
 Calling FoFJK, ICntrl=      2127 FMM=F ISym2X=0 I1Cent= 0 IOpClX= 1 NMat=1 NMatS=1 NMatT=0.
 ***** Axes restored to original set *****
 -------------------------------------------------------------------
 Center     Atomic                   Forces (Hartrees/Bohr)
 Number     Number              X              Y              Z
 -------------------------------------------------------------------
      1        7          -0.056441550   -0.036729021    0.002669592
      2        7           0.027994696    0.055833926    0.001991392
      3        6           0.047726783   -0.003733753   -0.001034148
      4        6          -0.013896980    0.019228180   -0.000938724
      5        7           0.019464742   -0.016593124    0.001621627
      6        1          -0.003463586    0.001680845    0.000011010
      7        1           0.000786761    0.001365822   -0.000069672
      8        1           0.000699258    0.008585169   -0.000448513
      9        6          -0.023283944    0.044492812   -0.021158977
     10        8          -0.008573611   -0.058030401    0.009919803
     11        8           0.010004073   -0.004395492    0.006261765
     12        1           0.004348832    0.012566567   -0.001145716
     13        8           0.002595686   -0.019121933   -0.001146644
     14        1           0.001421468    0.000819899    0.000095997
     15        1           0.022938290    0.006796668    0.000239818
     16        8          -0.032941587   -0.014903377    0.003830772
     17        1           0.000620671    0.002137212   -0.000699382
 -------------------------------------------------------------------
 Cartesian Forces:  Max     0.058030401 RMS     0.020375815

 GradGradGradGradGradGradGradGradGradGradGradGradGradGradGradGradGradGrad
 Berny optimization.
 Using GEDIIS/GDIIS optimizer.
 FormGI is forming the generalized inverse of G from B-inverse, IUseBI=4.
 Internal  Forces:  Max     0.057418522 RMS     0.012174866
 Search for a local minimum.
 Step number   2 out of a maximum of   88
 All quantities printed in internal units (Hartrees-Bohrs-Radians)
 Mixed Optimization -- RFO/linear search
 Update second derivatives using D2CorX and points    1    2
 DE= -4.23D-02 DEPred=-5.71D-02 R= 7.41D-01
 TightC=F SS=  1.41D+00  RLast= 3.11D-01 DXNew= 5.0454D-01 9.3163D-01
 Trust test= 7.41D-01 RLast= 3.11D-01 DXMaxT set to 5.05D-01
 ITU=  1  0
 Use linear search instead of GDIIS.
 Linear search step of   0.601 exceeds DXMaxT=   0.505 but not scaled.
 Quartic linear search produced a step of  2.00000.
 Iteration  1 RMS(Cart)=  0.15888062 RMS(Int)=  0.01983321
 Iteration  2 RMS(Cart)=  0.03793955 RMS(Int)=  0.00333873
 Iteration  3 RMS(Cart)=  0.00132519 RMS(Int)=  0.00326483
 Iteration  4 RMS(Cart)=  0.00000201 RMS(Int)=  0.00326483
 Iteration  5 RMS(Cart)=  0.00000002 RMS(Int)=  0.00326483
 Variable       Old X    -DE/DX   Delta X   Delta X   Delta X     New X
                                 (Linear)    (Quad)   (Total)
    R1        2.55169   0.03376   0.11639   0.00000   0.11984   2.67153
    R2        2.50946   0.02221   0.05148   0.00000   0.05204   2.56150
    R3        1.94049  -0.00174  -0.00867   0.00000  -0.00764   1.93284
    R4        2.59490   0.02562   0.14688   0.00000   0.14706   2.74196
    R5        2.73664  -0.00080   0.14013   0.00000   0.14173   2.87837
    R6        2.62760  -0.01275  -0.04261   0.00000  -0.04372   2.58388
    R7        2.02648   0.00069  -0.02539   0.00000  -0.02539   2.00109
    R8        2.52822   0.01681   0.01707   0.00000   0.01613   2.54435
    R9        2.03916   0.00065   0.00165   0.00000   0.00165   2.04081
   R10        3.37829   0.00402   0.01772   0.00000   0.01912   3.39740
   R11        2.43510  -0.05742  -0.10325   0.00000  -0.10325   2.33185
   R12        2.38980  -0.00597  -0.00695   0.00000  -0.00747   2.38233
   R13        2.93452   0.00402   0.03789   0.00000   0.03653   2.97105
   R14        1.85092   0.00779   0.00950   0.00000   0.00828   1.85920
   R15        3.07884   0.00151  -0.01043   0.00000  -0.01241   3.06643
   R16        1.81621  -0.00076  -0.00141   0.00000  -0.00141   1.81480
   R17        1.85603   0.02043   0.05802   0.00000   0.05618   1.91221
   R18        1.81733  -0.00086  -0.00210   0.00000  -0.00210   1.81523
    A1        2.01237  -0.01938  -0.01948   0.00000  -0.02007   1.99231
    A2        2.16930   0.01724   0.08142   0.00000   0.08640   2.25570
    A3        2.10136   0.00211  -0.06210   0.00000  -0.06650   2.03486
    A4        1.79550   0.00789  -0.03664   0.00000  -0.03603   1.75947
    A5        2.47632  -0.03612  -0.28065   0.00000  -0.27597   2.20035
    A6        1.99835   0.02797   0.31502   0.00000   0.31150   2.30985
    A7        1.88582  -0.00533   0.00150   0.00000   0.00156   1.88738
    A8        2.12536  -0.00117   0.02531   0.00000   0.02524   2.15060
    A9        2.27200   0.00649  -0.02682   0.00000  -0.02686   2.24514
   A10        1.91085   0.01382   0.04288   0.00000   0.04197   1.95283
   A11        2.26463  -0.00838  -0.02717   0.00000  -0.02676   2.23787
   A12        2.10770  -0.00545  -0.01573   0.00000  -0.01530   2.09240
   A13        1.82022   0.00299   0.01173   0.00000   0.01250   1.83272
   A14        2.03372  -0.01800   0.13433   0.00000   0.13098   2.16471
   A15        2.06371   0.00424   0.01167   0.00000   0.01283   2.07654
   A16        2.17449   0.01505  -0.13009   0.00000  -0.13442   2.04006
   A17        2.60834   0.01097   0.10280   0.00000   0.10290   2.71124
   A18        2.61007   0.00143  -0.01644   0.00000  -0.02058   2.58948
   A19        1.93223  -0.00874  -0.05759   0.00000  -0.05899   1.87324
   A20        2.12019  -0.00001   0.00204   0.00000   0.00353   2.12372
   A21        1.88441   0.00436   0.02034   0.00000   0.01880   1.90321
   A22        2.76866   0.01390   0.05961   0.00000   0.05659   2.82525
   A23        2.17844  -0.01606  -0.07027   0.00000  -0.07716   2.10128
   A24        1.96857   0.00630   0.02102   0.00000   0.02370   1.99226
   A25        1.86590   0.00281   0.01190   0.00000   0.01420   1.88010
   A26        3.14106   0.01415   0.17614   0.00000   0.18079   3.32185
   A27        3.12446   0.00009  -0.00058   0.00000   0.00472   3.12918
    D1       -0.00054  -0.00003   0.00257   0.00000   0.00505   0.00451
    D2       -2.94371  -0.00377  -0.03501   0.00000  -0.03505  -2.97876
    D3       -3.12335   0.00137   0.01460   0.00000   0.01474  -3.10861
    D4        0.21667  -0.00238  -0.02298   0.00000  -0.02536   0.19131
    D5       -0.00155  -0.00041  -0.00662   0.00000  -0.00849  -0.01003
    D6        3.12205  -0.00156  -0.01701   0.00000  -0.01515   3.10690
    D7       -0.13352  -0.00262  -0.02471   0.00000  -0.02322  -0.15674
    D8        2.09912  -0.00267  -0.02029   0.00000  -0.01944   2.07968
    D9        3.04129   0.00004  -0.00449   0.00000  -0.00200   3.03929
   D10       -1.00926  -0.00001  -0.00007   0.00000   0.00178  -1.00747
   D11        0.00236   0.00047   0.00257   0.00000   0.00044   0.00279
   D12       -3.13657   0.00142   0.01101   0.00000   0.00947  -3.12711
   D13        3.00983  -0.00495  -0.04106   0.00000  -0.03873   2.97110
   D14       -0.12910  -0.00400  -0.03262   0.00000  -0.02970  -0.15880
   D15        3.09553  -0.00410  -0.01924   0.00000  -0.03056   3.06498
   D16       -0.19936   0.00599   0.05803   0.00000   0.05473  -0.14462
   D17        0.16672  -0.00576  -0.03125   0.00000  -0.03224   0.13448
   D18       -3.12817   0.00433   0.04603   0.00000   0.05304  -3.07512
   D19       -0.00348  -0.00078  -0.00677   0.00000  -0.00583  -0.00931
   D20       -3.14015   0.00034   0.00398   0.00000   0.00450  -3.13564
   D21        3.13515  -0.00185  -0.01623   0.00000  -0.01539   3.11976
   D22       -0.00151  -0.00073  -0.00549   0.00000  -0.00506  -0.00657
   D23        0.00300   0.00074   0.00785   0.00000   0.00871   0.01171
   D24        3.14018  -0.00028  -0.00175   0.00000  -0.00070   3.13947
   D25        0.06754  -0.00149  -0.04017   0.00000  -0.03768   0.02986
   D26        3.04240   0.00624   0.07889   0.00000   0.06586   3.10827
   D27        0.28595   0.00389   0.04137   0.00000   0.03286   0.31881
   D28       -0.03287  -0.00378  -0.02659   0.00000  -0.02270  -0.05557
   D29       -2.39240  -0.00017   0.00195   0.00000   0.00494  -2.38746
   D30        0.22274  -0.00373  -0.02014   0.00000  -0.01783   0.20492
   D31       -2.09097   0.00249   0.01742   0.00000   0.01788  -2.07309
   D32       -0.43210   0.00323   0.02679   0.00000   0.02227  -0.40983
   D33        1.92045  -0.00072  -0.00300   0.00000  -0.00440   1.91605
         Item               Value     Threshold  Converged?
 Maximum Force            0.057419     0.000450     NO 
 RMS     Force            0.012175     0.000300     NO 
 Maximum Displacement     0.814292     0.001800     NO 
 RMS     Displacement     0.186831     0.001200     NO 
 Predicted change in Energy=-5.390071D-02
 GradGradGradGradGradGradGradGradGradGradGradGradGradGradGradGradGradGrad

                          Input orientation:                          
 ---------------------------------------------------------------------
 Center     Atomic      Atomic             Coordinates (Angstroms)
 Number     Number       Type             X           Y           Z
 ---------------------------------------------------------------------
      1          7           0        0.938158   -0.876293    0.016061
      2          7           0        1.050139    0.531768   -0.042325
      3          6           0        2.491839    0.691804   -0.007186
      4          6           0        3.056641   -0.551602    0.060140
      5          7           0        2.126482   -1.524755    0.084786
      6          1           0        2.971277    1.635870   -0.021661
      7          1           0        4.104768   -0.807762    0.106015
      8          1           0        0.098772   -1.460206   -0.009069
      9          6           0       -0.095917    1.528189    0.074915
     10          8           0        0.053335    2.752901    0.096387
     11          8           0       -1.280928    1.098069    0.081322
     12          1           0       -2.041041   -2.281234   -0.039444
     13          8           0       -1.168361   -2.733426   -0.083047
     14          1           0       -1.187961   -3.385109   -0.788170
     15          1           0       -2.400757   -0.005105    0.052255
     16          8           0       -2.873690   -0.897314    0.117309
     17          1           0       -3.447162   -0.868802    0.887392
 ---------------------------------------------------------------------
                    Distance matrix (angstroms):
                    1          2          3          4          5
     1  N    0.000000
     2  N    1.413713   0.000000
     3  C    2.207577   1.450981   0.000000
     4  C    2.143674   2.282595   1.367330   0.000000
     5  N    1.355486   2.324642   2.248350   1.346414   0.000000
     6  H    3.232021   2.215906   1.058929   2.190665   3.273311
     7  H    3.168629   3.338728   2.205233   1.079951   2.104316
     8  H    1.022817   2.207752   3.218373   3.095051   2.030907
     9  C    2.618073   1.523169   2.720802   3.776820   3.776192
    10  O    3.736364   2.438502   3.194550   4.465523   4.753569
    11  O    2.970977   2.402053   3.795610   4.640729   4.299961
    12  H    3.294324   4.179520   5.420978   5.384042   4.237446
    13  O    2.810015   3.947771   5.013484   4.757257   3.513551
    14  H    3.385459   4.572451   5.547260   5.173494   3.899809
    15  H    3.450889   3.493689   4.942339   5.484698   4.775593
    16  O    3.813250   4.179018   5.597294   5.940674   5.039490
    17  H    4.471052   4.801217   6.205441   6.563872   5.669212
                    6          7          8          9         10
     6  H    0.000000
     7  H    2.696746   0.000000
     8  H    4.223403   4.060410   0.000000
     9  C    3.070603   4.806598   2.995908   0.000000
    10  O    3.126672   5.393748   4.214672   1.233960   0.000000
    11  O    4.287316   5.713013   2.908009   1.260672   2.125783
    12  H    6.361396   6.321649   2.292119   4.278819   5.454116
    13  O    6.019229   5.616922   1.797828   4.397323   5.623569
    14  H    6.564833   5.954433   2.442935   5.106660   6.324431
    15  H    5.617563   6.555075   2.892875   2.768355   3.692033
    16  O    6.371811   6.979042   3.027928   3.687937   4.678887
    17  H    6.949541   7.592491   3.705003   4.199587   5.098618
[...]
   zy         0.368383D+00      0.545887D-01      0.607381D-01
   zz         0.104841D+03      0.155358D+02      0.172859D+02

 ----------------------------------------------------------------------
 1\1\GINC-NODE2\Freq\UM062X\6-31+G(d,p)\C3H7N3O4(1-,2)\GONGKE2021\04-Ju
 n-2023\0\\#N Geom=AllCheck Guess=TCheck SCRF=Check GenChk UM062X/6-31+
 G(d,p) Freq\\test\\-1,2\N,0.6377407299,-1.0397126917,0.3351349663\N,0.
 8995649212,0.2022910548,-0.274905993\C,2.1604306367,0.5742240683,0.125
 8277585\C,2.6817118196,-0.5049216553,0.803630032\N,1.8136751507,-1.531
 5551758,0.8789193106\H,2.540967999,1.5499078029,-0.1236518824\H,3.6678
 535865,-0.5983508651,1.2374780615\H,0.1586922943,-1.6924652279,-0.2932
 914883\C,-0.15251658,1.0651548277,-0.7996780166\O,0.2218247657,2.20035
 83297,-1.0951861214\O,-1.2737380737,0.4976863169,-0.8950573005\H,-2.09
 82641115,-2.2163939357,-0.3332904443\O,-1.6766738463,-2.2432829882,-1.
 2058193289\H,-1.5971044783,-1.2917393302,-1.4129162376\H,-2.089233612,
 -0.2123533294,0.6534546084\O,-2.2091259779,-0.870025693,1.3673355864\H
 ,-1.2902125338,-1.0418284481,1.6176980592\\Version=ES64L-G16RevA.03\St
 ate=2-A\HF=-583.5138729\S2=0.765478\S2-1=0.\S2A=0.750072\RMSD=5.591e-0
 9\RMSF=1.524e-05\ZeroPoint=0.1238671\Thermal=0.1355549\Dipole=1.555764
 6,-0.3200013,0.6116745\DipoleDeriv=-0.7421593,-0.4218966,0.1002035,-0.
 1249315,0.0133628,-0.1195723,0.1828396,-0.0145516,-0.0724502,-0.925495
 3,0.7251333,-0.6630329,0.5406854,-0.4449598,0.2715914,-0.5509046,0.361
 3749,-0.4005055,0.0980224,-0.1454784,0.311485,0.0899128,-0.3320563,0.0
 627171,0.1036829,-0.0481984,-0.1071338,0.1188696,0.2308794,0.0248384,-
 0.1733316,0.5293973,-0.2567852,0.1480095,-0.1785186,-0.0094181,0.01453
 76,-0.0088841,-0.0053324,0.1250285,-0.828093,0.2476683,0.0154167,0.105
 4004,-0.3334056,0.1077822,-0.0252319,-0.0326997,-0.0576568,0.0879911,0
 .0297288,-0.0225348,0.0437831,0.1792559,-0.076124,-0.0024582,-0.087268
 5,0.0049409,0.1050661,0.0215482,-0.0951965,0.0255255,0.1058801,0.52009
 34,0.1768817,0.069217,0.1067131,0.2565515,0.062131,-0.0079557,0.028185
 6,0.2168861,2.4830504,0.083959,0.5650437,-0.090299,2.2835388,-0.790149
 2,0.6029056,-0.6634799,0.743454,-0.7645337,-0.2507544,0.0141489,-0.009
 7833,-1.6782287,0.48398,-0.0763987,0.3693985,-0.6438322,-1.7626525,-0.
 3817646,-0.1767858,-0.5180201,-1.0185853,0.040041,-0.1250584,0.0522835
 ,-0.6810757,0.3496783,0.0592775,0.0099896,0.0638716,0.3371994,0.034730
 8,0.0177575,0.0564718,0.3426329,-0.8514662,-0.1957658,-0.1145319,-0.22
 20099,-0.7926706,-0.0443408,-0.121678,-0.0629076,-0.6525171,0.3751323,
 0.1223495,0.0648228,0.2267607,0.5606457,0.0766689,0.0778504,0.0458322,
 0.3238251,0.3996764,0.0388589,-0.0763908,0.0842167,0.3477386,-0.081157
 7,-0.2319622,-0.1221288,0.4659054,-0.6945583,-0.0552515,0.0821758,-0.0
 338085,-0.6934624,-0.0521034,0.1926122,0.02818,-0.8261233,0.3501466,0.
 0501462,-0.0858828,-0.012289,0.2665647,0.0133032,-0.1093854,-0.0266508
 ,0.348622\Polar=101.3103105,3.4031138,94.6214772,10.8772767,-13.007705
 8,70.5924249\Quadrupole=1.3935569,-5.5075532,4.1139963,0.554814,-0.749
 8492,4.0274029\PG=C01 [X(C3H7N3O4)]\NImag=0\\0.51349531,0.16382367,0.5
 6099234,0.23691509,0.05244141,0.34550471,-0.09687537,-0.07452676,-0.01
 293152,0.66775083,-0.03055641,-0.17983524,0.05392919,0.04669485,0.5176
 8189,-0.01267503,0.06610501,-0.08040507,0.20308600,-0.17453346,0.21326
 468,-0.04831314,-0.04117195,0.01498433,-0.27819528,-0.06286261,-0.0805
 0786,0.55000745,-0.02808800,-0.03722978,-0.00124397,-0.05283652,-0.119
 66373,0.01265357,0.11931535,0.78330132,-0.00607051,0.00342699,0.002297
 60,-0.09030951,0.00699765,-0.07424030,0.14180878,-0.24469160,0.2504910
 0,-0.07964405,-0.02248430,-0.02841248,-0.05781874,0.00753524,-0.033046
 90,-0.14158898,0.10830108,-0.07938517,0.76389180,-0.02976598,-0.006159
 44,0.00503930,0.02829462,0.00820089,0.01094244,0.08704881,-0.22910788,
 0.11226873,-0.01300886,0.50600521,-0.01640044,-0.00056721,-0.00749339,
 -0.04608477,0.00593442,-0.00582079,-0.07198904,0.12271959,-0.13932551,
 0.26156156,-0.17634253,0.30077214,-0.19258869,0.06936654,-0.10393187,-
 0.02734829,0.03306674,-0.02131969,0.02718003,-0.06003345,0.02742613,-0
 .18925245,-0.11260864,-0.00354965,0.41931599,0.01038462,-0.11152143,0.
 01489373,0.03700745,-0.03934974,0.02715722,-0.01677204,-0.10399804,0.0
 4299686,-0.09544213,-0.20561851,0.02579783,0.08565536,0.43198380,-0.04
 196878,0.02350313,-0.07355207,-0.02428054,0.03809364,-0.02775975,0.001
 69847,0.02729220,0.01856073,-0.01239873,0.01806206,-0.06112355,0.09591
 282,-0.10535973,0.14616262,-0.00524786,-0.00184668,-0.00423331,-0.0070
 5886,-0.02610427,0.01021686,-0.08839575,-0.10208785,0.01278058,0.01097
 384,0.01060516,0.00068024,0.00022315,0.00291047,-0.00412577,0.08822008
 ,0.00235824,-0.00006881,0.00083830,-0.00027490,-0.00268778,0.00060372,
 -0.11190524,-0.31445967,0.07732985,-0.00891057,-0.00683204,-0.00135264
 ,-0.00087955,0.00137515,0.00234419,0.11832641,0.32503294,-0.00232421,-
 0.00005564,0.00160055,-0.00136451,-0.01138485,0.00245755,0.01754455,0.
 08077847,-0.04676018,0.00924461,0.00780091,-0.00044295,-0.00428579,0.0
 0410179,0.00293910,-0.01860032,-0.08007672,0.04281426,-0.00018079,-0.0
 0476242,-0.00313894,0.00057749,-0.00055071,-0.00172188,-0.00229413,-0.
 00268486,0.00006435,-0.29966624,0.02546264,-0.11777391,-0.01669669,0.0
 0307140,-0.00477333,-0.00060358,0.00064573,0.00039534,0.31934194,-0.00
 603372,-0.00315865,0.00076389,0.00065054,-0.00542382,0.00483470,0.0209
 4737,0.00780372,0.00578331,0.02810127,-0.06014193,0.02307045,-0.020950
 30,0.00830363,-0.01321169,-0.00032695,-0.00055027,-0.00091790,-0.02186
 546,0.05128240,-0.00099279,0.00397688,0.00584335,-0.00234294,0.0038957
 0,0.00452690,-0.00978268,-0.00396256,-0.00213103,-0.11884593,0.0213171
 9,-0.08819096,0.00445823,-0.00305388,-0.00304814,0.00086225,-0.0005093
 4,-0.00180745,0.12711677,-0.02064191,0.08391145,-0.08953179,-0.0891768
 0,-0.10091761,-0.00917993,-0.00381315,0.00057189,0.00469960,-0.0009654
 7,0.00200879,-0.00384198,0.00599119,-0.00670114,-0.02435004,-0.0178755
 3,-0.01551442,0.00008299,-0.00050702,-0.00053058,-0.00076073,-0.000842
 16,0.00038222,0.12228042,-0.11044453,-0.20602746,-0.13225429,-0.015456
 66,-0.02067283,-0.01446977,0.00343710,-0.00348894,0.00130209,0.0045180
 5,-0.00136726,0.00242559,0.00914792,0.01823990,0.01034946,-0.00060018,
 -0.00014149,-0.00041048,0.00092191,0.00069461,-0.00061343,0.10778465,0
 .21535790,-0.14143725,-0.15541356,-0.18605960,0.02038506,0.01927393,0.
 01585700,-0.00193136,0.00538620,-0.00426770,0.00078264,0.00014843,-0.0
 0018993,0.00157991,-0.00345066,-0.00503574,0.00126193,0.00035450,0.000
 51773,0.00012626,0.00034234,0.00070598,0.11805909,0.13274932,0.1841607
 6,0.00424890,0.00691484,0.00437168,-0.11302944,0.01287693,-0.02861452,
 -0.02671032,0.00825656,-0.00582969,-0.00035275,0.00062252,0.00029528,0
 .00811933,-0.01927349,0.01126872,-0.00007641,-0.00010979,-0.00052693,0
 .00086787,-0.00052666,-0.00040306,0.01124828,-0.00207638,0.00179789,0.
 68555802,0.01591673,-0.02089524,0.00731101,0.00052845,-0.09740541,0.02
 424475,0.00868984,0.01871335,-0.00592444,-0.01048114,-0.00150192,-0.00
 418054,-0.00587147,0.00096615,-0.00183760,-0.00459019,-0.00067493,-0.0
 0092288,-0.00100794,0.00160256,-0.00072884,-0.00016452,-0.00400129,0.0
 0031213,0.31013062,0.82273226,-0.00988841,0.00800396,-0.00990278,-0.00
 796267,0.02048203,-0.05926789,-0.01369650,-0.00230931,-0.00826998,0.00
 214832,0.00069270,0.00243468,0.00514641,-0.00503626,0.00272164,0.00166
 877,0.00007783,0.00017663,-0.00009936,0.00020130,0.00118797,0.00190366
 ,-0.00007963,0.00162415,0.01463150,-0.13130487,0.27288862,-0.00245376,
 0.00013919,-0.00079365,0.01421935,0.02634081,-0.01275231,-0.00112358,0
 .00009041,0.00015805,0.00271555,0.00119592,0.00089106,-0.00046872,0.00
 357429,-0.00207917,0.00139451,0.00160602,0.00002799,-0.00004517,0.0000
 7929,-0.00000156,-0.00217415,0.00068447,-0.00069256,-0.14712603,-0.140
 73040,0.03349037,0.16120617,0.00776598,0.00268796,0.00205887,0.0203469
 0,-0.07793532,0.03467386,-0.00590112,-0.00078627,-0.00000589,0.0008554
 2,-0.00110523,0.00121143,0.00379883,-0.00429968,0.00299767,0.00264695,
 -0.00095510,0.00076738,0.00058876,-0.00019653,0.00016495,0.00022947,0.
 00076927,0.00043086,-0.15033982,-0.53431564,0.11760221,0.18078898,0.65
 859304,-0.00272429,0.00134345,0.00318590,-0.00940629,0.03630758,0.0027
 3767,0.00268618,0.00025315,0.00027233,0.00039572,0.00066713,0.00015249
 ,-0.00145611,0.00250735,-0.00124881,-0.00021677,0.00052670,-0.00130159
 ,-0.00014833,0.00001540,-0.00015513,-0.00045731,0.00041125,-0.00080051
 ,0.03499289,0.12079239,-0.11616689,-0.02977489,-0.16794953,0.08508457,
 0.00816952,-0.00592231,-0.00031944,-0.09396845,-0.00125508,-0.02406487
 ,0.00580828,0.01154497,-0.00244977,-0.00537605,-0.00422519,-0.00086485
 ,-0.00319716,0.00818813,-0.00339908,0.00059185,-0.00035676,0.00042707,
 -0.00048171,0.00086164,-0.00051482,-0.00574074,-0.00101420,-0.00030444
 ,-0.41341890,-0.16704181,-0.02697012,-0.02779591,-0.06274510,0.0062637
 2,0.53506420,0.00767715,-0.00004757,-0.00145342,0.00604862,0.01769574,
 0.00619964,0.00043085,0.00017905,0.00051239,0.00085435,-0.00283619,0.0
 0141643,-0.00098741,0.00606642,-0.00261364,0.00122675,-0.00005917,0.00
 037953,0.00025336,-0.00007319,0.00008725,-0.00548492,0.00163591,-0.000
 73432,-0.15412233,-0.18080062,-0.00876788,-0.07599596,-0.04443789,0.00
 578662,0.22095001,0.22279778,-0.00124789,-0.00121980,0.00020555,-0.027
 21647,0.00060995,0.00936359,-0.00056618,0.00349512,0.00334226,-0.00149
 688,-0.00029536,-0.00059739,-0.00024223,0.00006796,0.00130388,-0.00019
 812,-0.00011412,-0.00019411,0.00009756,-0.00014592,-0.00079464,-0.0003
 8132,-0.00057277,-0.00226857,-0.03385840,-0.01131086,-0.08766882,0.011
 83246,0.00993325,0.02825756,0.04893297,-0.00486315,0.06028109,0.000825
 87,-0.00011411,-0.00058686,-0.00005739,0.00003555,0.00008117,0.0003180
 0,0.00047542,-0.00000211,0.00006709,-0.00001890,0.00004498,-0.00015910
 ,0.00066593,-0.00022766,0.00006151,0.00000952,0.00003095,0.00008657,0.
 00005662,0.00002545,-0.00472738,-0.00140077,0.00191898,0.00053918,-0.0
 0104747,0.00054323,0.00002167,0.00080741,-0.00028874,-0.00070328,0.000
 94453,-0.00019363,0.11226210,0.00049546,-0.00010008,-0.00020139,0.0005
 2098,-0.00042536,0.00034568,0.00002822,-0.00023745,0.00005380,0.000222
 45,0.00025183,0.00000064,-0.00010373,-0.00030323,-0.00025535,-0.000023
 24,0.00000988,0.00001623,0.00002915,0.00002685,0.00003575,-0.00053189,
 0.00099606,0.00036518,-0.00233657,-0.00059244,-0.00053309,0.00079158,0
 .00082844,0.00003338,0.00249384,0.00086509,-0.00206056,0.00146698,0.05
 070349,0.00047248,-0.00023190,-0.00101124,-0.00053465,0.00007578,-0.00
 027486,0.00034649,0.00011982,0.00003517,-0.00012157,0.00012649,-0.0001
 0129,-0.00026657,-0.00007002,-0.00037189,-0.00000410,0.00000664,0.0000
 4809,-0.00002537,0.00001143,0.00003677,0.00067986,0.00046186,0.0022033
 5,0.00147369,0.00005688,0.00043045,-0.00048319,-0.00025848,0.00001020,
 -0.00082235,-0.00182064,-0.00230016,-0.20277037,-0.00899751,0.42820922
 ,-0.00501695,-0.00036371,-0.00270586,0.00151986,0.00014844,-0.00022030
 ,-0.00071832,-0.00119489,0.00001126,-0.00041134,0.00036782,-0.00029138
 ,0.00032667,-0.00253134,-0.00026637,-0.00018762,-0.00000070,-0.0000530
 5,-0.00031148,-0.00016957,0.00004791,0.00469810,0.00125257,0.00145756,
 -0.00276238,0.00344865,-0.00140618,0.00040551,-0.00181560,0.00088678,0
 .00515095,-0.00409628,-0.00105301,-0.10576567,0.02015007,0.19499114,0.
 12594155,-0.00141675,0.00039522,-0.00084198,-0.00333550,0.00159701,-0.
 00115797,0.00063521,0.00093595,-0.00008462,-0.00085587,-0.00054148,-0.
 00017766,-0.00048898,0.00080432,-0.00031173,0.00011557,-0.00004172,0.0
 0002251,-0.00013977,-0.00003456,-0.00004595,0.00019381,-0.00397198,0.0
 0002891,0.01643122,0.00168921,0.00135362,-0.00467082,-0.00370303,0.000
 89792,-0.01345407,-0.01879187,-0.00539576,-0.00354617,-0.04587843,0.01
 257799,0.02642192,0.51828653,-0.00423354,0.00012084,0.00036286,0.00072
 131,-0.00030294,-0.00001499,-0.00099495,-0.00091680,-0.00000296,-0.000
 17190,0.00008271,-0.00010818,0.00018913,-0.00150148,0.00059843,-0.0001
 0484,-0.00003937,-0.00012289,-0.00013451,-0.00013426,-0.00004831,0.003
 90060,0.00072862,-0.00441270,-0.00296780,0.00052507,-0.00096498,0.0002
 5566,-0.00084442,0.00037946,0.00091155,-0.00110689,0.00527680,0.196910
 04,-0.03553922,-0.41403989,-0.21714917,-0.06855420,0.48015066,-0.00025
 837,-0.00022274,-0.00004975,-0.00058430,-0.00061519,0.00062103,-0.0003
 8295,-0.00000857,-0.00000985,0.00032467,-0.00002427,0.00015732,0.00009
 358,0.00027296,0.00007937,0.00003495,-0.00000984,-0.00000670,0.0001225
 7,0.00002930,-0.00001742,-0.00343601,0.00239222,-0.00358026,-0.0036214
 3,-0.00488860,-0.00050049,0.00072354,0.00149667,-0.00077631,-0.0032110
 0,0.00459693,0.00260422,-0.00002434,-0.02210541,0.00897872,-0.02347294
 ,-0.01616560,0.02045012,0.03279628,-0.00187562,0.00090839,-0.00086508,
 0.00554561,-0.00145451,0.00160703,-0.00138505,-0.00148051,0.00008764,0
 .00061866,0.00067280,-0.00000573,0.00070491,-0.00226197,0.00053274,-0.
 00021367,0.00005498,-0.00006868,0.00004257,-0.00010299,0.00007748,0.00
 407237,0.00234072,0.00173773,-0.02291507,-0.00374957,-0.00165559,0.005
 86056,0.00462079,-0.00128718,0.01376319,0.00221712,0.00612919,0.002385
 91,-0.00166424,-0.00274684,-0.04228854,-0.45128558,0.11054601,0.034505
 75,0.45214766,0.00090339,-0.00042697,-0.00015197,-0.00008203,-0.000471
 93,0.00026036,0.00034309,0.00010187,0.00009835,0.00022820,0.00004508,0
 .00007997,-0.00007758,0.00040956,-0.00031201,0.00001061,0.00002187,0.0
 0005163,0.00008017,0.00005290,0.00004054,-0.00365794,0.00111886,-0.000
 00982,-0.00265377,-0.00060615,-0.00018526,0.00149131,0.00165806,-0.000
 44371,0.00205159,0.00178303,-0.00383207,0.00605377,0.04514735,-0.01311
 286,0.02272408,0.06431436,-0.06020830,-0.02743615,-0.11041044,0.078936
 81,0.00072705,-0.00042087,-0.00037669,0.00007189,-0.00092618,0.0011420
 7,-0.00020951,-0.00038528,-0.00009290,0.00039278,0.00035446,0.00004471
 ,0.00009675,-0.00041998,-0.00025942,-0.00003357,0.00000803,0.00000186,
 0.00007758,0.00004063,0.00008231,-0.00024139,0.00077507,0.00067849,-0.
 00855789,-0.00480617,0.00015576,0.00161022,0.00297292,0.00018884,0.002
 01902,0.00206384,-0.00420613,0.00187538,-0.00084461,-0.00029108,-0.002
 27644,-0.00063153,0.00009015,0.00188900,0.00136542,0.00075884,0.058467
 86,-0.00257146,0.00082664,0.00041827,0.00362791,-0.00053822,0.00100633
 ,-0.00120809,-0.00090025,-0.00012835,0.00029718,0.00024105,0.00003122,
 0.00072067,-0.00132446,0.00083358,-0.00013234,0.00003879,-0.00004448,-
 0.00000152,-0.00008105,-0.00000006,0.00205950,0.00000329,-0.00086635,-
 0.01193500,-0.00319867,-0.00202223,0.00194368,0.00153498,0.00009547,0.
 00827410,-0.00259118,-0.00220965,-0.00001313,-0.00546394,-0.00248516,-
 0.00142668,0.00072274,0.00301089,0.00139566,0.00203753,-0.00289993,0.0
 2285442,0.23546054,0.00248913,-0.00123172,-0.00130270,-0.00548787,0.00
 115354,-0.00136472,0.00130786,0.00093903,0.00003575,-0.00061620,-0.000
 19495,-0.00025196,-0.00110062,0.00123810,-0.00075181,0.00010206,-0.000
 03286,0.00014820,-0.00009308,0.00006473,-0.00002026,0.00018202,-0.0005
 2763,0.00066827,0.01841940,0.00582663,0.00657621,-0.00475086,-0.005397
 43,-0.00076691,-0.01431407,-0.00393471,-0.00295412,-0.00023611,-0.0025
 2361,0.00272498,-0.00009883,0.00289434,-0.00117194,0.00087131,-0.00333
 131,-0.00312305,-0.01682708,-0.22852968,0.26561936,-0.00785325,0.00102
 480,0.00369385,0.00237885,0.00012819,0.00006289,-0.00158739,-0.0002573
 2,-0.00036610,-0.00019427,-0.00093834,0.00031769,0.00111821,0.00004886
 ,0.00095548,-0.00007589,0.00003387,-0.00005374,-0.00013573,-0.00011887
 ,-0.00011963,0.00047274,-0.00052883,-0.00155849,-0.00076454,0.00284070
 ,-0.00131291,0.00004395,-0.00192185,0.00040393,0.00146275,-0.00283414,
 0.00606588,-0.00476915,0.00074710,0.00051629,0.00421769,0.00085129,0.0
 0115070,-0.00157123,-0.00056799,-0.00040457,-0.05512563,-0.02064010,0.
 01786212,0.53159940,0.00149610,0.00126261,0.00045496,-0.00174498,0.000
 78513,-0.00182797,0.00085373,0.00114123,0.00005804,-0.00044397,-0.0004
 7958,0.00007419,-0.00045443,0.00132779,-0.00053401,0.00017255,-0.00003
 736,-0.00002434,0.00001971,0.00003170,-0.00003812,-0.00246957,-0.00090
 599,0.00092919,0.01008296,0.00174522,0.00255611,-0.00195045,-0.0011906
 3,-0.00031044,-0.01016863,-0.00163828,0.00948989,0.00154830,0.00036117
 ,0.00506926,0.00127324,0.00096230,-0.00698993,-0.00063906,-0.00384216,
 0.00022003,-0.05534170,-0.22126393,0.22059358,-0.03692830,0.26257304,0
 .00291043,0.00049435,0.00061399,0.00301181,-0.00120178,0.00139602,-0.0
 0041395,-0.00040474,0.00023742,0.00072217,0.00053106,0.00014934,0.0005
 5258,-0.00063480,0.00001741,-0.00001399,0.00001136,-0.00011991,0.00015
 627,0.00002697,0.00002953,-0.00229269,0.00012605,0.00004333,-0.0132523
 8,-0.00435366,-0.00495356,0.00349795,0.00416890,0.00061298,0.01476502,
 0.01043610,-0.00831764,0.00119554,0.00495793,-0.00078116,0.00175348,-0
 .00570345,-0.00686031,-0.00098128,-0.00062039,0.00269325,0.05547943,0.
 22457021,-0.25502192,0.07031084,-0.26988564,0.32920036,0.00049737,-0.0
 0025641,-0.00156696,-0.00240224,-0.00014315,-0.00085853,0.00150598,0.0
 0055842,0.00025768,-0.00021887,0.00064703,-0.00033766,-0.00241257,0.00
 053504,-0.00062160,0.00009667,-0.00003344,0.00007346,0.00010221,0.0000
 6702,0.00004569,0.00050199,0.00060758,0.00145656,0.00583848,-0.0009252
 7,0.00214861,-0.00115314,0.00042520,-0.00056901,-0.00437336,-0.0015253
 7,0.00112717,0.00014892,-0.00100038,-0.00213942,-0.00133718,0.00005604
 ,0.00117746,0.00057797,0.00038099,-0.00033301,-0.00078308,-0.00324480,
 0.00229082,-0.46921654,0.09469451,-0.13740123,0.47262739,0.00083452,-0
 .00202946,-0.00128879,-0.00109063,-0.00056870,0.00161522,-0.00018038,-
 0.00072209,0.00001754,0.00032315,0.00031966,-0.00005547,-0.00008301,-0
 .00039009,0.00011508,-0.00007848,-0.00000341,0.00003914,-0.00002256,0.
 00001753,0.00003891,0.00150002,0.00053958,-0.00159382,-0.00168055,-0.0
 0031302,0.00073908,0.00025245,-0.00010915,-0.00009063,0.00010727,-0.00
 018116,-0.00153740,-0.00225561,0.00062236,-0.00189560,0.00082459,-0.00
 114463,0.00091538,-0.00001020,0.00084152,-0.00005757,0.03334153,-0.005
 50388,0.01299395,0.05906093,-0.04083226,0.03748151,-0.09084302,0.04945
 721,-0.00372738,-0.00026923,0.00026430,0.00079959,0.00114154,-0.000715
 42,-0.00083724,-0.00021005,-0.00037295,-0.00058745,-0.00089139,0.00005
 728,0.00096490,-0.00006356,0.00089995,-0.00008607,0.00001009,-0.000004
 65,-0.00012802,-0.00011576,-0.00008657,0.00276489,-0.00074511,-0.00273
 601,0.00085548,0.00210100,-0.00066020,-0.00031666,-0.00121169,0.000190
 39,0.00067190,-0.00130633,0.00089676,-0.00249863,-0.00084522,-0.001704
 88,0.00137195,0.00018368,0.00118723,-0.00040387,0.00027344,-0.00078186
 ,-0.03656913,0.00921992,-0.00904338,-0.09752424,0.04016521,-0.05893914
 ,0.13524997,-0.04743654,0.07154915\\0.00001370,0.00002556,-0.00003361,
 -0.00000468,-0.00003896,0.00004259,-0.00003016,-0.00000218,0.00001260,
 0.00003520,0.00000518,-0.00000180,-0.00001433,0.00000894,-0.00000446,0
 .00001312,-0.00000732,0.00000127,0.00000112,0.00000109,0.00000507,-0.0
 0001493,-0.00000198,-0.00000210,0.00000767,0.00002567,-0.00002383,-0.0
 0000204,-0.00002300,0.00001211,-0.00000883,-0.00000390,-0.00000963,0.0
 0000692,0.00001480,-0.00000313,0.00000545,-0.00000411,-0.00000013,-0.0
 0000015,0.00000279,-0.00000270,-0.00000958,-0.00000169,0.00002468,0.00
 000525,-0.00000233,-0.00001034,-0.00000373,0.00000145,-0.00000659\\\@


 ALL MY ATTEMPTS TO ADAPT THE THEORETICAL FOUNDATIONS OF PHYSICS
 TO THESE NEW NOTIONS FAILED COMPLETELY. IT WAS AS IF THE GROUND HAD
 BEEN PULLED OUT FROM UNDER ONE WITH NO FIRM FOUNDATION TO BE SEEN ANYWHERE,
 UPON WHICH ONE COULD HAVE BUILT.  -- A.EINSTEIN
 Job cpu time:       0 days  1 hours 53 minutes 35.4 seconds.
 Elapsed time:       0 days  0 hours  5 minutes 41.6 seconds.
 File lengths (MBytes):  RWF=    190 Int=      0 D2E=      0 Chk=      7 Scr=      1
 Normal termination of Gaussian 16 at Sun Jun  4 12:52:09 2023.
