 Entering Gaussian System, Link 0=/opt/soft/g16/g16
 Initial command:
 /opt/soft/g16/l1.exe "/scratch/gongke2021/TS/Gau-14311.inp" -scrdir="/scratch/gongke2021/TS/"
 Entering Link 1 = /opt/soft/g16/l1.exe PID=     14312.
  
 Copyright (c) 1988,1990,1992,1993,1995,1998,2003,2009,2016,
            Gaussian, Inc.  All Rights Reserved.
  
 This is part of the Gaussian(R) 16 program.  It is based on
 the Gaussian(R) 09 system (copyright 2009, Gaussian, Inc.),
 the Gaussian(R) 03 system (copyright 2003, Gaussian, Inc.),
 the Gaussian(R) 98 system (copyright 1998, Gaussian, Inc.),
 the Gaussian(R) 94 system (copyright 1995, Gaussian, Inc.),
 the Gaussian 92(TM) system (copyright 1992, Gaussian, Inc.),
 the Gaussian 90(TM) system (copyright 1990, Gaussian, Inc.),
 the Gaussian 88(TM) system (copyright 1988, Gaussian, Inc.),
 the Gaussian 86(TM) system (copyright 1986, Carnegie Mellon
 University), and the Gaussian 82(TM) system (copyright 1983,
 Carnegie Mellon University). Gaussian is a federally registered
 trademark of Gaussian, Inc.
  
 This software contains proprietary and confidential information,
 including trade secrets, belonging to Gaussian, Inc.
  
 This software is provided under written license and may be
 used, copied, transmitted, or stored only in accord with that
 written license.
  
 The following legend is applicable only to US Government
 contracts under FAR:
  
                    RESTRICTED RIGHTS LEGEND
  
 Use, reproduction and disclosure by the US Government is
 subject to restrictions as set forth in subparagraphs (a)
 and (c) of the Commercial Computer Software - Restricted
 Rights clause in FAR 52.227-19.
  
 Gaussian, Inc.
 340 Quinnipiac St., Bldg. 40, Wallingford CT 06492
  
  
 ---------------------------------------------------------------
 Warning -- This program may not be used in any manner that
 competes with the business of Gaussian, Inc. or will provide
 assistance to any competitor of Gaussian, Inc.  The licensee
 of this program is prohibited from giving any competitor of
 Gaussian, Inc. access to this program.  By using this program,
 the user acknowledges that Gaussian, Inc. is engaged in the
 business of creating and licensing software in the field of
 computational chemistry and represents and warrants to the
 licensee that it is not a competitor of Gaussian, Inc. and that
 it will not use this program in any manner prohibited above.
 ---------------------------------------------------------------
  

 Cite this work as:
 Gaussian 16, Revision A.03,
 M. J. Frisch, G. W. Trucks, H. B. Schlegel, G. E. Scuseria, 
 M. A. Robb, J. R. Cheeseman, G. Scalmani, V. Barone, 
 G. A. Petersson, H. Nakatsuji, X. Li, M. Caricato, A. V. Marenich, 
 J. Bloino, B. G. Janesko, R. Gomperts, B. Mennucci, H. P. Hratchian, 
 J. V. Ortiz, A. F. Izmaylov, J. L. Sonnenberg, D. Williams-Young, 
 F. Ding, F. Lipparini, F. Egidi, J. Goings, B. Peng, A. Petrone, 
 T. Henderson, D. Ranasinghe, V. G. Zakrzewski, J. Gao, N. Rega, 
 G. Zheng, W. Liang, M. Hada, M. Ehara, K. Toyota, R. Fukuda, 
 J. Hasegawa, M. Ishida, T. Nakajima, Y. Honda, O. Kitao, H. Nakai, 
 T. Vreven, K. Throssell, J. A. Montgomery, Jr., J. E. Peralta, 
 F. Ogliaro, M. J. Bearpark, J. J. Heyd, E. N. Brothers, K. N. Kudin, 
 V. N. Staroverov, T. A. Keith, R. Kobayashi, J. Normand, 
 K. Raghavachari, A. P. Rendell, J. C. Burant, S. S. Iyengar, 
 J. Tomasi, M. Cossi, J. M. Millam, M. Klene, C. Adamo, R. Cammi, 
 J. W. Ochterski, R. L. Martin, K. Morokuma, O. Farkas, 
 J. B. Foresman, and D. J. Fox, Gaussian, Inc., Wallingford CT, 2016.
 
 ******************************************
 Gaussian 16:  ES64L-G16RevA.03 25-Dec-2016
                 4-Jun-2023 
 ******************************************
 %mem=10GB
 %nprocshared=24
 Will use up to   24 processors via shared memory.
 ----------------------------------------------------------------------
 # opt=(calcfc,ts,noeigentest) freq 6-31+g(d,p) integral=grid=ultrafine
  m062x
 ----------------------------------------------------------------------
 1/5=1,10=4,11=1,18=20,26=4,38=1/1,3;
 2/9=110,12=2,17=6,18=5,40=1/2;
 3/5=1,6=6,7=111,11=2,25=1,30=1,71=2,74=-55,75=-5,140=1/1,2,3;
 4//1;
 5/5=2,38=5/2;
 8/6=4,10=90,11=11/1;
 11/6=1,8=1,9=11,15=111,16=1/1,2,10;
 10/6=1,13=1/2;
 6/7=2,8=2,9=2,10=2,28=1/1;
 7/10=1,18=20,25=1/1,2,3,16;
 1/5=1,10=4,11=1,18=20,26=4/3(2);
 2/9=110/2;
 99//99;
 2/9=110/2;
 3/5=1,6=6,7=111,11=2,25=1,30=1,71=1,74=-55,75=-5/1,2,3;
 4/5=5,16=3,69=1/1;
 5/5=2,38=5/2;
 7//1,2,3,16;
 1/5=1,11=1,18=20,26=4/3(-5);
 2/9=110/2;
 6/7=2,8=2,9=2,10=2,19=2,28=1/1;
 99/9=1/99;
 ----
 test
 ----
 Symbolic Z-matrix:
 Charge = -1 Multiplicity = 2
 N                    -0.7585   -1.04543   0.29844 
 N                     0.03582   0.10544   0.34414 
 C                    -0.81032   1.16094   0.08555 
 C                    -2.04206   0.61337  -0.19919 
 N                    -2.02951  -0.73554  -0.15354 
 H                    -0.43513   2.17026   0.08257 
 H                    -2.95249   1.13659  -0.46027 
 H                     0.46152  -1.81675  -0.30129 
 C                     1.47858   0.00853  -0.01646 
 O                     2.04805   1.10501  -0.06258 
 O                     1.8467   -1.16542  -0.19689 
 
 Add virtual bond connecting atoms N1         and H8         Dist= 2.95D+00.
 Add virtual bond connecting atoms O11        and H8         Dist= 2.90D+00.

 GradGradGradGradGradGradGradGradGradGradGradGradGradGradGradGradGradGrad
 Berny optimization.
 Initialization pass.
                           ----------------------------
                           !    Initial Parameters    !
                           ! (Angstroms and Degrees)  !
 --------------------------                            --------------------------
 ! Name  Definition              Value          Derivative Info.                !
 --------------------------------------------------------------------------------
 ! R1    R(1,2)                  1.3991         calculate D2E/DX2 analytically  !
 ! R2    R(1,5)                  1.3841         calculate D2E/DX2 analytically  !
 ! R3    R(1,8)                  1.563          calculate D2E/DX2 analytically  !
 ! R4    R(2,3)                  1.3773         calculate D2E/DX2 analytically  !
 ! R5    R(2,9)                  1.4903         calculate D2E/DX2 analytically  !
 ! R6    R(3,4)                  1.3777         calculate D2E/DX2 analytically  !
 ! R7    R(3,6)                  1.0768         calculate D2E/DX2 analytically  !
 ! R8    R(4,5)                  1.3497         calculate D2E/DX2 analytically  !
 ! R9    R(4,7)                  1.082          calculate D2E/DX2 analytically  !
 ! R10   R(8,11)                 1.5342         calculate D2E/DX2 analytically  !
 ! R11   R(9,10)                 1.2364         calculate D2E/DX2 analytically  !
 ! R12   R(9,11)                 1.2435         calculate D2E/DX2 analytically  !
 ! A1    A(2,1,5)              110.3547         calculate D2E/DX2 analytically  !
 ! A2    A(2,1,8)               88.5851         calculate D2E/DX2 analytically  !
 ! A3    A(5,1,8)              134.5841         calculate D2E/DX2 analytically  !
 ! A4    A(1,2,3)              105.9898         calculate D2E/DX2 analytically  !
 ! A5    A(1,2,9)              119.2244         calculate D2E/DX2 analytically  !
 ! A6    A(3,2,9)              126.81           calculate D2E/DX2 analytically  !
 ! A7    A(2,3,4)              106.4675         calculate D2E/DX2 analytically  !
 ! A8    A(2,3,6)              120.318          calculate D2E/DX2 analytically  !
 ! A9    A(4,3,6)              133.1164         calculate D2E/DX2 analytically  !
 ! A10   A(3,4,5)              112.4515         calculate D2E/DX2 analytically  !
 ! A11   A(3,4,7)              127.5845         calculate D2E/DX2 analytically  !
 ! A12   A(5,4,7)              119.9499         calculate D2E/DX2 analytically  !
 ! A13   A(1,5,4)              104.084          calculate D2E/DX2 analytically  !
 ! A14   A(1,8,11)             117.9766         calculate D2E/DX2 analytically  !
 ! A15   A(2,9,10)             113.4067         calculate D2E/DX2 analytically  !
 ! A16   A(2,9,11)             112.5257         calculate D2E/DX2 analytically  !
 ! A17   A(10,9,11)            134.0657         calculate D2E/DX2 analytically  !
 ! A18   A(8,11,9)              98.2441         calculate D2E/DX2 analytically  !
 ! D1    D(5,1,2,3)              7.8384         calculate D2E/DX2 analytically  !
 ! D2    D(5,1,2,9)           -143.1465         calculate D2E/DX2 analytically  !
 ! D3    D(8,1,2,3)            145.5504         calculate D2E/DX2 analytically  !
 ! D4    D(8,1,2,9)             -5.4345         calculate D2E/DX2 analytically  !
 ! D5    D(2,1,5,4)             -8.0928         calculate D2E/DX2 analytically  !
 ! D6    D(8,1,5,4)           -117.281          calculate D2E/DX2 analytically  !
 ! D7    D(2,1,8,11)            15.091          calculate D2E/DX2 analytically  !
 ! D8    D(5,1,8,11)           132.7483         calculate D2E/DX2 analytically  !
 ! D9    D(1,2,3,4)             -4.2488         calculate D2E/DX2 analytically  !
 ! D10   D(1,2,3,6)            178.8969         calculate D2E/DX2 analytically  !
 ! D11   D(9,2,3,4)            143.8328         calculate D2E/DX2 analytically  !
 ! D12   D(9,2,3,6)            -33.0216         calculate D2E/DX2 analytically  !
 ! D13   D(1,2,9,10)           173.5297         calculate D2E/DX2 analytically  !
 ! D14   D(1,2,9,11)            -6.9059         calculate D2E/DX2 analytically  !
 ! D15   D(3,2,9,10)            29.1482         calculate D2E/DX2 analytically  !
 ! D16   D(3,2,9,11)          -151.2874         calculate D2E/DX2 analytically  !
 ! D17   D(2,3,4,5)             -0.7497         calculate D2E/DX2 analytically  !
 ! D18   D(2,3,4,7)           -179.3659         calculate D2E/DX2 analytically  !
 ! D19   D(6,3,4,5)            175.5296         calculate D2E/DX2 analytically  !
 ! D20   D(6,3,4,7)             -3.0866         calculate D2E/DX2 analytically  !
 ! D21   D(3,4,5,1)              5.4167         calculate D2E/DX2 analytically  !
 ! D22   D(7,4,5,1)           -175.8489         calculate D2E/DX2 analytically  !
 ! D23   D(1,8,11,9)           -20.2669         calculate D2E/DX2 analytically  !
 ! D24   D(2,9,11,8)            14.5322         calculate D2E/DX2 analytically  !
 ! D25   D(10,9,11,8)         -166.0242         calculate D2E/DX2 analytically  !
 --------------------------------------------------------------------------------
 Trust Radius=3.00D-01 FncErr=1.00D-07 GrdErr=1.00D-06 EigMax=2.50D+02 EigMin=1.00D-04
 Number of steps in this run=     65 maximum allowed number of steps=    100.
 Search for a saddle point of order  1.
 GradGradGradGradGradGradGradGradGradGradGradGradGradGradGradGradGradGrad

                          Input orientation:                          
 ---------------------------------------------------------------------
 Center     Atomic      Atomic             Coordinates (Angstroms)
 Number     Number       Type             X           Y           Z
 ---------------------------------------------------------------------
      1          7           0       -0.758500   -1.045433    0.298439
      2          7           0        0.035823    0.105438    0.344135
      3          6           0       -0.810319    1.160941    0.085546
      4          6           0       -2.042061    0.613365   -0.199190
      5          7           0       -2.029507   -0.735535   -0.153535
      6          1           0       -0.435132    2.170262    0.082572
      7          1           0       -2.952494    1.136589   -0.460271
      8          1           0        0.461519   -1.816750   -0.301294
      9          6           0        1.478576    0.008533   -0.016462
     10          8           0        2.048046    1.105012   -0.062580
     11          8           0        1.846696   -1.165417   -0.196892
 ---------------------------------------------------------------------
                    Distance matrix (angstroms):
                    1          2          3          4          5
     1  N    0.000000
     2  N    1.399122   0.000000
     3  C    2.217227   1.377284   0.000000
     4  C    2.155638   2.206987   1.377716   0.000000
     5  N    1.384116   2.284841   2.267201   1.349731   0.000000
     6  H    3.239114   2.133943   1.076802   2.255114   3.322865
     7  H    3.185980   3.261960   2.210752   1.082042   2.109701
     8  H    1.563027   2.071859   3.260960   3.490529   2.719571
     9  C    2.492893   1.490288   2.564662   3.576884   3.588742
    10  O    3.554075   2.283332   2.862747   4.121814   4.474631
    11  O    2.654580   2.277508   3.542801   4.276272   3.900209
                    6          7          8          9         10
     6  H    0.000000
     7  H    2.774936   0.000000
     8  H    4.104582   4.516964   0.000000
     9  C    2.888799   4.593894   2.108836   0.000000
    10  O    2.705919   5.016429   3.333278   1.236402   0.000000
    11  O    4.051123   5.329242   1.534226   1.243473   2.283294
                   11
    11  O    0.000000
 Stoichiometry    C3H3N3O2(1-,2)
 Framework group  C1[X(C3H3N3O2)]
 Deg. of freedom    27
 Full point group                 C1      NOp   1
 Largest Abelian subgroup         C1      NOp   1
 Largest concise Abelian subgroup C1      NOp   1
                         Standard orientation:                         
 ---------------------------------------------------------------------
 Center     Atomic      Atomic             Coordinates (Angstroms)
 Number     Number       Type             X           Y           Z
 ---------------------------------------------------------------------
      1          7           0       -0.756621   -1.054473    0.303771
      2          7           0        0.021393    0.107629    0.345650
      3          6           0       -0.839147    1.150046    0.081553
      4          6           0       -2.062694    0.584028   -0.202454
      5          7           0       -2.031252   -0.764360   -0.151122
      6          1           0       -0.478173    2.164519    0.074822
      7          1           0       -2.980038    1.093309   -0.466892
      8          1           0        0.474913   -1.811067   -0.291161
      9          6           0        1.465846    0.029504   -0.012694
     10          8           0        2.019917    1.133676   -0.062687
     11          8           0        1.850662   -1.139900   -0.187725
 ---------------------------------------------------------------------
 Rotational constants (GHZ):           5.1004077           1.7707838           1.3479927
 Standard basis: 6-31+G(d,p) (6D, 7F)
 There are   167 symmetry adapted cartesian basis functions of A   symmetry.
 There are   167 symmetry adapted basis functions of A   symmetry.
   167 basis functions,   277 primitive gaussians,   167 cartesian basis functions
    30 alpha electrons       29 beta electrons
       nuclear repulsion energy       357.8789830215 Hartrees.
 NAtoms=   11 NActive=   11 NUniq=   11 SFac= 1.00D+00 NAtFMM=   60 NAOKFM=F Big=F
 Integral buffers will be    131072 words long.
 Raffenetti 2 integral format.
 Two-electron integral symmetry is turned on.
 One-electron integrals computed using PRISM.
 NBasis=   167 RedAO= T EigKep=  4.62D-05  NBF=   167
 NBsUse=   167 1.00D-06 EigRej= -1.00D+00 NBFU=   167
 ExpMin= 4.38D-02 ExpMax= 5.48D+03 ExpMxC= 8.25D+02 IAcc=3 IRadAn=         5 AccDes= 0.00D+00
 Harris functional with IExCor= 1009 and IRadAn=       5 diagonalized for initial guess.
 HarFok:  IExCor= 1009 AccDes= 0.00D+00 IRadAn=         5 IDoV= 1 UseB2=F ITyADJ=14
 ICtDFT=  3500011 ScaDFX=  1.000000  1.000000  1.000000  1.000000
 FoFCou: FMM=F IPFlag=           0 FMFlag=      100000 FMFlg1=           0
         NFxFlg=           0 DoJE=T BraDBF=F KetDBF=T FulRan=T
         wScrn=  0.000000 ICntrl=       500 IOpCl=  0 I1Cent=   200000004 NGrid=           0
         NMat0=    1 NMatS0=      1 NMatT0=    0 NMatD0=    1 NMtDS0=    0 NMtDT0=    0
 Petite list used in FoFCou.
 Initial guess <Sx>= 0.0000 <Sy>= 0.0000 <Sz>= 0.5000 <S**2>= 0.7500 S= 0.5000
 Keep R1 and R2 ints in memory in canonical form, NReq=220618657.
 Requested convergence on RMS density matrix=1.00D-08 within 128 cycles.
 Requested convergence on MAX density matrix=1.00D-06.
 Requested convergence on             energy=1.00D-06.
 No special actions if energy rises.
 SCF Done:  E(UM062X) =  -430.610732174     A.U. after   19 cycles
            NFock= 19  Conv=0.75D-08     -V/T= 2.0088
 <Sx>= 0.0000 <Sy>= 0.0000 <Sz>= 0.5000 <S**2>= 0.7643 S= 0.5071
 <L.S>=  0.00000000000    
 Annihilation of the first spin contaminant:
 S**2 before annihilation     0.7643,   after     0.7501
 DoSCS=F DFT=T ScalE2(SS,OS)=  1.000000  1.000000
 Range of M.O.s used for correlation:     1   167
 NBasis=   167 NAE=    30 NBE=    29 NFC=     0 NFV=     0
 NROrb=    167 NOA=    30 NOB=    29 NVA=   137 NVB=   138

 **** Warning!!: The largest alpha MO coefficient is  0.48741098D+02


 **** Warning!!: The largest beta MO coefficient is  0.46937229D+02

 Symmetrizing basis deriv contribution to polar:
 IMax=3 JMax=2 DiffMx= 0.00D+00
 G2DrvN: will do    12 centers at a time, making    1 passes.
 Calling FoFCou, ICntrl=  3107 FMM=F I1Cent=   0 AccDes= 0.00D+00.
 End of G2Drv F.D. properties file   721 does not exist.
 End of G2Drv F.D. properties file   722 does not exist.
 End of G2Drv F.D. properties file   788 does not exist.
          IDoAtm=11111111111
          Differentiating once with respect to nuclear coordinates.
 Keep R1 and R2 ints in memory in canonical form, NReq=220545632.
          There are    36 degrees of freedom in the 1st order CPHF.  IDoFFX=6 NUNeed=     0.
     30 vectors produced by pass  0 Test12= 2.25D-14 2.78D-09 XBig12= 3.53D-01 8.68D-02.
 AX will form    30 AO Fock derivatives at one time.
     30 vectors produced by pass  1 Test12= 2.25D-14 2.78D-09 XBig12= 4.25D-02 4.62D-02.
     30 vectors produced by pass  2 Test12= 2.25D-14 2.78D-09 XBig12= 2.15D-03 6.93D-03.
     30 vectors produced by pass  3 Test12= 2.25D-14 2.78D-09 XBig12= 4.99D-05 1.34D-03.
     30 vectors produced by pass  4 Test12= 2.25D-14 2.78D-09 XBig12= 1.17D-06 1.25D-04.
     30 vectors produced by pass  5 Test12= 2.25D-14 2.78D-09 XBig12= 1.80D-08 1.33D-05.
     30 vectors produced by pass  6 Test12= 2.25D-14 2.78D-09 XBig12= 2.04D-10 1.34D-06.
     28 vectors produced by pass  7 Test12= 2.25D-14 2.78D-09 XBig12= 1.74D-12 1.13D-07.
      9 vectors produced by pass  8 Test12= 2.25D-14 2.78D-09 XBig12= 1.43D-14 1.33D-08.
 InvSVY:  IOpt=1 It=  1 EMax= 1.11D-15
 Solved reduced A of dimension   247 with    30 vectors.
 End of Minotr F.D. properties file   721 does not exist.
 End of Minotr F.D. properties file   722 does not exist.
 End of Minotr F.D. properties file   788 does not exist.

 **********************************************************************

            Population analysis using the SCF density.

 **********************************************************************

 Orbital symmetries:
 Alpha Orbitals:
       Occupied  (A) (A) (A) (A) (A) (A) (A) (A) (A) (A) (A) (A)
                 (A) (A) (A) (A) (A) (A) (A) (A) (A) (A) (A) (A)
                 (A) (A) (A) (A) (A) (A)
       Virtual   (A) (A) (A) (A) (A) (A) (A) (A) (A) (A) (A) (A)
                 (A) (A) (A) (A) (A) (A) (A) (A) (A) (A) (A) (A)
                 (A) (A) (A) (A) (A) (A) (A) (A) (A) (A) (A) (A)
                 (A) (A) (A) (A) (A) (A) (A) (A) (A) (A) (A) (A)
                 (A) (A) (A) (A) (A) (A) (A) (A) (A) (A) (A) (A)
                 (A) (A) (A) (A) (A) (A) (A) (A) (A) (A) (A) (A)
                 (A) (A) (A) (A) (A) (A) (A) (A) (A) (A) (A) (A)
                 (A) (A) (A) (A) (A) (A) (A) (A) (A) (A) (A) (A)
                 (A) (A) (A) (A) (A) (A) (A) (A) (A) (A) (A) (A)
                 (A) (A) (A) (A) (A) (A) (A) (A) (A) (A) (A) (A)
                 (A) (A) (A) (A) (A) (A) (A) (A) (A) (A) (A) (A)
                 (A) (A) (A) (A) (A)
 Beta  Orbitals:
       Occupied  (A) (A) (A) (A) (A) (A) (A) (A) (A) (A) (A) (A)
                 (A) (A) (A) (A) (A) (A) (A) (A) (A) (A) (A) (A)
                 (A) (A) (A) (A) (A)
       Virtual   (A) (A) (A) (A) (A) (A) (A) (A) (A) (A) (A) (A)
                 (A) (A) (A) (A) (A) (A) (A) (A) (A) (A) (A) (A)
                 (A) (A) (A) (A) (A) (A) (A) (A) (A) (A) (A) (A)
                 (A) (A) (A) (A) (A) (A) (A) (A) (A) (A) (A) (A)
                 (A) (A) (A) (A) (A) (A) (A) (A) (A) (A) (A) (A)
                 (A) (A) (A) (A) (A) (A) (A) (A) (A) (A) (A) (A)
                 (A) (A) (A) (A) (A) (A) (A) (A) (A) (A) (A) (A)
                 (A) (A) (A) (A) (A) (A) (A) (A) (A) (A) (A) (A)
                 (A) (A) (A) (A) (A) (A) (A) (A) (A) (A) (A) (A)
                 (A) (A) (A) (A) (A) (A) (A) (A) (A) (A) (A) (A)
                 (A) (A) (A) (A) (A) (A) (A) (A) (A) (A) (A) (A)
                 (A) (A) (A) (A) (A) (A)
 The electronic state is 2-A.
 Alpha  occ. eigenvalues --  -19.49404 -19.45336 -14.66658 -14.66541 -14.62023
 Alpha  occ. eigenvalues --  -10.53618 -10.42428 -10.42318  -1.05825  -1.00202
 Alpha  occ. eigenvalues --   -0.95243  -0.83109  -0.73004  -0.58894  -0.53293
 Alpha  occ. eigenvalues --   -0.48457  -0.44589  -0.40741  -0.37284  -0.37058
 Alpha  occ. eigenvalues --   -0.34363  -0.33033  -0.28599  -0.23838  -0.21577
 Alpha  occ. eigenvalues --   -0.21025  -0.19968  -0.18504  -0.16781  -0.01590
 Alpha virt. eigenvalues --    0.13769   0.15750   0.16640   0.18059   0.18476
 Alpha virt. eigenvalues --    0.18685   0.19232   0.21708   0.22383   0.23443
 Alpha virt. eigenvalues --    0.24607   0.25852   0.26685   0.27375   0.28066
 Alpha virt. eigenvalues --    0.29086   0.31551   0.34115   0.35232   0.35898
 Alpha virt. eigenvalues --    0.36636   0.38310   0.38599   0.39200   0.39849
 Alpha virt. eigenvalues --    0.40674   0.41715   0.42310   0.42437   0.43441
 Alpha virt. eigenvalues --    0.44939   0.45842   0.46062   0.47933   0.48038
 Alpha virt. eigenvalues --    0.49111   0.50621   0.51442   0.53635   0.55795
 Alpha virt. eigenvalues --    0.56234   0.64049   0.65202   0.68370   0.79664
 Alpha virt. eigenvalues --    0.86934   0.89905   0.92866   0.95749   0.98040
 Alpha virt. eigenvalues --    1.01839   1.03148   1.04772   1.05862   1.08672
 Alpha virt. eigenvalues --    1.11037   1.12899   1.13879   1.16990   1.18734
 Alpha virt. eigenvalues --    1.20000   1.24476   1.27662   1.30679   1.32096
 Alpha virt. eigenvalues --    1.34743   1.36190   1.39690   1.42870   1.44466
 Alpha virt. eigenvalues --    1.49261   1.49992   1.52226   1.53902   1.55751
 Alpha virt. eigenvalues --    1.57010   1.59822   1.62279   1.64101   1.66247
 Alpha virt. eigenvalues --    1.68107   1.72164   1.74284   1.75221   1.77221
 Alpha virt. eigenvalues --    1.92027   1.94582   1.98349   2.00637   2.01909
 Alpha virt. eigenvalues --    2.06629   2.07771   2.11352   2.14571   2.18189
 Alpha virt. eigenvalues --    2.20045   2.22860   2.24460   2.29927   2.34190
 Alpha virt. eigenvalues --    2.36379   2.38630   2.42088   2.43862   2.47317
 Alpha virt. eigenvalues --    2.51464   2.55267   2.59219   2.67119   2.68245
 Alpha virt. eigenvalues --    2.70086   2.73636   2.80318   2.83946   2.87563
 Alpha virt. eigenvalues --    2.94422   2.95454   2.97759   3.01081   3.07940
 Alpha virt. eigenvalues --    3.10240   3.12702   3.25055   3.25902   3.29152
 Alpha virt. eigenvalues --    3.39654   3.43574   3.46827   3.87088   4.13930
 Alpha virt. eigenvalues --    4.33088   4.39903   4.42744   4.58658   4.73363
 Alpha virt. eigenvalues --    4.79131   4.83153
  Beta  occ. eigenvalues --  -19.49339 -19.45244 -14.66286 -14.66233 -14.61581
  Beta  occ. eigenvalues --  -10.53568 -10.42442 -10.42235  -1.05420  -0.99393
  Beta  occ. eigenvalues --   -0.94985  -0.81865  -0.72269  -0.57765  -0.52755
  Beta  occ. eigenvalues --   -0.47736  -0.43952  -0.39274  -0.36813  -0.36778
  Beta  occ. eigenvalues --   -0.33909  -0.31757  -0.27439  -0.22868  -0.20087
  Beta  occ. eigenvalues --   -0.19772  -0.18110  -0.17103  -0.14621
  Beta virt. eigenvalues --    0.13435   0.13747   0.15412   0.16103   0.17412
  Beta virt. eigenvalues --    0.18320   0.18373   0.19313   0.20541   0.21479
  Beta virt. eigenvalues --    0.23395   0.24421   0.25705   0.26620   0.27638
  Beta virt. eigenvalues --    0.28119   0.28901   0.31159   0.34063   0.34869
  Beta virt. eigenvalues --    0.35802   0.36479   0.37711   0.38634   0.38961
  Beta virt. eigenvalues --    0.39558   0.40474   0.41280   0.42053   0.42510
  Beta virt. eigenvalues --    0.43385   0.44857   0.45426   0.45925   0.47704
  Beta virt. eigenvalues --    0.48005   0.48812   0.50037   0.51040   0.53372
  Beta virt. eigenvalues --    0.55697   0.56614   0.64568   0.65267   0.68619
  Beta virt. eigenvalues --    0.79936   0.87116   0.89207   0.93816   0.96025
  Beta virt. eigenvalues --    0.98204   1.01910   1.03354   1.04999   1.06350
  Beta virt. eigenvalues --    1.08965   1.11025   1.13836   1.14261   1.18045
  Beta virt. eigenvalues --    1.20185   1.20719   1.24810   1.27794   1.30802
  Beta virt. eigenvalues --    1.32142   1.34956   1.36810   1.40156   1.43138
  Beta virt. eigenvalues --    1.44389   1.49464   1.50228   1.52763   1.54195
  Beta virt. eigenvalues --    1.55985   1.57172   1.60281   1.62837   1.64576
  Beta virt. eigenvalues --    1.66800   1.68378   1.72749   1.75020   1.75645
  Beta virt. eigenvalues --    1.77814   1.92228   1.94641   1.98643   2.00765
  Beta virt. eigenvalues --    2.02072   2.07137   2.08023   2.11560   2.14858
  Beta virt. eigenvalues --    2.18530   2.20304   2.22937   2.24873   2.30201
  Beta virt. eigenvalues --    2.34563   2.36772   2.39458   2.42407   2.44145
  Beta virt. eigenvalues --    2.47868   2.51887   2.55618   2.59527   2.67475
  Beta virt. eigenvalues --    2.68576   2.70472   2.74052   2.80788   2.84463
  Beta virt. eigenvalues --    2.88120   2.95080   2.95756   2.98143   3.01660
  Beta virt. eigenvalues --    3.08421   3.10904   3.13087   3.25233   3.26328
  Beta virt. eigenvalues --    3.29292   3.39887   3.43856   3.47055   3.87532
  Beta virt. eigenvalues --    4.14431   4.33231   4.40035   4.43009   4.58669
  Beta virt. eigenvalues --    4.73993   4.79161   4.83794
          Condensed to atoms (all electrons):
               1          2          3          4          5          6
     1  N    8.241813  -0.446660  -0.905174   0.833327  -0.709276   0.007396
     2  N   -0.446660   7.673498   0.277497  -0.300880   0.282336  -0.039877
     3  C   -0.905174   0.277497   7.275644  -1.139869   0.534392   0.414651
     4  C    0.833327  -0.300880  -1.139869   6.687542  -0.308531  -0.040796
     5  N   -0.709276   0.282336   0.534392  -0.308531   7.546048  -0.000007
     6  H    0.007396  -0.039877   0.414651  -0.040796  -0.000007   0.499051
     7  H    0.024896  -0.013788  -0.038041   0.400563  -0.064543   0.000643
     8  H    0.245469  -0.122384  -0.050465   0.051018  -0.053725  -0.000076
     9  C    0.057064   0.132722  -0.195879   0.000374  -0.028114  -0.003127
    10  O    0.002281  -0.179052  -0.019875   0.026607   0.004628  -0.003306
    11  O   -0.109683  -0.105824   0.037680  -0.005198   0.019651  -0.000497
               7          8          9         10         11
     1  N    0.024896   0.245469   0.057064   0.002281  -0.109683
     2  N   -0.013788  -0.122384   0.132722  -0.179052  -0.105824
     3  C   -0.038041  -0.050465  -0.195879  -0.019875   0.037680
     4  C    0.400563   0.051018   0.000374   0.026607  -0.005198
     5  N   -0.064543  -0.053725  -0.028114   0.004628   0.019651
     6  H    0.000643  -0.000076  -0.003127  -0.003306  -0.000497
     7  H    0.571611  -0.000023  -0.000573  -0.000166   0.000084
     8  H   -0.000023   0.547304   0.081568   0.006550   0.014294
     9  C   -0.000573   0.081568   4.604278   0.495877   0.231885
    10  O   -0.000166   0.006550   0.495877   8.403625  -0.121832
    11  O    0.000084   0.014294   0.231885  -0.121832   8.597165
          Atomic-Atomic Spin Densities.
               1          2          3          4          5          6
     1  N    0.301939  -0.155292   0.115166   0.058304  -0.190499  -0.000883
     2  N   -0.155292   0.420275  -0.149359  -0.099442   0.109119   0.001017
     3  C    0.115166  -0.149359   0.569556  -0.151119  -0.081297  -0.002034
     4  C    0.058304  -0.099442  -0.151119   0.097874  -0.056901   0.001188
     5  N   -0.190499   0.109119  -0.081297  -0.056901   0.568761   0.000266
     6  H   -0.000883   0.001017  -0.002034   0.001188   0.000266  -0.011921
     7  H    0.002450  -0.000983  -0.003887   0.006139  -0.002993  -0.000022
     8  H    0.098963  -0.092203  -0.016658   0.039501  -0.051147  -0.000020
     9  C   -0.036689   0.055698  -0.005298  -0.027000   0.003689   0.000910
    10  O    0.017457  -0.026194   0.001571   0.021894  -0.006737   0.000201
    11  O   -0.016730   0.023374   0.005666  -0.015648   0.011312   0.000124
               7          8          9         10         11
     1  N    0.002450   0.098963  -0.036689   0.017457  -0.016730
     2  N   -0.000983  -0.092203   0.055698  -0.026194   0.023374
     3  C   -0.003887  -0.016658  -0.005298   0.001571   0.005666
     4  C    0.006139   0.039501  -0.027000   0.021894  -0.015648
     5  N   -0.002993  -0.051147   0.003689  -0.006737   0.011312
     6  H   -0.000022  -0.000020   0.000910   0.000201   0.000124
     7  H    0.003201   0.000009   0.000018   0.000020  -0.000002
     8  H    0.000009   0.240361   0.028893   0.002908  -0.072146
     9  C    0.000018   0.028893   0.088167  -0.035449  -0.020770
    10  O    0.000020   0.002908  -0.035449   0.070324   0.001836
    11  O   -0.000002  -0.072146  -0.020770   0.001836   0.070876
 Mulliken charges and spin densities:
               1          2
     1  N   -0.241452   0.194188
     2  N   -0.157587   0.086009
     3  C   -0.190560   0.282307
     4  C   -0.204156  -0.125209
     5  N   -0.222860   0.303572
     6  H    0.165945  -0.011174
     7  H    0.119337   0.003951
     8  H    0.280470   0.178461
     9  C    0.623926   0.052169
    10  O   -0.615338   0.047832
    11  O   -0.557725  -0.012107
 Sum of Mulliken charges =  -1.00000   1.00000
 Mulliken charges and spin densities with hydrogens summed into heavy atoms:
               1          2
     1  N   -0.241452   0.194188
     2  N   -0.157587   0.086009
     3  C   -0.024615   0.271133
     4  C   -0.084820  -0.121259
     5  N   -0.222860   0.303572
     9  C    0.623926   0.052169
    10  O   -0.615338   0.047832
    11  O   -0.277254   0.166355
 APT charges:
               1
     1  N   -0.264640
     2  N   -0.233464
     3  C   -0.532409
     4  C   -0.415143
     5  N   -0.360021
     6  H    0.465412
     7  H    0.630617
     8  H    0.341694
     9  C    0.245876
    10  O   -0.433282
    11  O   -0.444641
 Sum of APT charges =  -1.00000
 APT charges with hydrogens summed into heavy atoms:
               1
     1  N   -0.264640
     2  N   -0.233464
     3  C   -0.066997
     4  C    0.215474
     5  N   -0.360021
     9  C    0.245876
    10  O   -0.433282
    11  O   -0.102947
 Electronic spatial extent (au):  <R**2>=            844.6137
 Charge=             -1.0000 electrons
 Dipole moment (field-independent basis, Debye):
    X=             -2.1150    Y=              1.4926    Z=             -0.2389  Tot=              2.5996
 Quadrupole moment (field-independent basis, Debye-Ang):
   XX=            -71.8380   YY=            -56.1741   ZZ=            -51.0211
   XY=             -7.7280   XZ=              1.6643   YZ=              0.2862
 Traceless Quadrupole moment (field-independent basis, Debye-Ang):
   XX=            -12.1603   YY=              3.5036   ZZ=              8.6567
   XY=             -7.7280   XZ=              1.6643   YZ=              0.2862
 Octapole moment (field-independent basis, Debye-Ang**2):
  XXX=             -6.0065  YYY=              2.2435  ZZZ=             -0.2351  XYY=             -1.5031
  XXY=              9.2444  XXZ=              2.3695  XZZ=              7.9247  YZZ=             -1.0707
  YYZ=             -1.2004  XYZ=              1.1182
 Hexadecapole moment (field-independent basis, Debye-Ang**3):
 XXXX=           -882.8914 YYYY=           -310.2913 ZZZZ=            -73.4673 XXXY=            -46.3966
 XXXZ=             11.2902 YYYX=            -13.6462 YYYZ=              2.3217 ZZZX=             -0.9385
 ZZZY=              0.4126 XXYY=           -223.5749 XXZZ=           -146.6886 YYZZ=            -70.6348
 XXYZ=             -7.0609 YYXZ=              2.4808 ZZXY=              0.7461
 N-N= 3.578789830215D+02 E-N=-1.733510708537D+03  KE= 4.268712643667D+02
  Exact polarizability:   0.000   0.000   0.000   0.000   0.000   0.000
 Approx polarizability: 118.389   0.103 112.097   0.674   3.336  60.963
                          Isotropic Fermi Contact Couplings
        Atom                 a.u.       MegaHertz       Gauss      10(-4) cm-1
     1  N(14)              0.17826      57.59720      20.55211      19.21236
     2  N(14)              0.08011      25.88530       9.23652       8.63441
     3  C(13)              0.03535      39.73976      14.18014      13.25576
     4  C(13)             -0.02994     -33.65455     -12.00878     -11.22595
     5  N(14)              0.09046      29.22722      10.42900       9.74915
     6  H(1)              -0.00361     -16.11597      -5.75058      -5.37571
     7  H(1)               0.00090       4.00303       1.42838       1.33527
     8  H(1)               0.06239     278.87974      99.51123      93.02427
     9  C(13)              0.01774      19.94370       7.11641       6.65250
    10  O(17)              0.01147      -6.95581      -2.48201      -2.32021
    11  O(17)              0.04930     -29.88290     -10.66296      -9.96786
 --------------------------------------------------------
       Center         ----  Spin Dipole Couplings  ----
                      3XX-RR        3YY-RR        3ZZ-RR
 --------------------------------------------------------
     1   Atom       -0.239145     -0.211482      0.450627
     2   Atom       -0.209131     -0.212096      0.421227
     3   Atom       -0.101181     -0.098245      0.199426
     4   Atom        0.033113      0.057152     -0.090266
     5   Atom       -0.321953     -0.342709      0.664662
     6   Atom       -0.012498      0.015853     -0.003354
     7   Atom        0.000394      0.005412     -0.005805
     8   Atom       -0.000207      0.003632     -0.003425
     9   Atom        0.056661     -0.035749     -0.020912
    10   Atom       -0.000767     -0.075574      0.076342
    11   Atom       -0.043522      0.070930     -0.027408
 --------------------------------------------------------
                        XY            XZ            YZ
 --------------------------------------------------------
     1   Atom        0.059360     -0.026378     -0.234197
     2   Atom        0.005904      0.023917     -0.009946
     3   Atom       -0.002264     -0.052562      0.006450
     4   Atom        0.006081      0.031968     -0.011812
     5   Atom        0.010740     -0.122602     -0.049245
     6   Atom        0.010861     -0.004540     -0.002115
     7   Atom        0.000550      0.001339     -0.000540
     8   Atom       -0.009313     -0.000647      0.004634
     9   Atom       -0.007768      0.054505     -0.007323
    10   Atom       -0.038449      0.130064     -0.060479
    11   Atom        0.052420     -0.084976     -0.097041
 --------------------------------------------------------


 ---------------------------------------------------------------------------------
              Anisotropic Spin Dipole Couplings in Principal Axis System
 ---------------------------------------------------------------------------------

       Atom             a.u.   MegaHertz   Gauss  10(-4) cm-1        Axes

              Baa    -0.3171   -12.230    -4.364    -4.079 -0.5396  0.8103  0.2286
     1 N(14)  Bbb    -0.2104    -8.116    -2.896    -2.707  0.8400  0.5000  0.2107
              Bcc     0.5275    20.346     7.260     6.787 -0.0564 -0.3057  0.9504
 
              Baa    -0.2175    -8.389    -2.993    -2.798 -0.6421  0.7658  0.0360
     2 N(14)  Bbb    -0.2048    -7.898    -2.818    -2.634  0.7657  0.6429 -0.0190
              Bcc     0.4223    16.286     5.811     5.433  0.0377 -0.0153  0.9992
 
              Baa    -0.1102   -14.790    -5.278    -4.934  0.9816  0.0969  0.1646
     3 C(13)  Bbb    -0.0983   -13.188    -4.706    -4.399 -0.0919  0.9951 -0.0378
              Bcc     0.2085    27.979     9.983     9.333 -0.1675  0.0220  0.9856
 
              Baa    -0.0991   -13.302    -4.746    -4.437 -0.2378  0.0824  0.9678
     4 C(13)  Bbb     0.0404     5.417     1.933     1.807  0.9535 -0.1704  0.2487
              Bcc     0.0588     7.885     2.814     2.630  0.1854  0.9819 -0.0381
 
              Baa    -0.3473   -13.394    -4.779    -4.468 -0.4147  0.9099 -0.0060
     5 N(14)  Bbb    -0.3348   -12.914    -4.608    -4.308  0.9018  0.4119  0.1309
              Bcc     0.6821    26.308     9.387     8.775 -0.1216 -0.0489  0.9914
 
              Baa    -0.0172    -9.152    -3.266    -3.053  0.9222 -0.2868  0.2595
     6 H(1)   Bbb    -0.0029    -1.548    -0.552    -0.516 -0.1991  0.2230  0.9543
              Bcc     0.0201    10.700     3.818     3.569  0.3316  0.9317 -0.1485
 
              Baa    -0.0061    -3.264    -1.165    -1.089 -0.2056  0.0555  0.9771
     7 H(1)   Bbb     0.0006     0.338     0.120     0.113  0.9737 -0.0883  0.2099
              Bcc     0.0055     2.927     1.044     0.976  0.0979  0.9945 -0.0359
 
              Baa    -0.0090    -4.813    -1.717    -1.605  0.6332  0.6305 -0.4489
     8 H(1)   Bbb    -0.0032    -1.729    -0.617    -0.577  0.5038  0.1045  0.8575
              Bcc     0.0123     6.542     2.334     2.182 -0.5875  0.7691  0.2515
 
              Baa    -0.0497    -6.667    -2.379    -2.224 -0.4324  0.2187  0.8748
     9 C(13)  Bbb    -0.0360    -4.825    -1.722    -1.609  0.1740  0.9721 -0.1570
              Bcc     0.0856    11.492     4.101     3.833  0.8848 -0.0843  0.4584
 
              Baa    -0.1017     7.358     2.626     2.454 -0.5567  0.5731  0.6014
    10 O(17)  Bbb    -0.0908     6.571     2.345     2.192  0.6003  0.7779 -0.1856
              Bcc     0.1925   -13.929    -4.970    -4.646  0.5742 -0.2577  0.7771
 
              Baa    -0.1262     9.128     3.257     3.045  0.6400  0.1956  0.7430
    11 O(17)  Bbb    -0.0432     3.124     1.115     1.042  0.6573 -0.6402 -0.3976
              Bcc     0.1693   -12.252    -4.372    -4.087  0.3979  0.7429 -0.5383
 

 ---------------------------------------------------------------------------------

 Calling FoFJK, ICntrl=    100147 FMM=F ISym2X=0 I1Cent= 0 IOpClX= 1 NMat=1 NMatS=1 NMatT=0.
 ***** Axes restored to original set *****
 -------------------------------------------------------------------
 Center     Atomic                   Forces (Hartrees/Bohr)
 Number     Number              X              Y              Z
 -------------------------------------------------------------------
      1        7           0.041633708   -0.033299145   -0.021903732
      2        7          -0.009293960   -0.007444055    0.002373443
      3        6           0.001324675    0.009850614   -0.002490921
      4        6           0.001605940    0.004796551   -0.003826550
      5        7           0.023893049   -0.001977985    0.009501341
      6        1          -0.001134228    0.001074015   -0.000756599
      7        1          -0.000101961    0.001090600   -0.000458491
      8        1          -0.018791853    0.031348658    0.016705863
      9        6          -0.032350047    0.047330123    0.011424038
     10        8           0.005353087   -0.013503208   -0.002297277
     11        8          -0.012138410   -0.039266168   -0.008271114
 -------------------------------------------------------------------
 Cartesian Forces:  Max     0.047330123 RMS     0.018496596
 FormGI is forming the generalized inverse of G from B-inverse, IUseBI=4.

 GradGradGradGradGradGradGradGradGradGradGradGradGradGradGradGradGradGrad
 Berny optimization.
 Internal  Forces:  Max     0.046138473 RMS     0.010521324
 Search for a saddle point.
 Step number   1 out of a maximum of   65
 All quantities printed in internal units (Hartrees-Bohrs-Radians)
 Swapping is turned off.
 Second derivative matrix not updated -- analytic derivatives used.
 ITU=  0
     Eigenvalues ---   -0.06233  -0.04223   0.00562   0.00814   0.01319
     Eigenvalues ---    0.01515   0.02380   0.03254   0.04859   0.06186
     Eigenvalues ---    0.07563   0.09463   0.10723   0.12998   0.17250
     Eigenvalues ---    0.20350   0.23078   0.26798   0.29430   0.30841
     Eigenvalues ---    0.37588   0.38802   0.39665   0.44649   0.51329
     Eigenvalues ---    0.61025   0.79810
 Eigenvectors required to have negative eigenvalues:
                          R10       R3        A3        D6        A2
   1                   -0.68215   0.64971   0.13702   0.12759  -0.12473
                          R5        A18       D8        A17       R12
   1                   -0.10670   0.09437  -0.08438  -0.08098   0.06721
 RFO step:  Lambda0=1.548355809D-03 Lambda=-7.85265438D-02.
 Linear search not attempted -- option 19 set.
 Maximum step size (   0.300) exceeded in Quadratic search.
    -- Step size scaled by   0.290
 Iteration  1 RMS(Cart)=  0.03978762 RMS(Int)=  0.00165992
 Iteration  2 RMS(Cart)=  0.00146887 RMS(Int)=  0.00038514
 Iteration  3 RMS(Cart)=  0.00000212 RMS(Int)=  0.00038513
 Iteration  4 RMS(Cart)=  0.00000000 RMS(Int)=  0.00038513
 Variable       Old X    -DE/DX   Delta X   Delta X   Delta X     New X
                                 (Linear)    (Quad)   (Total)
    R1        2.64396  -0.00361   0.00000   0.00588   0.00551   2.64947
    R2        2.61560  -0.01689   0.00000   0.00654   0.00662   2.62222
    R3        2.95369  -0.04614   0.00000  -0.16709  -0.16628   2.78742
    R4        2.60269   0.00342   0.00000   0.01097   0.01085   2.61354
    R5        2.81624  -0.01891   0.00000  -0.07202  -0.07290   2.74333
    R6        2.60351  -0.00665   0.00000   0.00361   0.00359   2.60710
    R7        2.03486   0.00061   0.00000  -0.00023  -0.00023   2.03463
    R8        2.55062   0.00694   0.00000  -0.00139  -0.00128   2.54935
    R9        2.04476   0.00072   0.00000   0.00101   0.00101   2.04577
   R10        2.89927  -0.02387   0.00000  -0.20420  -0.20346   2.69581
   R11        2.33646  -0.00942   0.00000  -0.00516  -0.00516   2.33130
   R12        2.34982   0.02935   0.00000   0.03848   0.03807   2.38789
    A1        1.92605  -0.01293   0.00000  -0.00944  -0.00977   1.91628
    A2        1.54610   0.01505   0.00000  -0.00018   0.00018   1.54628
    A3        2.34894  -0.00426   0.00000   0.01635   0.01658   2.36552
    A4        1.84987   0.01451   0.00000   0.00974   0.01022   1.86009
    A5        2.08086  -0.01094   0.00000  -0.04333  -0.04399   2.03687
    A6        2.21325  -0.00502   0.00000   0.02999   0.03026   2.24351
    A7        1.85821  -0.01022   0.00000  -0.01192  -0.01217   1.84604
    A8        2.09995   0.00673   0.00000   0.00864   0.00876   2.10871
    A9        2.32332   0.00340   0.00000   0.00295   0.00305   2.32637
   A10        1.96265  -0.00327   0.00000   0.00792   0.00789   1.97054
   A11        2.22677   0.00077   0.00000  -0.00482  -0.00481   2.22196
   A12        2.09352   0.00251   0.00000  -0.00315  -0.00314   2.09038
   A13        1.81661   0.01235   0.00000   0.00296   0.00307   1.81968
   A14        2.05908   0.00443   0.00000   0.07777   0.07917   2.13825
   A15        1.97932   0.01733   0.00000   0.04998   0.05056   2.02988
   A16        1.96394  -0.00828   0.00000  -0.02163  -0.02280   1.94115
   A17        2.33989  -0.00904   0.00000  -0.02833  -0.02775   2.31214
   A18        1.71468  -0.00033   0.00000  -0.00882  -0.00874   1.70594
    D1        0.13681  -0.00245   0.00000   0.00459   0.00462   0.14143
    D2       -2.49838   0.00069   0.00000  -0.00137  -0.00157  -2.49994
    D3        2.54033  -0.00417   0.00000   0.01946   0.01979   2.56012
    D4       -0.09485  -0.00102   0.00000   0.01350   0.01360  -0.08125
    D5       -0.14125   0.00329   0.00000  -0.00401  -0.00401  -0.14525
    D6       -2.04694  -0.00229   0.00000  -0.00468  -0.00489  -2.05182
    D7        0.26339   0.00363   0.00000   0.00397   0.00409   0.26748
    D8        2.31689  -0.00111   0.00000  -0.00229  -0.00218   2.31471
    D9       -0.07416   0.00065   0.00000  -0.00310  -0.00313  -0.07729
   D10        3.12234   0.00204   0.00000   0.00221   0.00226   3.12460
   D11        2.51036  -0.00436   0.00000  -0.02548  -0.02580   2.48456
   D12       -0.57634  -0.00297   0.00000  -0.02018  -0.02041  -0.59674
   D13        3.02866   0.00113   0.00000   0.00168   0.00162   3.03029
   D14       -0.12053   0.00279   0.00000   0.00353   0.00370  -0.11683
   D15        0.50873  -0.00047   0.00000   0.00806   0.00822   0.51695
   D16       -2.64046   0.00118   0.00000   0.00991   0.01029  -2.63017
   D17       -0.01308   0.00102   0.00000  -0.00016  -0.00019  -0.01327
   D18       -3.13053   0.00055   0.00000   0.00252   0.00256  -3.12797
   D19        3.06357  -0.00057   0.00000  -0.00629  -0.00640   3.05717
   D20       -0.05387  -0.00104   0.00000  -0.00361  -0.00365  -0.05753
   D21        0.09454  -0.00164   0.00000   0.00324   0.00328   0.09782
   D22       -3.06914  -0.00123   0.00000   0.00074   0.00073  -3.06841
   D23       -0.35372  -0.00062   0.00000   0.00096   0.00067  -0.35305
   D24        0.25363  -0.00195   0.00000  -0.01204  -0.01212   0.24152
   D25       -2.89767   0.00032   0.00000  -0.00920  -0.00912  -2.90679
         Item               Value     Threshold  Converged?
 Maximum Force            0.046138     0.000450     NO 
 RMS     Force            0.010521     0.000300     NO 
 Maximum Displacement     0.136879     0.001800     NO 
 RMS     Displacement     0.040505     0.001200     NO 
 Predicted change in Energy=-1.899749D-02
 GradGradGradGradGradGradGradGradGradGradGradGradGradGradGradGradGradGrad

                          Input orientation:                          
 ---------------------------------------------------------------------
 Center     Atomic      Atomic             Coordinates (Angstroms)
 Number     Number       Type             X           Y           Z
 ---------------------------------------------------------------------
      1          7           0       -0.718206   -1.045253    0.279693
      2          7           0        0.048834    0.126801    0.340067
      3          6           0       -0.816408    1.177618    0.095330
      4          6           0       -2.033750    0.599827   -0.200611
      5          7           0       -1.994813   -0.748442   -0.176003
      6          1           0       -0.464616    2.195175    0.103336
      7          1           0       -2.955002    1.106345   -0.458887
      8          1           0        0.459229   -1.744317   -0.268660
      9          6           0        1.451083    0.007853   -0.016318
     10          8           0        2.090444    1.061054   -0.079017
     11          8           0        1.775852   -1.199656   -0.198461
 ---------------------------------------------------------------------
                    Distance matrix (angstroms):
                    1          2          3          4          5
     1  N    0.000000
     2  N    1.402037   0.000000
     3  C    2.232664   1.383024   0.000000
     4  C    2.160472   2.203008   1.379618   0.000000
     5  N    1.387617   2.282295   2.274196   1.349056   0.000000
     6  H    3.255117   2.144258   1.076682   2.258251   3.329326
     7  H    3.190319   3.258967   2.210390   1.082577   2.107658
     8  H    1.475037   2.009988   3.208962   3.422658   2.650033
     9  C    2.429500   1.451710   2.553885   3.539556   3.531527
    10  O    3.528982   2.283994   2.914407   4.151685   4.469117
    11  O    2.544169   2.243232   3.529526   4.213219   3.797633
                    6          7          8          9         10
     6  H    0.000000
     7  H    2.775548   0.000000
     8  H    4.063430   4.451902   0.000000
     9  C    2.910085   4.562471   2.029175   0.000000
    10  O    2.801395   5.059929   3.250681   1.233671   0.000000
    11  O    4.078683   5.269388   1.426562   1.263617   2.285616
                   11
    11  O    0.000000
 Stoichiometry    C3H3N3O2(1-,2)
 Framework group  C1[X(C3H3N3O2)]
 Deg. of freedom    27
 Full point group                 C1      NOp   1
 Largest Abelian subgroup         C1      NOp   1
 Largest concise Abelian subgroup C1      NOp   1
                         Standard orientation:                         
 ---------------------------------------------------------------------
 Center     Atomic      Atomic             Coordinates (Angstroms)
 Number     Number       Type             X           Y           Z
 ---------------------------------------------------------------------
      1          7           0       -0.715058   -1.046441    0.299642
      2          7           0        0.030507    0.139998    0.346579
      3          6           0       -0.853833    1.172085    0.090661
      4          6           0       -2.060540    0.568950   -0.198183
      5          7           0       -1.997020   -0.778029   -0.158626
      6          1           0       -0.520648    2.195911    0.087175
      7          1           0       -2.990962    1.055691   -0.461566
      8          1           0        0.474738   -1.729978   -0.241555
      9          6           0        1.434569    0.042675   -0.009226
     10          8           0        2.054601    1.106592   -0.083965
     11          8           0        1.781237   -1.160664   -0.178126
 ---------------------------------------------------------------------
 Rotational constants (GHZ):           5.0946012           1.8047606           1.3669447
 Standard basis: 6-31+G(d,p) (6D, 7F)
 There are   167 symmetry adapted cartesian basis functions of A   symmetry.
 There are   167 symmetry adapted basis functions of A   symmetry.
   167 basis functions,   277 primitive gaussians,   167 cartesian basis functions
    30 alpha electrons       29 beta electrons
       nuclear repulsion energy       359.5005574527 Hartrees.
 NAtoms=   11 NActive=   11 NUniq=   11 SFac= 1.00D+00 NAtFMM=   60 NAOKFM=F Big=F
 Integral buffers will be    131072 words long.
 Raffenetti 2 integral format.
 Two-electron integral symmetry is turned on.
 One-electron integrals computed using PRISM.
 NBasis=   167 RedAO= T EigKep=  4.83D-05  NBF=   167
 NBsUse=   167 1.00D-06 EigRej= -1.00D+00 NBFU=   167
 Initial guess from the checkpoint file:  "/scratch/gongke2021/TS/Gau-14312.chk"
 B after Tr=    -0.000000    0.000000   -0.000000
         Rot=    0.999993    0.003382   -0.001010    0.001339 Ang=   0.43 deg.
 Initial guess <Sx>= 0.0000 <Sy>= 0.0000 <Sz>= 0.5000 <S**2>= 0.7639 S= 0.5069
 ExpMin= 4.38D-02 ExpMax= 5.48D+03 ExpMxC= 8.25D+02 IAcc=2 IRadAn=         4 AccDes= 0.00D+00
 Harris functional with IExCor= 1009 and IRadAn=       4 diagonalized for initial guess.
 HarFok:  IExCor= 1009 AccDes= 0.00D+00 IRadAn=         4 IDoV= 1 UseB2=F ITyADJ=14
 ICtDFT=  3500011 ScaDFX=  1.000000  1.000000  1.000000  1.000000
 FoFCou: FMM=F IPFlag=           0 FMFlag=      100000 FMFlg1=           0
         NFxFlg=           0 DoJE=T BraDBF=F KetDBF=T FulRan=T
         wScrn=  0.000000 ICntrl=       500 IOpCl=  0 I1Cent=   200000004 NGrid=           0
         NMat0=    1 NMatS0=      1 NMatT0=    0 NMatD0=    1 NMtDS0=    0 NMtDT0=    0
 Petite list used in FoFCou.
 Keep R1 and R2 ints in memory in canonical form, NReq=220618657.
 Requested convergence on RMS density matrix=1.00D-08 within 128 cycles.
 Requested convergence on MAX density matrix=1.00D-06.
 Requested convergence on             energy=1.00D-06.
 No special actions if energy rises.
 SCF Done:  E(UM062X) =  -430.628444947     A.U. after   18 cycles
            NFock= 18  Conv=0.96D-08     -V/T= 2.0087
 <Sx>= 0.0000 <Sy>= 0.0000 <Sz>= 0.5000 <S**2>= 0.7634 S= 0.5067
 <L.S>=  0.00000000000    
 Annihilation of the first spin contaminant:
 S**2 before annihilation     0.7634,   after     0.7501
 Calling FoFJK, ICntrl=      2127 FMM=F ISym2X=0 I1Cent= 0 IOpClX= 1 NMat=1 NMatS=1 NMatT=0.
 ***** Axes restored to original set *****
 -------------------------------------------------------------------
 Center     Atomic                   Forces (Hartrees/Bohr)
 Number     Number              X              Y              Z
 -------------------------------------------------------------------
      1        7           0.035260085   -0.028486790   -0.021860805
      2        7          -0.008374512   -0.004234896    0.002872380
      3        6           0.000105326    0.006383732   -0.001530992
      4        6           0.001072361    0.003309439   -0.003438475
      5        7           0.020566305   -0.000758662    0.008493636
      6        1          -0.001034209    0.000806976   -0.000279957
      7        1          -0.000084153    0.000963772   -0.000305611
      8        1          -0.010905991    0.031327006    0.018554858
      9        6          -0.023569737    0.034997519    0.007193032
     10        8           0.004506401   -0.010459583   -0.001108719
     11        8          -0.017541876   -0.033848512   -0.008589348
 -------------------------------------------------------------------
 Cartesian Forces:  Max     0.035260085 RMS     0.015695390

 GradGradGradGradGradGradGradGradGradGradGradGradGradGradGradGradGradGrad
 Berny optimization.
 FormGI is forming the generalized inverse of G from B-inverse, IUseBI=4.
 Internal  Forces:  Max     0.041486290 RMS     0.009132931
 Search for a saddle point.
 Step number   2 out of a maximum of   65
 All quantities printed in internal units (Hartrees-Bohrs-Radians)
 Swapping is turned off.
 Update second derivatives using D2CorX and points    1    2
 ITU=  0  0
     Eigenvalues ---   -0.06278  -0.00584   0.00622   0.00834   0.01318
     Eigenvalues ---    0.01816   0.02394   0.03256   0.04861   0.06188
     Eigenvalues ---    0.07570   0.09471   0.10723   0.13392   0.17448
     Eigenvalues ---    0.20369   0.23077   0.26944   0.29457   0.30852
     Eigenvalues ---    0.37591   0.38810   0.39673   0.44654   0.51372
     Eigenvalues ---    0.61031   0.79810
 Eigenvectors required to have negative eigenvalues:
                          R10       R3        A3        A2        D6
   1                   -0.72250   0.60355   0.13900  -0.12266   0.12208
                          R5        D8        A18       A17       R12
   1                   -0.11768  -0.08685   0.08652  -0.08344   0.07121
 RFO step:  Lambda0=7.168492130D-05 Lambda=-5.36614963D-02.
 Linear search not attempted -- option 19 set.
 Maximum step size (   0.300) exceeded in Quadratic search.
    -- Step size scaled by   0.284
 Iteration  1 RMS(Cart)=  0.04294126 RMS(Int)=  0.00212047
 Iteration  2 RMS(Cart)=  0.00190105 RMS(Int)=  0.00055624
 Iteration  3 RMS(Cart)=  0.00000405 RMS(Int)=  0.00055623
 Iteration  4 RMS(Cart)=  0.00000000 RMS(Int)=  0.00055623
 Variable       Old X    -DE/DX   Delta X   Delta X   Delta X     New X
                                 (Linear)    (Quad)   (Total)
    R1        2.64947  -0.00332   0.00000   0.00363   0.00289   2.65236
    R2        2.62222  -0.01490   0.00000   0.00142   0.00147   2.62368
    R3        2.78742  -0.04149   0.00000  -0.20553  -0.20454   2.58288
    R4        2.61354   0.00216   0.00000   0.00655   0.00636   2.61990
    R5        2.74333  -0.01342   0.00000  -0.04060  -0.04175   2.70159
    R6        2.60710  -0.00539   0.00000   0.00373   0.00381   2.61091
    R7        2.03463   0.00042   0.00000  -0.00008  -0.00008   2.03456
    R8        2.54935   0.00488   0.00000  -0.00132  -0.00108   2.54826
    R9        2.04577   0.00060   0.00000   0.00080   0.00080   2.04657
   R10        2.69581  -0.02672   0.00000  -0.16942  -0.16831   2.52750
   R11        2.33130  -0.00654   0.00000  -0.00511  -0.00511   2.32619
   R12        2.38789   0.02194   0.00000   0.02721   0.02690   2.41479
    A1        1.91628  -0.01006   0.00000  -0.00642  -0.00667   1.90961
    A2        1.54628   0.01114   0.00000   0.00353   0.00370   1.54998
    A3        2.36552  -0.00180   0.00000   0.01934   0.01953   2.38505
    A4        1.86009   0.01136   0.00000   0.00720   0.00783   1.86792
    A5        2.03687  -0.01071   0.00000  -0.04796  -0.04903   1.98784
    A6        2.24351  -0.00188   0.00000   0.03471   0.03539   2.27890
    A7        1.84604  -0.00817   0.00000  -0.00959  -0.00998   1.83606
    A8        2.10871   0.00541   0.00000   0.00820   0.00840   2.11711
    A9        2.32637   0.00267   0.00000   0.00095   0.00112   2.32749
   A10        1.97054  -0.00286   0.00000   0.00544   0.00543   1.97597
   A11        2.22196   0.00064   0.00000  -0.00382  -0.00381   2.21815
   A12        2.09038   0.00222   0.00000  -0.00165  -0.00165   2.08873
   A13        1.81968   0.01006   0.00000   0.00214   0.00212   1.82180
   A14        2.13825   0.00834   0.00000   0.09769   0.09940   2.23765
   A15        2.02988   0.01449   0.00000   0.04015   0.04097   2.07085
   A16        1.94115  -0.00718   0.00000  -0.02630  -0.02793   1.91321
   A17        2.31214  -0.00731   0.00000  -0.01386  -0.01304   2.29910
   A18        1.70594  -0.00122   0.00000  -0.01618  -0.01602   1.68992
    D1        0.14143  -0.00175   0.00000   0.00811   0.00820   0.14963
    D2       -2.49994   0.00022   0.00000   0.00444   0.00373  -2.49621
    D3        2.56012  -0.00176   0.00000   0.02933   0.02961   2.58973
    D4       -0.08125   0.00022   0.00000   0.02565   0.02514  -0.05612
    D5       -0.14525   0.00244   0.00000  -0.00635  -0.00638  -0.15164
    D6       -2.05182  -0.00201   0.00000  -0.01855  -0.01879  -2.07062
    D7        0.26748   0.00244   0.00000  -0.01545  -0.01592   0.25156
    D8        2.31471  -0.00104   0.00000  -0.01151  -0.01182   2.30289
    D9       -0.07729   0.00039   0.00000  -0.00614  -0.00619  -0.08348
   D10        3.12460   0.00167   0.00000   0.00020   0.00027   3.12486
   D11        2.48456  -0.00452   0.00000  -0.03564  -0.03607   2.44849
   D12       -0.59674  -0.00324   0.00000  -0.02930  -0.02961  -0.62636
   D13        3.03029   0.00094   0.00000   0.00124   0.00163   3.03192
   D14       -0.11683   0.00232   0.00000   0.00057   0.00081  -0.11603
   D15        0.51695   0.00001   0.00000   0.01489   0.01537   0.53232
   D16       -2.63017   0.00140   0.00000   0.01422   0.01454  -2.61562
   D17       -0.01327   0.00088   0.00000   0.00183   0.00179  -0.01148
   D18       -3.12797   0.00052   0.00000   0.00293   0.00298  -3.12499
   D19        3.05717  -0.00058   0.00000  -0.00537  -0.00552   3.05165
   D20       -0.05753  -0.00093   0.00000  -0.00427  -0.00433  -0.06186
   D21        0.09782  -0.00124   0.00000   0.00329   0.00335   0.10117
   D22       -3.06841  -0.00093   0.00000   0.00223   0.00221  -3.06620
   D23       -0.35305   0.00003   0.00000   0.01935   0.01930  -0.33374
   D24        0.24152  -0.00253   0.00000  -0.02561  -0.02473   0.21679
   D25       -2.90679  -0.00075   0.00000  -0.02621  -0.02548  -2.93227
         Item               Value     Threshold  Converged?
 Maximum Force            0.041486     0.000450     NO 
 RMS     Force            0.009133     0.000300     NO 
 Maximum Displacement     0.147150     0.001800     NO 
 RMS     Displacement     0.043951     0.001200     NO 
 Predicted change in Energy=-1.682140D-02
 GradGradGradGradGradGradGradGradGradGradGradGradGradGradGradGradGradGrad

                          Input orientation:                          
 ---------------------------------------------------------------------
 Center     Atomic      Atomic             Coordinates (Angstroms)
 Number     Number       Type             X           Y           Z
 ---------------------------------------------------------------------
      1          7           0       -0.676054   -1.040907    0.258401
      2          7           0        0.061383    0.150736    0.336979
      3          6           0       -0.824785    1.192255    0.108904
      4          6           0       -2.025289    0.584353   -0.204391
      5          7           0       -1.955278   -0.762312   -0.203777
      6          1           0       -0.499816    2.218418    0.132157
      7          1           0       -2.957425    1.072681   -0.460414
      8          1           0        0.440132   -1.666448   -0.222193
      9          6           0        1.437342    0.005014   -0.022625
     10          8           0        2.137712    1.014490   -0.098284
     11          8           0        1.704725   -1.231275   -0.204290
 ---------------------------------------------------------------------
                    Distance matrix (angstroms):
                    1          2          3          4          5
     1  N    0.000000
     2  N    1.403567   0.000000
     3  C    2.243096   1.386389   0.000000
     4  C    2.162425   2.198933   1.381633   0.000000
     5  N    1.388394   2.278815   2.279499   1.348484   0.000000
     6  H    3.266527   2.152256   1.076642   2.260642   3.334063
     7  H    3.191960   3.255614   2.210560   1.083001   2.106505
     8  H    1.366800   1.938629   3.143537   3.338371   2.560427
     9  C    2.374735   1.429619   2.558135   3.515463   3.483026
    10  O    3.502736   2.290560   2.975049   4.186509   4.463263
    11  O    2.432782   2.214384   3.517102   4.148435   3.689925
                    6          7          8          9         10
     6  H    0.000000
     7  H    2.775553   0.000000
     8  H    4.012637   4.370695   0.000000
     9  C    2.945453   4.543737   1.956538   0.000000
    10  O    2.908453   5.108321   3.175620   1.230969   0.000000
    11  O    4.107747   5.206674   1.337495   1.277853   2.289580
                   11
    11  O    0.000000
 Stoichiometry    C3H3N3O2(1-,2)
 Framework group  C1[X(C3H3N3O2)]
 Deg. of freedom    27
 Full point group                 C1      NOp   1
 Largest Abelian subgroup         C1      NOp   1
 Largest concise Abelian subgroup C1      NOp   1
                         Standard orientation:                         
 ---------------------------------------------------------------------
 Center     Atomic      Atomic             Coordinates (Angstroms)
 Number     Number       Type             X           Y           Z
 ---------------------------------------------------------------------
      1          7           0       -0.674406   -1.033335    0.296542
      2          7           0        0.036471    0.175730    0.349616
      3          6           0       -0.872941    1.192483    0.102115
      4          6           0       -2.060068    0.551856   -0.196605
      5          7           0       -1.960143   -0.792634   -0.168842
      6          1           0       -0.570827    2.225866    0.103983
      7          1           0       -3.003180    1.014082   -0.460759
      8          1           0        0.454742   -1.643573   -0.173326
      9          6           0        1.414831    0.053314   -0.009481
     10          8           0        2.092487    1.076341   -0.106853
     11          8           0        1.709374   -1.180169   -0.166556
 ---------------------------------------------------------------------
 Rotational constants (GHZ):           5.0980240           1.8340595           1.3843205
 Standard basis: 6-31+G(d,p) (6D, 7F)
 There are   167 symmetry adapted cartesian basis functions of A   symmetry.
 There are   167 symmetry adapted basis functions of A   symmetry.
   167 basis functions,   277 primitive gaussians,   167 cartesian basis functions
    30 alpha electrons       29 beta electrons
       nuclear repulsion energy       361.1548881500 Hartrees.
 NAtoms=   11 NActive=   11 NUniq=   11 SFac= 1.00D+00 NAtFMM=   60 NAOKFM=F Big=F
 Integral buffers will be    131072 words long.
 Raffenetti 2 integral format.
 Two-electron integral symmetry is turned on.
 One-electron integrals computed using PRISM.
 NBasis=   167 RedAO= T EigKep=  5.05D-05  NBF=   167
 NBsUse=   167 1.00D-06 EigRej= -1.00D+00 NBFU=   167
 Initial guess from the checkpoint file:  "/scratch/gongke2021/TS/Gau-14312.chk"
 B after Tr=    -0.000000    0.000000   -0.000000
         Rot=    0.999991    0.004002   -0.000847    0.001464 Ang=   0.50 deg.
 Initial guess <Sx>= 0.0000 <Sy>= 0.0000 <Sz>= 0.5000 <S**2>= 0.7635 S= 0.5067
 ExpMin= 4.38D-02 ExpMax= 5.48D+03 ExpMxC= 8.25D+02 IAcc=2 IRadAn=         4 AccDes= 0.00D+00
 Harris functional with IExCor= 1009 and IRadAn=       4 diagonalized for initial guess.
 HarFok:  IExCor= 1009 AccDes= 0.00D+00 IRadAn=         4 IDoV= 1 UseB2=F ITyADJ=14
 ICtDFT=  3500011 ScaDFX=  1.000000  1.000000  1.000000  1.000000
 FoFCou: FMM=F IPFlag=           0 FMFlag=      100000 FMFlg1=           0
         NFxFlg=           0 DoJE=T BraDBF=F KetDBF=T FulRan=T
         wScrn=  0.000000 ICntrl=       500 IOpCl=  0 I1Cent=   200000004 NGrid=           0
         NMat0=    1 NMatS0=      1 NMatT0=    0 NMatD0=    1 NMtDS0=    0 NMtDT0=    0
 Petite list used in FoFCou.
 Keep R1 and R2 ints in memory in canonical form, NReq=220618657.
 Requested convergence on RMS density matrix=1.00D-08 within 128 cycles.
 Requested convergence on MAX density matrix=1.00D-06.
 Requested convergence on             energy=1.00D-06.
 No special actions if energy rises.
 SCF Done:  E(UM062X) =  -430.642763707     A.U. after   18 cycles
            NFock= 18  Conv=0.65D-08     -V/T= 2.0085
 <Sx>= 0.0000 <Sy>= 0.0000 <Sz>= 0.5000 <S**2>= 0.7640 S= 0.5070
 <L.S>=  0.00000000000    
 Annihilation of the first spin contaminant:
 S**2 before annihilation     0.7640,   after     0.7501
 Calling FoFJK, ICntrl=      2127 FMM=F ISym2X=0 I1Cent= 0 IOpClX= 1 NMat=1 NMatS=1 NMatT=0.
 ***** Axes restored to original set *****
 -------------------------------------------------------------------
 Center     Atomic                   Forces (Hartrees/Bohr)
 Number     Number              X              Y              Z
 -------------------------------------------------------------------
      1        7           0.019799909   -0.018184882   -0.017704297
      2        7          -0.011707042   -0.001862546    0.004621422
      3        6          -0.000294491    0.002860724   -0.001638299
      4        6           0.000488012    0.003206994   -0.003523086
      5        7           0.019410016   -0.000104360    0.009476225
      6        1          -0.000873977    0.000543987    0.000014491
      7        1          -0.000010303    0.000823652   -0.000266654
      8        1          -0.007823120    0.018766736    0.013076622
      9        6          -0.011615098    0.022593322    0.003429362
     10        8           0.003014990   -0.007066429   -0.000273182
     11        8          -0.010388896   -0.021577200   -0.007212602
 -------------------------------------------------------------------
 Cartesian Forces:  Max     0.022593322 RMS     0.010482962

 GradGradGradGradGradGradGradGradGradGradGradGradGradGradGradGradGradGrad
 Berny optimization.
 FormGI is forming the generalized inverse of G from B-inverse, IUseBI=4.
 Internal  Forces:  Max     0.026516136 RMS     0.006207254
 Search for a saddle point.
 Step number   3 out of a maximum of   65
 All quantities printed in internal units (Hartrees-Bohrs-Radians)
 Swapping is turned off.
 Update second derivatives using D2CorX and points    2    3
 ITU=  0  0  0
     Eigenvalues ---   -0.06271   0.00464   0.00792   0.01230   0.01320
     Eigenvalues ---    0.02366   0.03245   0.04826   0.05587   0.06314
     Eigenvalues ---    0.07686   0.09500   0.10723   0.13752   0.17946
     Eigenvalues ---    0.20513   0.23065   0.27076   0.29464   0.30904
     Eigenvalues ---    0.37593   0.38811   0.39671   0.44650   0.51407
     Eigenvalues ---    0.61011   0.79807
 Eigenvectors required to have negative eigenvalues:
                          R10       R3        A3        D6        A2
   1                    0.71228  -0.61966  -0.13436  -0.12226   0.11794
                          R5        D8        A18       A17       R12
   1                    0.11509   0.08690  -0.08310   0.08165  -0.06752
 RFO step:  Lambda0=1.445158013D-04 Lambda=-1.73893893D-02.
 Linear search not attempted -- option 19 set.
 Maximum step size (   0.300) exceeded in Quadratic search.
    -- Step size scaled by   0.695
 Iteration  1 RMS(Cart)=  0.04497014 RMS(Int)=  0.00290604
 Iteration  2 RMS(Cart)=  0.00227179 RMS(Int)=  0.00080689
 Iteration  3 RMS(Cart)=  0.00000884 RMS(Int)=  0.00080685
 Iteration  4 RMS(Cart)=  0.00000001 RMS(Int)=  0.00080685
 Variable       Old X    -DE/DX   Delta X   Delta X   Delta X     New X
                                 (Linear)    (Quad)   (Total)
    R1        2.65236  -0.00299   0.00000  -0.00119  -0.00174   2.65062
    R2        2.62368  -0.01486   0.00000  -0.03688  -0.03695   2.58673
    R3        2.58288  -0.02652   0.00000  -0.17965  -0.17867   2.40421
    R4        2.61990   0.00082   0.00000   0.00609   0.00598   2.62588
    R5        2.70159  -0.00458   0.00000  -0.01638  -0.01741   2.68418
    R6        2.61091  -0.00489   0.00000  -0.00034  -0.00015   2.61075
    R7        2.03456   0.00026   0.00000  -0.00020  -0.00020   2.03435
    R8        2.54826   0.00350   0.00000   0.00304   0.00326   2.55153
    R9        2.04657   0.00044   0.00000   0.00024   0.00024   2.04682
   R10        2.52750  -0.01595   0.00000  -0.18512  -0.18421   2.34329
   R11        2.32619  -0.00406   0.00000  -0.00859  -0.00859   2.31760
   R12        2.41479   0.01483   0.00000   0.03007   0.02973   2.44452
    A1        1.90961  -0.00735   0.00000  -0.00937  -0.00942   1.90019
    A2        1.54998   0.00811   0.00000   0.00632   0.00653   1.55651
    A3        2.38505  -0.00079   0.00000   0.02851   0.02799   2.41304
    A4        1.86792   0.00826   0.00000   0.01352   0.01360   1.88152
    A5        1.98784  -0.00802   0.00000  -0.05729  -0.05852   1.92932
    A6        2.27890  -0.00124   0.00000   0.01885   0.01948   2.29838
    A7        1.83606  -0.00598   0.00000  -0.01339  -0.01362   1.82243
    A8        2.11711   0.00398   0.00000   0.01079   0.01093   2.12804
    A9        2.32749   0.00192   0.00000   0.00238   0.00247   2.32996
   A10        1.97597  -0.00311   0.00000  -0.00601  -0.00600   1.96997
   A11        2.21815   0.00086   0.00000   0.00189   0.00185   2.22000
   A12        2.08873   0.00227   0.00000   0.00439   0.00436   2.09309
   A13        1.82180   0.00854   0.00000   0.02004   0.01978   1.84158
   A14        2.23765   0.00662   0.00000   0.10908   0.11049   2.34814
   A15        2.07085   0.00971   0.00000   0.04413   0.04516   2.11601
   A16        1.91321  -0.00444   0.00000  -0.02683  -0.02892   1.88430
   A17        2.29910  -0.00525   0.00000  -0.01729  -0.01625   2.28285
   A18        1.68992  -0.00176   0.00000  -0.01272  -0.01345   1.67647
    D1        0.14963  -0.00175   0.00000  -0.02450  -0.02445   0.12518
    D2       -2.49621  -0.00012   0.00000   0.00463   0.00289  -2.49332
    D3        2.58973  -0.00125   0.00000   0.00735   0.00689   2.59662
    D4       -0.05612   0.00038   0.00000   0.03647   0.03424  -0.02188
    D5       -0.15164   0.00237   0.00000   0.02834   0.02826  -0.12337
    D6       -2.07062  -0.00113   0.00000   0.00807   0.00773  -2.06288
    D7        0.25156   0.00093   0.00000  -0.04378  -0.04529   0.20627
    D8        2.30289  -0.00128   0.00000  -0.03576  -0.03667   2.26622
    D9       -0.08348   0.00046   0.00000   0.01040   0.01041  -0.07307
   D10        3.12486   0.00137   0.00000   0.01322   0.01332   3.13818
   D11        2.44849  -0.00338   0.00000  -0.05622  -0.05691   2.39158
   D12       -0.62636  -0.00247   0.00000  -0.05339  -0.05401  -0.68036
   D13        3.03192   0.00076   0.00000   0.00600   0.00705   3.03897
   D14       -0.11603   0.00176   0.00000   0.00646   0.00659  -0.10944
   D15        0.53232   0.00033   0.00000   0.05524   0.05555   0.58787
   D16       -2.61562   0.00133   0.00000   0.05570   0.05509  -2.56054
   D17       -0.01148   0.00096   0.00000   0.00823   0.00800  -0.00348
   D18       -3.12499   0.00034   0.00000  -0.00324  -0.00330  -3.12829
   D19        3.05165  -0.00006   0.00000   0.00525   0.00494   3.05659
   D20       -0.06186  -0.00068   0.00000  -0.00622  -0.00636  -0.06821
   D21        0.10117  -0.00142   0.00000  -0.02157  -0.02165   0.07952
   D22       -3.06620  -0.00087   0.00000  -0.01107  -0.01129  -3.07749
   D23       -0.33374   0.00087   0.00000   0.05211   0.05257  -0.28117
   D24        0.21679  -0.00227   0.00000  -0.04134  -0.03907   0.17772
   D25       -2.93227  -0.00102   0.00000  -0.04050  -0.03930  -2.97156
         Item               Value     Threshold  Converged?
 Maximum Force            0.026516     0.000450     NO 
 RMS     Force            0.006207     0.000300     NO 
 Maximum Displacement     0.156754     0.001800     NO 
 RMS     Displacement     0.046176     0.001200     NO 
 Predicted change in Energy=-8.814336D-03
 GradGradGradGradGradGradGradGradGradGradGradGradGradGradGradGradGradGrad

                          Input orientation:                          
 ---------------------------------------------------------------------
 Center     Atomic      Atomic             Coordinates (Angstroms)
 Number     Number       Type             X           Y           Z
 ---------------------------------------------------------------------
      1          7           0       -0.635397   -1.034865    0.240928
      2          7           0        0.064348    0.175686    0.352047
      3          6           0       -0.835437    1.209214    0.121681
      4          6           0       -2.014165    0.570946   -0.212830
      5          7           0       -1.901863   -0.774578   -0.208554
      6          1           0       -0.536041    2.242740    0.155006
      7          1           0       -2.957372    1.033607   -0.476414
      8          1           0        0.427708   -1.589254   -0.184620
      9          6           0        1.422187    0.003140   -0.027492
     10          8           0        2.186903    0.958705   -0.106351
     11          8           0        1.621774   -1.258336   -0.232934
 ---------------------------------------------------------------------
                    Distance matrix (angstroms):
                    1          2          3          4          5
     1  N    0.000000
     2  N    1.402649   0.000000
     3  C    2.256131   1.389555   0.000000
     4  C    2.164608   2.189871   1.381551   0.000000
     5  N    1.368839   2.254608   2.276345   1.350209   0.000000
     6  H    3.280236   2.161482   1.076534   2.261648   3.331944
     7  H    3.191352   3.248564   2.211597   1.083130   2.110778
     8  H    1.272254   1.880174   3.085576   3.260369   2.468030
     9  C    2.320163   1.420405   2.563930   3.487875   3.418616
    10  O    3.472794   2.308352   3.041265   4.220269   4.442152
    11  O    2.317176   2.196406   3.500348   4.070225   3.556773
                    6          7          8          9         10
     6  H    0.000000
     7  H    2.779125   0.000000
     8  H    3.965897   4.292239   0.000000
     9  C    2.980566   4.521497   1.883984   0.000000
    10  O    3.021834   5.158112   3.097254   1.226423   0.000000
    11  O    4.130883   5.126487   1.240014   1.293585   2.291432
                   11
    11  O    0.000000
 Stoichiometry    C3H3N3O2(1-,2)
 Framework group  C1[X(C3H3N3O2)]
 Deg. of freedom    27
 Full point group                 C1      NOp   1
 Largest Abelian subgroup         C1      NOp   1
 Largest concise Abelian subgroup C1      NOp   1
                         Standard orientation:                         
 ---------------------------------------------------------------------
 Center     Atomic      Atomic             Coordinates (Angstroms)
 Number     Number       Type             X           Y           Z
 ---------------------------------------------------------------------
      1          7           0       -0.633543   -1.018624    0.296171
      2          7           0        0.032239    0.213937    0.366535
      3          6           0       -0.895825    1.213808    0.102306
      4          6           0       -2.056217    0.532234   -0.210157
      5          7           0       -1.906563   -0.808759   -0.161100
      6          1           0       -0.625284    2.255792    0.101020
      7          1           0       -3.011805    0.959462   -0.488539
      8          1           0        0.444740   -1.557127   -0.111200
      9          6           0        1.394511    0.066642   -0.007725
     10          8           0        2.132406    1.039931   -0.118769
     11          8           0        1.629168   -1.194945   -0.171114
 ---------------------------------------------------------------------
 Rotational constants (GHZ):           5.1045421           1.8696841           1.4071403
 Standard basis: 6-31+G(d,p) (6D, 7F)
 There are   167 symmetry adapted cartesian basis functions of A   symmetry.
 There are   167 symmetry adapted basis functions of A   symmetry.
   167 basis functions,   277 primitive gaussians,   167 cartesian basis functions
    30 alpha electrons       29 beta electrons
       nuclear repulsion energy       363.3441654660 Hartrees.
 NAtoms=   11 NActive=   11 NUniq=   11 SFac= 1.00D+00 NAtFMM=   60 NAOKFM=F Big=F
 Integral buffers will be    131072 words long.
 Raffenetti 2 integral format.
 Two-electron integral symmetry is turned on.
 One-electron integrals computed using PRISM.
 NBasis=   167 RedAO= T EigKep=  5.16D-05  NBF=   167
 NBsUse=   167 1.00D-06 EigRej= -1.00D+00 NBFU=   167
 Initial guess from the checkpoint file:  "/scratch/gongke2021/TS/Gau-14312.chk"
 B after Tr=     0.000000    0.000000   -0.000000
         Rot=    0.999988    0.004646   -0.000473    0.001188 Ang=   0.55 deg.
 Initial guess <Sx>= 0.0000 <Sy>= 0.0000 <Sz>= 0.5000 <S**2>= 0.7642 S= 0.5071
 ExpMin= 4.38D-02 ExpMax= 5.48D+03 ExpMxC= 8.25D+02 IAcc=2 IRadAn=         4 AccDes= 0.00D+00
 Harris functional with IExCor= 1009 and IRadAn=       4 diagonalized for initial guess.
 HarFok:  IExCor= 1009 AccDes= 0.00D+00 IRadAn=         4 IDoV= 1 UseB2=F ITyADJ=14
 ICtDFT=  3500011 ScaDFX=  1.000000  1.000000  1.000000  1.000000
 FoFCou: FMM=F IPFlag=           0 FMFlag=      100000 FMFlg1=           0
         NFxFlg=           0 DoJE=T BraDBF=F KetDBF=T FulRan=T
         wScrn=  0.000000 ICntrl=       500 IOpCl=  0 I1Cent=   200000004 NGrid=           0
         NMat0=    1 NMatS0=      1 NMatT0=    0 NMatD0=    1 NMtDS0=    0 NMtDT0=    0
 Petite list used in FoFCou.
 Keep R1 and R2 ints in memory in canonical form, NReq=220618657.
 Requested convergence on RMS density matrix=1.00D-08 within 128 cycles.
 Requested convergence on MAX density matrix=1.00D-06.
 Requested convergence on             energy=1.00D-06.
 No special actions if energy rises.
 SCF Done:  E(UM062X) =  -430.649331679     A.U. after   17 cycles
            NFock= 17  Conv=0.87D-08     -V/T= 2.0081
 <Sx>= 0.0000 <Sy>= 0.0000 <Sz>= 0.5000 <S**2>= 0.7644 S= 0.5072
 <L.S>=  0.00000000000    
 Annihilation of the first spin contaminant:
 S**2 before annihilation     0.7644,   after     0.7501
 Calling FoFJK, ICntrl=      2127 FMM=F ISym2X=0 I1Cent= 0 IOpClX= 1 NMat=1 NMatS=1 NMatT=0.
 ***** Axes restored to original set *****
 -------------------------------------------------------------------
 Center     Atomic                   Forces (Hartrees/Bohr)
 Number     Number              X              Y              Z
 -------------------------------------------------------------------
[...]
   A18        1.67321  -0.00004   0.00000  -0.00012  -0.00012   1.67309
    D1        0.07755  -0.00000   0.00000  -0.00033  -0.00033   0.07722
    D2       -2.36179   0.00001   0.00000  -0.00161  -0.00161  -2.36340
    D3        2.46635  -0.00001   0.00000   0.00058   0.00058   2.46693
    D4        0.02701  -0.00000   0.00000  -0.00070  -0.00070   0.02632
    D5       -0.07733   0.00000   0.00000   0.00008   0.00008  -0.07725
    D6       -1.95623  -0.00002   0.00000  -0.00057  -0.00057  -1.95679
    D7        0.10541   0.00001   0.00000   0.00145   0.00145   0.10686
    D8        2.12113   0.00003   0.00000   0.00191   0.00191   2.12304
    D9       -0.04532   0.00000   0.00000   0.00044   0.00044  -0.04487
   D10        3.13496  -0.00001   0.00000  -0.00207  -0.00207   3.13289
   D11        2.24338   0.00001   0.00000   0.00170   0.00170   2.24508
   D12       -0.85952  -0.00000   0.00000  -0.00082  -0.00082  -0.86034
   D13        3.03704   0.00001   0.00000   0.00028   0.00028   3.03732
   D14       -0.12029  -0.00000   0.00000   0.00020   0.00020  -0.12009
   D15        0.76409  -0.00000   0.00000  -0.00097  -0.00097   0.76312
   D16       -2.39324  -0.00001   0.00000  -0.00105  -0.00105  -2.39429
   D17       -0.00181   0.00000   0.00000  -0.00042  -0.00042  -0.00223
   D18       -3.14112   0.00000   0.00000   0.00013   0.00013  -3.14098
   D19        3.09464   0.00002   0.00000   0.00252   0.00252   3.09716
   D20       -0.04467   0.00002   0.00000   0.00307   0.00307  -0.04160
   D21        0.05001  -0.00000   0.00000   0.00021   0.00021   0.05022
   D22       -3.09368  -0.00000   0.00000  -0.00029  -0.00029  -3.09397
   D23       -0.18115  -0.00001   0.00000  -0.00135  -0.00135  -0.18250
   D24        0.14434   0.00001   0.00000   0.00046   0.00046   0.14480
   D25       -3.01460  -0.00001   0.00000   0.00038   0.00038  -3.01422
         Item               Value     Threshold  Converged?
 Maximum Force            0.000156     0.000450     YES
 RMS     Force            0.000031     0.000300     YES
 Maximum Displacement     0.002159     0.001800     NO 
 RMS     Displacement     0.000598     0.001200     YES
 Predicted change in Energy=-2.541192D-07
                           ----------------------------
                           ! Non-Optimized Parameters !
                           ! (Angstroms and Degrees)  !
 --------------------------                            --------------------------
 ! Name  Definition              Value          Derivative Info.                !
 --------------------------------------------------------------------------------
 ! R1    R(1,2)                  1.4161         -DE/DX =    0.0                 !
 ! R2    R(1,5)                  1.3586         -DE/DX =   -0.0001              !
 ! R3    R(1,8)                  1.297          -DE/DX =    0.0                 !
 ! R4    R(2,3)                  1.399          -DE/DX =    0.0                 !
 ! R5    R(2,9)                  1.4329         -DE/DX =   -0.0002              !
 ! R6    R(3,4)                  1.3782         -DE/DX =    0.0                 !
 ! R7    R(3,6)                  1.0767         -DE/DX =    0.0                 !
 ! R8    R(4,5)                  1.3501         -DE/DX =    0.0                 !
 ! R9    R(4,7)                  1.0831         -DE/DX =    0.0                 !
 ! R10   R(8,11)                 1.2217         -DE/DX =    0.0                 !
 ! R11   R(9,10)                 1.2224         -DE/DX =    0.0                 !
 ! R12   R(9,11)                 1.3011         -DE/DX =    0.0001              !
 ! A1    A(2,1,5)              108.7215         -DE/DX =    0.0                 !
 ! A2    A(2,1,8)               88.9963         -DE/DX =    0.0                 !
 ! A3    A(5,1,8)              134.209          -DE/DX =    0.0                 !
 ! A4    A(1,2,3)              107.1877         -DE/DX =    0.0                 !
 ! A5    A(1,2,9)              109.5313         -DE/DX =    0.0                 !
 ! A6    A(3,2,9)              126.106          -DE/DX =    0.0                 !
 ! A7    A(2,3,4)              104.8349         -DE/DX =    0.0                 !
 ! A8    A(2,3,6)              121.843          -DE/DX =    0.0                 !
 ! A9    A(4,3,6)              133.2798         -DE/DX =    0.0                 !
 ! A10   A(3,4,5)              112.4862         -DE/DX =    0.0                 !
 ! A11   A(3,4,7)              127.3763         -DE/DX =    0.0                 !
 ! A12   A(5,4,7)              120.1373         -DE/DX =    0.0                 !
 ! A13   A(1,5,4)              106.5684         -DE/DX =    0.0                 !
 ! A14   A(1,8,11)             135.8705         -DE/DX =    0.0                 !
 ! A15   A(2,9,10)             121.6793         -DE/DX =    0.0                 !
 ! A16   A(2,9,11)             108.8626         -DE/DX =    0.0                 !
 ! A17   A(10,9,11)            129.4507         -DE/DX =    0.0                 !
 ! A18   A(8,11,9)              95.8612         -DE/DX =    0.0                 !
 ! D1    D(5,1,2,3)              4.4243         -DE/DX =    0.0                 !
 ! D2    D(5,1,2,9)           -135.4127         -DE/DX =    0.0                 !
 ! D3    D(8,1,2,3)            141.3449         -DE/DX =    0.0                 !
 ! D4    D(8,1,2,9)              1.5079         -DE/DX =    0.0                 !
 ! D5    D(2,1,5,4)             -4.4261         -DE/DX =    0.0                 !
 ! D6    D(8,1,5,4)           -112.116          -DE/DX =    0.0                 !
 ! D7    D(2,1,8,11)             6.1226         -DE/DX =    0.0                 !
 ! D8    D(5,1,8,11)           121.6412         -DE/DX =    0.0                 !
 ! D9    D(1,2,3,4)             -2.571          -DE/DX =    0.0                 !
 ! D10   D(1,2,3,6)            179.5013         -DE/DX =    0.0                 !
 ! D11   D(9,2,3,4)            128.6337         -DE/DX =    0.0                 !
 ! D12   D(9,2,3,6)            -49.2939         -DE/DX =    0.0                 !
 ! D13   D(1,2,9,10)           174.0257         -DE/DX =    0.0                 !
 ! D14   D(1,2,9,11)            -6.8804         -DE/DX =    0.0                 !
 ! D15   D(3,2,9,10)            43.7236         -DE/DX =    0.0                 !
 ! D16   D(3,2,9,11)          -137.1825         -DE/DX =    0.0                 !
 ! D17   D(2,3,4,5)             -0.1277         -DE/DX =    0.0                 !
 ! D18   D(2,3,4,7)           -179.9652         -DE/DX =    0.0                 !
 ! D19   D(6,3,4,5)            177.454          -DE/DX =    0.0                 !
 ! D20   D(6,3,4,7)             -2.3835         -DE/DX =    0.0                 !
 ! D21   D(3,4,5,1)              2.8776         -DE/DX =    0.0                 !
 ! D22   D(7,4,5,1)           -177.2717         -DE/DX =    0.0                 !
 ! D23   D(1,8,11,9)           -10.4567         -DE/DX =    0.0                 !
 ! D24   D(2,9,11,8)             8.2963         -DE/DX =    0.0                 !
 ! D25   D(10,9,11,8)         -172.7023         -DE/DX =    0.0                 !
 --------------------------------------------------------------------------------
 GradGradGradGradGradGradGradGradGradGradGradGradGradGradGradGradGradGrad


 ----------------------------------------------------------------------

 Electric dipole moment (input orientation):
 (Debye = 10**-18 statcoulomb cm , SI units = C m)
                  (au)            (Debye)         (10**-30 SI)
   Tot        0.109755D+01      0.278968D+01      0.930538D+01
   x         -0.853975D+00     -0.217059D+01     -0.724030D+01
   y          0.689429D+00      0.175235D+01      0.584523D+01
   z         -0.464181D-02     -0.117983D-01     -0.393549D-01

 Dipole polarizability, Alpha (input orientation).
 (esu units = cm**3 , SI units = C**2 m**2 J**-1)
 Alpha(0;0):
               (au)            (10**-24 esu)      (10**-40 SI)
   iso        0.738539D+02      0.109440D+02      0.121769D+02
   aniso      0.387576D+02      0.574329D+01      0.639027D+01
   xx         0.925550D+02      0.137152D+02      0.152603D+02
   yx         0.128136D+01      0.189877D+00      0.211267D+00
   yy         0.797965D+02      0.118246D+02      0.131567D+02
   zx         0.145189D+01      0.215148D+00      0.239384D+00
   zy         0.889281D+00      0.131778D+00      0.146623D+00
   zz         0.492103D+02      0.729221D+01      0.811368D+01

 ----------------------------------------------------------------------

 Dipole orientation:
     7         -0.98874627         -2.16774227         -0.29531782
     7          0.88117690         -0.29675711          0.11080558
     6          0.70708818          0.44468734          2.64254041
     6         -1.30218282         -0.90943074          3.59766180
     7         -2.37896382         -2.42227383          1.84825994
     1          1.94325819          1.85251963          3.43602262
     1         -2.03950688         -0.85886117          5.50643084
     1         -1.41874645         -1.19691737         -2.50414564
     6          0.98670640          1.35738962         -2.03177317
     8          2.31584495          3.24653788         -2.04100794
     8         -0.47145734          0.46381960         -3.79793666

 Electric dipole moment (dipole orientation):
 (Debye = 10**-18 statcoulomb cm , SI units = C m)
                  (au)            (Debye)         (10**-30 SI)
   Tot        0.109755D+01      0.278968D+01      0.930538D+01
   x          0.000000D+00      0.000000D+00      0.000000D+00
   y          0.000000D+00      0.000000D+00      0.000000D+00
   z          0.109755D+01      0.278968D+01      0.930538D+01

 Dipole polarizability, Alpha (dipole orientation).
 (esu units = cm**3 , SI units = C**2 m**2 J**-1)
 Alpha(0;0):
               (au)            (10**-24 esu)      (10**-40 SI)
   iso        0.738539D+02      0.109440D+02      0.121769D+02
   aniso      0.387576D+02      0.574329D+01      0.639027D+01
   xx         0.652984D+02      0.967622D+01      0.107662D+02
   yx         0.183565D+02      0.272016D+01      0.302659D+01
   yy         0.699911D+02      0.103716D+02      0.115400D+02
   zx        -0.441345D+01     -0.654005D+00     -0.727679D+00
   zy        -0.480720D+01     -0.712354D+00     -0.792601D+00
   zz         0.862723D+02      0.127842D+02      0.142244D+02

 ----------------------------------------------------------------------
 1\1\GINC-NODE4\Freq\UM062X\6-31+G(d,p)\C3H3N3O2(1-,2)\GONGKE2021\04-Ju
 n-2023\0\\#N Geom=AllCheck Guess=TCheck SCRF=Check GenChk UM062X/6-31+
 G(d,p) Freq\\test\\-1,2\N,-0.6465616369,-1.0475454519,0.3141237132\N,0
 .0600996826,0.1708948533,0.4612117668\C,-0.8258531498,1.2041231198,0.1
 374060971\C,-1.9876530191,0.5671073963,-0.2419130522\N,-1.8836720453,-
 0.7774168707,-0.1784745974\H,-0.5304530591,2.2387436923,0.1766400704\H
 ,-2.9133941732,1.0262399749,-0.5665805775\H,0.4258553879,-1.5832912901
 ,-0.1806888213\C,1.3938183779,0.0145797443,-0.0403898193\O,2.164030629
 9,0.9602946974,-0.1210725248\O,1.5864296451,-1.2367244156,-0.339794285
 1\\Version=ES64L-G16RevA.03\State=2-A\HF=-430.6503744\S2=0.764711\S2-1
 =0.\S2A=0.750086\RMSD=2.631e-09\RMSF=6.712e-05\ZeroPoint=0.0676405\The
 rmal=0.0734813\Dipole=-0.8539746,0.6894294,-0.0046418\DipoleDeriv=-0.3
 981771,0.4926733,0.1209442,0.2758204,-0.488153,0.1169019,0.2259757,0.3
 146939,-0.2973871,-1.3558479,-0.00849,-0.0438035,0.1263463,-0.1840238,
 -0.1108381,0.2517028,-0.0871079,-0.2396247,0.0361278,-0.2593746,0.1390
 311,-0.2110917,-0.3036604,-0.0313784,0.0980075,-0.1391627,-0.3075273,0
 .2586456,0.1698701,0.168998,0.2108647,0.6301644,0.080511,0.092376,0.07
 09535,-0.0578321,-0.5586324,-0.3829819,0.0392027,-0.2230983,-0.5845909
 ,-0.1383016,-0.040153,-0.2057435,-0.2514249,0.0863343,-0.0247376,-0.04
 79165,0.0059117,-0.022991,-0.0030066,-0.0551939,0.0067866,0.2213966,-0
 .0915558,0.098232,-0.0748188,0.0960285,0.0412306,0.0271912,-0.0855089,
 0.0320132,0.1261763,1.3094617,-0.3287208,-0.1770959,-0.0492741,0.32822
 43,-0.0212912,-0.2195316,-0.0187894,0.2565848,2.4339154,0.3252197,-0.2
 924423,0.5321553,1.7815802,0.1815787,-0.5371619,0.1951516,0.5129264,-1
 .4063206,-0.4197435,0.0372239,-0.8211803,-1.020788,0.0251071,0.1441599
 ,0.0207084,-0.4938541,-1.313951,0.3380532,0.1306771,0.0575176,-1.17699
 24,-0.126474,0.1253275,-0.1895037,-0.4694339\Polar=92.5550319,1.281355
 8,79.7964818,1.4518874,0.889281,49.2102911\Quadrupole=-8.5086917,2.770
 0975,5.7385942,-5.0198491,1.8387864,-0.2688526\PG=C01 [X(C3H3N3O2)]\NI
 mag=1\\0.49369016,-0.07854394,0.42834153,0.06826559,-0.01132458,0.1374
 4571,-0.08233062,-0.00749831,-0.00110497,0.64995027,-0.03090027,-0.175
 93360,-0.03056664,-0.09350169,0.56145951,0.00912112,0.01596987,-0.0385
 0007,0.00680743,-0.00982666,0.11964412,0.00507779,0.01602277,-0.007655
 68,-0.17552789,0.08970940,-0.01906264,0.57220148,0.00641119,-0.0733973
 9,0.00702869,0.07197009,-0.18912644,0.03316404,0.12835181,0.80076358,0
 .00135156,0.00317580,-0.00543425,-0.04210517,0.05691547,-0.03627798,0.
 13730173,0.01119078,0.11213263,-0.05599432,0.04153334,-0.01731023,-0.0
 6362268,0.03646527,-0.02895625,-0.29619806,-0.10205900,-0.07218305,0.7
 6619831,0.04644757,-0.03911141,0.01878814,-0.00110959,0.00013701,-0.01
 007666,-0.07775259,-0.12370205,-0.01155445,-0.09807099,0.58200514,-0.0
 2855271,0.01761286,0.00360934,-0.02679731,0.01466415,0.00121663,-0.078
 65405,-0.03118539,-0.07467682,0.21910324,-0.04622756,0.19519017,-0.226
 84048,0.00880051,-0.06732939,-0.08811042,-0.03678215,-0.02383373,-0.00
 110757,-0.03194761,-0.01185626,-0.08450299,0.04432340,-0.00768590,0.40
 198210,0.09756953,-0.10862472,0.02097238,-0.01400187,-0.00199734,0.003
 63939,-0.08381541,-0.09020651,-0.03389560,0.02199079,-0.30021065,0.013
 03857,-0.01493600,0.50756917,-0.07474728,-0.00085943,-0.07771084,-0.03
 401419,-0.01195878,-0.00386743,-0.00589615,-0.01117074,0.02443781,-0.0
 1083801,0.02030125,-0.06088946,0.11874803,-0.01485533,0.11768281,-0.00
 505880,0.00370705,-0.00193963,0.00930770,0.02297883,0.00317508,-0.0757
 6091,-0.09330021,-0.01747628,0.00593750,-0.01954665,0.00401488,-0.0028
 5819,-0.00392180,-0.00284911,0.06744854,0.00145099,-0.00103616,-0.0007
 6219,-0.00744226,-0.01548031,-0.00210364,-0.08458451,-0.34669072,-0.00
 843373,0.00207023,-0.00183789,0.00022230,0.00149689,0.00112647,0.00132
 030,0.08968569,0.36511458,-0.00206323,0.00124313,0.00302993,0.00469320
 ,0.00798274,-0.00444524,-0.01537165,-0.01103056,-0.01518232,0.00144939
 ,-0.00839717,-0.00164261,-0.00367015,-0.00034606,0.00437976,0.01490037
 ,0.00944224,0.01572049,0.00139972,-0.00161642,-0.00198077,-0.00351530,
 0.00024097,-0.00230250,-0.00848211,0.01410074,-0.00324723,-0.27399788,
 0.10231982,-0.08551393,0.00095859,0.00082374,0.00240821,-0.00052129,-0
 .00051906,0.00066839,0.28325314,0.00241608,-0.00712784,-0.00030667,-0.
 00503723,-0.00269272,-0.00063261,-0.01044851,0.01266113,-0.00362948,0.
 09766737,-0.10511106,0.03381091,0.02997591,-0.00756294,0.01111713,0.00
 068706,-0.00042082,0.00024179,-0.11543174,0.10936738,-0.00128296,0.001
 29643,0.00754149,-0.00274599,-0.00255113,0.00602715,-0.00301772,0.0045
 9470,-0.00101047,-0.08509725,0.03488663,-0.06157885,0.00155108,0.00213
 602,-0.00511809,0.00046953,-0.00032071,-0.00187648,0.09087867,-0.04098
 393,0.05583425,0.03732255,0.01400669,-0.00437987,-0.02391509,0.0220690
 7,0.01508875,0.00352149,-0.01869567,0.00137846,0.00267280,0.00062921,0
 .00417509,-0.01572474,-0.01000109,-0.01714842,0.00092413,-0.00069898,-
 0.00007480,-0.00002318,-0.00166602,0.00086915,-0.04849263,0.00458053,-
 0.03482517,-0.01337362,0.01322653,-0.03353592,-0.01301312,-0.00263151,
 -0.00123139,-0.00105466,-0.00027695,0.00008309,-0.00087876,0.00170875,
 -0.00200028,0.00560887,0.00052096,-0.00054965,-0.00013221,0.00009079,-
 0.00007614,-0.00033962,0.00884873,0.14468226,-0.00179631,-0.03149180,-
 0.04016440,0.00685149,-0.01103822,-0.00507750,0.00141358,0.00248783,-0
 .00062170,-0.00623228,-0.00080588,-0.00087950,-0.00156154,0.01720830,0
 .00783812,-0.00016296,0.00030030,0.00004140,-0.00005223,0.00147518,-0.
 00034521,0.01987025,0.02701208,0.06174370,-0.06431388,-0.01786830,0.00
 763865,-0.14612351,-0.00296491,-0.00005036,-0.02829227,0.02508780,0.00
 486464,0.00743541,0.00528989,0.00488661,0.01850312,-0.00258478,0.01154
 852,0.00231630,-0.00275733,-0.00086658,0.00179586,0.00065358,0.0003965
 5,0.04531390,-0.03263958,-0.01495037,0.64016525,0.01167069,0.00191089,
 -0.00146092,0.01682430,-0.11190398,-0.00179954,0.02592545,-0.00392319,
 -0.00908439,0.00477255,-0.00566201,0.00313782,-0.01129038,-0.01152614,
 -0.00845909,0.00172683,-0.00219842,-0.00009459,0.00018055,-0.00021836,
 0.00118460,-0.09238456,-0.02638186,0.01128292,0.26379397,0.93469070,0.
 01457054,0.01216029,-0.00066658,0.03818218,0.00106552,-0.06124511,-0.0
 1025869,-0.01344000,-0.00185992,-0.00422731,0.00409485,-0.00138988,-0.
 00901250,-0.00619911,-0.00720674,-0.00006164,0.00077697,0.00057612,-0.
 00176791,-0.00113179,0.00021889,-0.02781487,0.00116358,0.01135038,-0.0
 6247726,0.04138463,0.24427567,-0.00090649,0.00255405,0.00234973,-0.055
 99562,-0.04148205,0.02525986,0.00655643,-0.00315773,-0.00225043,-0.001
 38409,-0.00347873,-0.00103249,-0.00730440,-0.00057927,-0.00281274,-0.0
 0098474,0.00045296,0.00024976,-0.00072967,0.00004282,-0.00015442,-0.00
 608487,0.00188826,0.00291182,-0.33208591,-0.28213670,0.03212049,0.3729
 0481,-0.01037523,0.00061332,0.00307565,-0.02740047,0.00797224,0.020661
 60,0.00126816,0.00036432,-0.00353763,-0.00282028,-0.00220286,-0.003136
 75,-0.00340761,0.00432028,-0.00014040,-0.00187381,0.00176677,0.0008419
 2,-0.00056466,0.00022970,-0.00019446,0.02428496,-0.00278050,-0.0045327
 0,-0.27890554,-0.43473964,0.02234920,0.34843569,0.51165745,-0.00128982
 ,-0.00635303,0.00194483,0.02390686,0.01463660,0.01036589,-0.00001760,0
 .00205885,-0.00084113,0.00093188,0.00103929,0.00041318,0.00352606,0.00
 166397,0.00228323,-0.00004508,-0.00020617,-0.00062428,0.00033580,0.000
 09503,-0.00005678,0.00550721,-0.00216434,0.00139668,0.02594660,0.02728
 082,-0.08545077,-0.04929832,-0.02628404,0.04821175,-0.10204565,0.01890
 255,0.02344655,-0.02011683,0.03416753,0.01475325,-0.00198839,0.0032386
 0,0.00422204,-0.00654399,0.00094866,-0.00394343,0.00500497,0.00945617,
 0.01560113,-0.00075025,0.00084540,0.00008531,-0.00013788,0.00114068,-0
 .00186664,0.00448564,0.00468350,-0.00629145,-0.14471426,0.06091730,0.0
 3074697,0.02601454,-0.04864121,-0.00950359,0.24079211,-0.05072714,0.00
 919055,0.00792976,0.05397049,-0.03889845,-0.03598268,-0.00204505,0.014
 48865,-0.00009210,-0.00127233,-0.00438729,-0.00105815,0.01205829,0.009
 11266,0.00909622,-0.00066394,0.00020615,0.00024878,0.00037528,0.000951
 67,0.00029145,0.05360766,-0.04338445,-0.01189803,0.04289522,-0.3400479
 8,-0.06222415,-0.02253931,-0.08720108,-0.01176699,-0.08565917,0.479969
 57,0.01642352,-0.00142954,0.00890483,0.02632646,-0.02932304,0.01215953
 ,0.00121887,0.00630179,-0.00066586,0.00335988,-0.00204844,0.00062779,0
 .00112429,-0.00336254,-0.00182918,-0.00002516,-0.00023568,0.00002321,0
 .00057351,-0.00005556,0.00036411,0.00252905,-0.00282820,-0.03528198,0.
 02306299,-0.06337226,-0.09860206,-0.00734326,-0.00910239,0.02235741,-0
 .06725014,0.10545588,0.09194221\\0.00002032,-0.00005921,0.00000483,-0.
 00011328,0.00003428,0.00005846,-0.00003715,-0.00001323,0.00006273,0.00
 000996,-0.00002633,-0.00003841,-0.00007456,0.00007422,-0.00003471,0.00
 001177,-0.00000070,-0.00003800,-0.00000479,0.00000124,0.00001578,0.000
 09301,0.00001085,0.00004079,0.00025974,-0.00005471,-0.00007095,-0.0000
 4845,-0.00002161,0.00000417,-0.00011657,0.00005522,-0.00000470\\\@


 THE PROMISED LAND ALWAYS LIES ON THE OTHER SIDE OF A WILDERNESS.

                         -- HAVELOCK ELLIS
 Job cpu time:       0 days  0 hours 20 minutes 29.8 seconds.
 Elapsed time:       0 days  0 hours  0 minutes 52.1 seconds.
 File lengths (MBytes):  RWF=     73 Int=      0 D2E=      0 Chk=      4 Scr=      1
 Normal termination of Gaussian 16 at Sun Jun  4 02:45:40 2023.
