 Entering Gaussian System, Link 0=/opt/soft/g16/g16
 Initial command:
 /opt/soft/g16/l1.exe "/scratch/gongke2021/PC/Gau-25933.inp" -scrdir="/scratch/gongke2021/PC/"
 Entering Link 1 = /opt/soft/g16/l1.exe PID=     25934.
  
 Copyright (c) 1988,1990,1992,1993,1995,1998,2003,2009,2016,
            Gaussian, Inc.  All Rights Reserved.
  
 This is part of the Gaussian(R) 16 program.  It is based on
 the Gaussian(R) 09 system (copyright 2009, Gaussian, Inc.),
 the Gaussian(R) 03 system (copyright 2003, Gaussian, Inc.),
 the Gaussian(R) 98 system (copyright 1998, Gaussian, Inc.),
 the Gaussian(R) 94 system (copyright 1995, Gaussian, Inc.),
 the Gaussian 92(TM) system (copyright 1992, Gaussian, Inc.),
 the Gaussian 90(TM) system (copyright 1990, Gaussian, Inc.),
 the Gaussian 88(TM) system (copyright 1988, Gaussian, Inc.),
 the Gaussian 86(TM) system (copyright 1986, Carnegie Mellon
 University), and the Gaussian 82(TM) system (copyright 1983,
 Carnegie Mellon University). Gaussian is a federally registered
 trademark of Gaussian, Inc.
  
 This software contains proprietary and confidential information,
 including trade secrets, belonging to Gaussian, Inc.
  
 This software is provided under written license and may be
 used, copied, transmitted, or stored only in accord with that
 written license.
  
 The following legend is applicable only to US Government
 contracts under FAR:
  
                    RESTRICTED RIGHTS LEGEND
  
 Use, reproduction and disclosure by the US Government is
 subject to restrictions as set forth in subparagraphs (a)
 and (c) of the Commercial Computer Software - Restricted
 Rights clause in FAR 52.227-19.
  
 Gaussian, Inc.
 340 Quinnipiac St., Bldg. 40, Wallingford CT 06492
  
  
 ---------------------------------------------------------------
 Warning -- This program may not be used in any manner that
 competes with the business of Gaussian, Inc. or will provide
 assistance to any competitor of Gaussian, Inc.  The licensee
 of this program is prohibited from giving any competitor of
 Gaussian, Inc. access to this program.  By using this program,
 the user acknowledges that Gaussian, Inc. is engaged in the
 business of creating and licensing software in the field of
 computational chemistry and represents and warrants to the
 licensee that it is not a competitor of Gaussian, Inc. and that
 it will not use this program in any manner prohibited above.
 ---------------------------------------------------------------
  

 Cite this work as:
 Gaussian 16, Revision A.03,
 M. J. Frisch, G. W. Trucks, H. B. Schlegel, G. E. Scuseria, 
 M. A. Robb, J. R. Cheeseman, G. Scalmani, V. Barone, 
 G. A. Petersson, H. Nakatsuji, X. Li, M. Caricato, A. V. Marenich, 
 J. Bloino, B. G. Janesko, R. Gomperts, B. Mennucci, H. P. Hratchian, 
 J. V. Ortiz, A. F. Izmaylov, J. L. Sonnenberg, D. Williams-Young, 
 F. Ding, F. Lipparini, F. Egidi, J. Goings, B. Peng, A. Petrone, 
 T. Henderson, D. Ranasinghe, V. G. Zakrzewski, J. Gao, N. Rega, 
 G. Zheng, W. Liang, M. Hada, M. Ehara, K. Toyota, R. Fukuda, 
 J. Hasegawa, M. Ishida, T. Nakajima, Y. Honda, O. Kitao, H. Nakai, 
 T. Vreven, K. Throssell, J. A. Montgomery, Jr., J. E. Peralta, 
 F. Ogliaro, M. J. Bearpark, J. J. Heyd, E. N. Brothers, K. N. Kudin, 
 V. N. Staroverov, T. A. Keith, R. Kobayashi, J. Normand, 
 K. Raghavachari, A. P. Rendell, J. C. Burant, S. S. Iyengar, 
 J. Tomasi, M. Cossi, J. M. Millam, M. Klene, C. Adamo, R. Cammi, 
 J. W. Ochterski, R. L. Martin, K. Morokuma, O. Farkas, 
 J. B. Foresman, and D. J. Fox, Gaussian, Inc., Wallingford CT, 2016.
 
 ******************************************
 Gaussian 16:  ES64L-G16RevA.03 25-Dec-2016
                 4-Jun-2023 
 ******************************************
 %mem=10GB
 %nprocshared=24
 Will use up to   24 processors via shared memory.
 ----------------------------
 # opt freq 6-31+g(d,p) m062x
 ----------------------------
 1/18=20,19=15,26=3,38=1/1,3;
 2/9=110,12=2,17=6,18=5,40=1/2;
 3/5=1,6=6,7=111,11=2,25=1,30=1,71=1,74=-55/1,2,3;
 4//1;
 5/5=2,38=5/2;
 6/7=2,8=2,9=2,10=2,28=1/1;
 7//1,2,3,16;
 1/18=20,19=15,26=3/3(2);
 2/9=110/2;
 99//99;
 2/9=110/2;
 3/5=1,6=6,7=111,11=2,25=1,30=1,71=1,74=-55/1,2,3;
 4/5=5,16=3,69=1/1;
 5/5=2,38=5/2;
 7//1,2,3,16;
 1/18=20,19=15,26=3/3(-5);
 2/9=110/2;
 6/7=2,8=2,9=2,10=2,19=2,28=1/1;
 99/9=1/99;
 ----
 test
 ----
 Symbolic Z-matrix:
 Charge = -1 Multiplicity = 2
 N                     0.56164  -0.92185  -0.36206 
 N                     0.24137   0.40484  -0.02664 
 C                     1.43532   1.07857   0.21054 
 C                     2.40661   0.1077    0.11223 
 N                     1.89376  -1.0985   -0.18968 
 H                     1.43986   2.13061   0.43378 
 H                     3.47282   0.22594   0.25259 
 H                    -0.61549  -1.76873  -0.08417 
 C                    -1.02948   0.96797  -0.05791 
 O                    -1.14715   2.18319   0.08511 
 O                    -2.03669   0.14123  -0.24506 
 H                    -1.51722  -2.41348   1.17618 
 O                    -1.44208  -2.19293   0.24287 
 H                    -1.68438  -0.77888  -0.10739 
 
 Add virtual bond connecting atoms N1         and H8         Dist= 2.79D+00.
 Add virtual bond connecting atoms H14        and H8         Dist= 2.75D+00.
 Add virtual bond connecting atoms H14        and O13        Dist= 2.79D+00.

 GradGradGradGradGradGradGradGradGradGradGradGradGradGradGradGradGradGrad
 Berny optimization.
 Initialization pass.
                           ----------------------------
                           !    Initial Parameters    !
                           ! (Angstroms and Degrees)  !
 --------------------------                            --------------------------
 ! Name  Definition              Value          Derivative Info.                !
 --------------------------------------------------------------------------------
 ! R1    R(1,2)                  1.4054         estimate D2E/DX2                !
 ! R2    R(1,5)                  1.3548         estimate D2E/DX2                !
 ! R3    R(1,8)                  1.4765         estimate D2E/DX2                !
 ! R4    R(2,3)                  1.3913         estimate D2E/DX2                !
 ! R5    R(2,9)                  1.3904         estimate D2E/DX2                !
 ! R6    R(3,4)                  1.3768         estimate D2E/DX2                !
 ! R7    R(3,6)                  1.0755         estimate D2E/DX2                !
 ! R8    R(4,5)                  1.345          estimate D2E/DX2                !
 ! R9    R(4,7)                  1.0819         estimate D2E/DX2                !
 ! R10   R(8,13)                 0.985          estimate D2E/DX2                !
 ! R11   R(8,14)                 1.457          estimate D2E/DX2                !
 ! R12   R(9,10)                 1.2293         estimate D2E/DX2                !
 ! R13   R(9,11)                 1.3164         estimate D2E/DX2                !
 ! R14   R(11,14)                0.9948         estimate D2E/DX2                !
 ! R15   R(12,13)                0.9619         estimate D2E/DX2                !
 ! R16   R(13,14)                1.4768         estimate D2E/DX2                !
 ! A1    A(2,1,5)              108.4687         estimate D2E/DX2                !
 ! A2    A(2,1,8)              108.3517         estimate D2E/DX2                !
 ! A3    A(5,1,8)              133.2488         estimate D2E/DX2                !
 ! A4    A(1,2,3)              107.5926         estimate D2E/DX2                !
 ! A5    A(1,2,9)              125.821          estimate D2E/DX2                !
 ! A6    A(3,2,9)              126.3059         estimate D2E/DX2                !
 ! A7    A(2,3,4)              104.5811         estimate D2E/DX2                !
 ! A8    A(2,3,6)              120.8442         estimate D2E/DX2                !
 ! A9    A(4,3,6)              134.558          estimate D2E/DX2                !
 ! A10   A(3,4,5)              112.2978         estimate D2E/DX2                !
 ! A11   A(3,4,7)              127.5101         estimate D2E/DX2                !
 ! A12   A(5,4,7)              120.1914         estimate D2E/DX2                !
 ! A13   A(1,5,4)              106.6509         estimate D2E/DX2                !
 ! A14   A(1,8,14)             101.0814         estimate D2E/DX2                !
 ! A15   A(2,9,10)             119.0297         estimate D2E/DX2                !
 ! A16   A(2,9,11)             116.6268         estimate D2E/DX2                !
 ! A17   A(10,9,11)            124.3433         estimate D2E/DX2                !
 ! A18   A(9,11,14)            106.8708         estimate D2E/DX2                !
 ! A19   A(8,13,12)            119.1069         estimate D2E/DX2                !
 ! A20   A(12,13,14)           115.9019         estimate D2E/DX2                !
 ! A21   A(8,14,11)            152.9187         estimate D2E/DX2                !
 ! A22   L(1,8,13,11,-1)       172.5469         estimate D2E/DX2                !
 ! A23   L(11,14,13,2,-1)      190.4388         estimate D2E/DX2                !
 ! A24   L(1,8,13,11,-2)       189.2857         estimate D2E/DX2                !
 ! A25   L(11,14,13,2,-2)      172.9687         estimate D2E/DX2                !
 ! D1    D(5,1,2,3)              6.6235         estimate D2E/DX2                !
 ! D2    D(5,1,2,9)           -179.1629         estimate D2E/DX2                !
 ! D3    D(8,1,2,3)            157.3002         estimate D2E/DX2                !
 ! D4    D(8,1,2,9)            -28.4862         estimate D2E/DX2                !
 ! D5    D(2,1,5,4)             -5.8386         estimate D2E/DX2                !
 ! D6    D(8,1,5,4)           -146.1835         estimate D2E/DX2                !
 ! D7    D(2,1,8,14)            21.7372         estimate D2E/DX2                !
 ! D8    D(5,1,8,14)           162.1144         estimate D2E/DX2                !
 ! D9    D(2,1,13,12)          -81.0792         estimate D2E/DX2                !
 ! D10   D(5,1,13,12)           54.3195         estimate D2E/DX2                !
 ! D11   D(1,2,3,4)             -4.6065         estimate D2E/DX2                !
 ! D12   D(1,2,3,6)            176.6739         estimate D2E/DX2                !
 ! D13   D(9,2,3,4)           -178.7842         estimate D2E/DX2                !
 ! D14   D(9,2,3,6)              2.4962         estimate D2E/DX2                !
 ! D15   D(1,2,9,10)          -170.2727         estimate D2E/DX2                !
 ! D16   D(1,2,9,11)             9.5987         estimate D2E/DX2                !
 ! D17   D(3,2,9,10)             2.8781         estimate D2E/DX2                !
 ! D18   D(3,2,9,11)          -177.2505         estimate D2E/DX2                !
 ! D19   D(2,3,4,5)              1.0909         estimate D2E/DX2                !
 ! D20   D(2,3,4,7)           -178.6116         estimate D2E/DX2                !
 ! D21   D(6,3,4,5)            179.548          estimate D2E/DX2                !
 ! D22   D(6,3,4,7)             -0.1544         estimate D2E/DX2                !
 ! D23   D(3,4,5,1)              2.9903         estimate D2E/DX2                !
 ! D24   D(7,4,5,1)           -177.2828         estimate D2E/DX2                !
 ! D25   D(1,8,14,11)            4.5935         estimate D2E/DX2                !
 ! D26   D(2,9,11,14)           13.6029         estimate D2E/DX2                !
 ! D27   D(10,9,11,14)        -166.5332         estimate D2E/DX2                !
 ! D28   D(9,11,13,12)          84.3166         estimate D2E/DX2                !
 ! D29   D(9,11,14,8)          -24.8565         estimate D2E/DX2                !
 ! D30   D(13,11,14,8)        -165.1894         estimate D2E/DX2                !
 --------------------------------------------------------------------------------
 Trust Radius=3.00D-01 FncErr=1.00D-07 GrdErr=1.00D-06 EigMax=2.50D+02 EigMin=1.00D-04
 Number of steps in this run=     81 maximum allowed number of steps=    100.
 GradGradGradGradGradGradGradGradGradGradGradGradGradGradGradGradGradGrad

                          Input orientation:                          
 ---------------------------------------------------------------------
 Center     Atomic      Atomic             Coordinates (Angstroms)
 Number     Number       Type             X           Y           Z
 ---------------------------------------------------------------------
      1          7           0        0.561643   -0.921850   -0.362055
      2          7           0        0.241370    0.404843   -0.026638
      3          6           0        1.435322    1.078573    0.210544
      4          6           0        2.406606    0.107704    0.112225
      5          7           0        1.893764   -1.098496   -0.189675
      6          1           0        1.439862    2.130605    0.433779
      7          1           0        3.472824    0.225938    0.252591
      8          1           0       -0.615488   -1.768734   -0.084174
      9          6           0       -1.029484    0.967965   -0.057905
     10          8           0       -1.147145    2.183187    0.085111
     11          8           0       -2.036694    0.141230   -0.245059
     12          1           0       -1.517218   -2.413475    1.176176
     13          8           0       -1.442084   -2.192926    0.242873
     14          1           0       -1.684383   -0.778878   -0.107390
 ---------------------------------------------------------------------
                    Distance matrix (angstroms):
                    1          2          3          4          5
     1  N    0.000000
     2  N    1.405416   0.000000
     3  C    2.256740   1.391290   0.000000
     4  C    2.165366   2.189936   1.376825   0.000000
     5  N    1.354793   2.239869   2.260525   1.345016   0.000000
     6  H    3.274462   2.150958   1.075465   2.264977   3.319912
     7  H    3.189072   3.248426   2.209110   1.081898   2.107879
     8  H    1.476506   2.337083   3.521341   3.562674   2.599365
     9  C    2.489095   1.390379   2.481848   3.546224   3.582318
    10  O    3.572278   2.258975   2.811591   4.115521   4.482419
    11  O    2.809837   2.303644   3.625063   4.457767   4.121709
    12  H    2.985425   3.533031   4.673793   4.783799   3.902501
    13  O    2.448774   3.107259   4.356973   4.485798   3.537338
    14  H    2.264935   2.261911   3.644690   4.191712   3.593336
                    6          7          8          9         10
     6  H    0.000000
     7  H    2.791688   0.000000
     8  H    4.438196   4.561406   0.000000
     9  C    2.773293   4.573597   2.767961   0.000000
    10  O    2.610927   5.020258   3.991115   1.229253   0.000000
    11  O    4.062619   5.532596   2.386142   1.316431   2.251643
    12  H    5.472124   5.720142   1.678478   3.632489   4.738848
    13  O    5.199517   5.477894   0.984966   3.201865   4.388877
    14  H    4.303355   5.266500   1.457014   1.866227   3.016539
                   11         12         13         14
    11  O    0.000000
    12  H    2.969222   0.000000
    13  O    2.457625   0.961947   0.000000
    14  H    0.994824   2.085040   1.476796   0.000000
 Stoichiometry    C3H5N3O3(1-,2)
 Framework group  C1[X(C3H5N3O3)]
 Deg. of freedom    36
 Full point group                 C1      NOp   1
 Largest Abelian subgroup         C1      NOp   1
 Largest concise Abelian subgroup C1      NOp   1
                         Standard orientation:                         
 ---------------------------------------------------------------------
 Center     Atomic      Atomic             Coordinates (Angstroms)
 Number     Number       Type             X           Y           Z
 ---------------------------------------------------------------------
      1          7           0       -0.558329    0.926441   -0.359680
      2          7           0       -0.245992   -0.402469   -0.025559
      3          6           0       -1.444023   -1.069665    0.209515
      4          6           0       -2.409646   -0.093149    0.111357
      5          7           0       -1.889605    1.110475   -0.188505
      6          1           0       -1.454806   -2.121927    0.431446
      7          1           0       -3.476671   -0.205468    0.250438
      8          1           0        0.623316    1.766252   -0.079496
      9          6           0        1.021661   -0.972796   -0.056163
     10          8           0        1.132233   -2.188844    0.085478
     11          8           0        2.033773   -0.151593   -0.241220
     12          1           0        1.527353    2.404287    1.182612
     13          8           0        1.451966    2.185317    0.248958
     14          1           0        1.686569    0.770341   -0.102791
 ---------------------------------------------------------------------
 Rotational constants (GHZ):           2.1996610           1.6268369           0.9590150
 Standard basis: 6-31+G(d,p) (6D, 7F)
 There are   196 symmetry adapted cartesian basis functions of A   symmetry.
 There are   196 symmetry adapted basis functions of A   symmetry.
   196 basis functions,   323 primitive gaussians,   196 cartesian basis functions
    35 alpha electrons       34 beta electrons
       nuclear repulsion energy       462.3836432841 Hartrees.
 NAtoms=   14 NActive=   14 NUniq=   14 SFac= 1.00D+00 NAtFMM=   60 NAOKFM=F Big=F
 Integral buffers will be    131072 words long.
 Raffenetti 2 integral format.
 Two-electron integral symmetry is turned on.
 One-electron integrals computed using PRISM.
 NBasis=   196 RedAO= T EigKep=  2.50D-05  NBF=   196
 NBsUse=   196 1.00D-06 EigRej= -1.00D+00 NBFU=   196
 ExpMin= 4.38D-02 ExpMax= 5.48D+03 ExpMxC= 8.25D+02 IAcc=3 IRadAn=         5 AccDes= 0.00D+00
 Harris functional with IExCor= 1009 and IRadAn=       5 diagonalized for initial guess.
 HarFok:  IExCor= 1009 AccDes= 0.00D+00 IRadAn=         5 IDoV= 1 UseB2=F ITyADJ=14
 ICtDFT=  3500011 ScaDFX=  1.000000  1.000000  1.000000  1.000000
 FoFCou: FMM=F IPFlag=           0 FMFlag=      100000 FMFlg1=           0
         NFxFlg=           0 DoJE=T BraDBF=F KetDBF=T FulRan=T
         wScrn=  0.000000 ICntrl=       500 IOpCl=  0 I1Cent=   200000004 NGrid=           0
         NMat0=    1 NMatS0=      1 NMatT0=    0 NMatD0=    1 NMtDS0=    0 NMtDT0=    0
 Petite list used in FoFCou.
 Initial guess <Sx>= 0.0000 <Sy>= 0.0000 <Sz>= 0.5000 <S**2>= 0.7500 S= 0.5000
 Requested convergence on RMS density matrix=1.00D-08 within 128 cycles.
 Requested convergence on MAX density matrix=1.00D-06.
 Requested convergence on             energy=1.00D-06.
 No special actions if energy rises.
 SCF Done:  E(UM062X) =  -507.060818367     A.U. after   18 cycles
            NFock= 18  Conv=0.42D-08     -V/T= 2.0076
 <Sx>= 0.0000 <Sy>= 0.0000 <Sz>= 0.5000 <S**2>= 0.7647 S= 0.5073
 <L.S>=  0.00000000000    
 Annihilation of the first spin contaminant:
 S**2 before annihilation     0.7647,   after     0.7501

 **********************************************************************

            Population analysis using the SCF density.

 **********************************************************************

 Orbital symmetries:
 Alpha Orbitals:
       Occupied  (A) (A) (A) (A) (A) (A) (A) (A) (A) (A) (A) (A)
                 (A) (A) (A) (A) (A) (A) (A) (A) (A) (A) (A) (A)
                 (A) (A) (A) (A) (A) (A) (A) (A) (A) (A) (A)
       Virtual   (A) (A) (A) (A) (A) (A) (A) (A) (A) (A) (A) (A)
                 (A) (A) (A) (A) (A) (A) (A) (A) (A) (A) (A) (A)
                 (A) (A) (A) (A) (A) (A) (A) (A) (A) (A) (A) (A)
                 (A) (A) (A) (A) (A) (A) (A) (A) (A) (A) (A) (A)
                 (A) (A) (A) (A) (A) (A) (A) (A) (A) (A) (A) (A)
                 (A) (A) (A) (A) (A) (A) (A) (A) (A) (A) (A) (A)
                 (A) (A) (A) (A) (A) (A) (A) (A) (A) (A) (A) (A)
                 (A) (A) (A) (A) (A) (A) (A) (A) (A) (A) (A) (A)
                 (A) (A) (A) (A) (A) (A) (A) (A) (A) (A) (A) (A)
                 (A) (A) (A) (A) (A) (A) (A) (A) (A) (A) (A) (A)
                 (A) (A) (A) (A) (A) (A) (A) (A) (A) (A) (A) (A)
                 (A) (A) (A) (A) (A) (A) (A) (A) (A) (A) (A) (A)
                 (A) (A) (A) (A) (A) (A) (A) (A) (A) (A) (A) (A)
                 (A) (A) (A) (A) (A)
 Beta  Orbitals:
       Occupied  (A) (A) (A) (A) (A) (A) (A) (A) (A) (A) (A) (A)
                 (A) (A) (A) (A) (A) (A) (A) (A) (A) (A) (A) (A)
                 (A) (A) (A) (A) (A) (A) (A) (A) (A) (A)
       Virtual   (A) (A) (A) (A) (A) (A) (A) (A) (A) (A) (A) (A)
                 (A) (A) (A) (A) (A) (A) (A) (A) (A) (A) (A) (A)
                 (A) (A) (A) (A) (A) (A) (A) (A) (A) (A) (A) (A)
                 (A) (A) (A) (A) (A) (A) (A) (A) (A) (A) (A) (A)
                 (A) (A) (A) (A) (A) (A) (A) (A) (A) (A) (A) (A)
                 (A) (A) (A) (A) (A) (A) (A) (A) (A) (A) (A) (A)
                 (A) (A) (A) (A) (A) (A) (A) (A) (A) (A) (A) (A)
                 (A) (A) (A) (A) (A) (A) (A) (A) (A) (A) (A) (A)
                 (A) (A) (A) (A) (A) (A) (A) (A) (A) (A) (A) (A)
                 (A) (A) (A) (A) (A) (A) (A) (A) (A) (A) (A) (A)
                 (A) (A) (A) (A) (A) (A) (A) (A) (A) (A) (A) (A)
                 (A) (A) (A) (A) (A) (A) (A) (A) (A) (A) (A) (A)
                 (A) (A) (A) (A) (A) (A) (A) (A) (A) (A) (A) (A)
                 (A) (A) (A) (A) (A) (A)
 The electronic state is 2-A.
 Alpha  occ. eigenvalues --  -19.51463 -19.49491 -19.45729 -14.67951 -14.63876
 Alpha  occ. eigenvalues --  -14.61495 -10.54114 -10.41972 -10.41809  -1.08401
 Alpha  occ. eigenvalues --   -1.01171  -0.99878  -0.96700  -0.84390  -0.73382
 Alpha  occ. eigenvalues --   -0.62094  -0.54661  -0.53670  -0.50797  -0.46247
 Alpha  occ. eigenvalues --   -0.41353  -0.38782  -0.38022  -0.34874  -0.34340
 Alpha  occ. eigenvalues --   -0.32319  -0.31645  -0.25633  -0.24096  -0.23649
 Alpha  occ. eigenvalues --   -0.21413  -0.20539  -0.18439  -0.17190  -0.00026
 Alpha virt. eigenvalues --    0.13808   0.15522   0.16783   0.17560   0.18391
 Alpha virt. eigenvalues --    0.19132   0.19538   0.21396   0.23095   0.24206
 Alpha virt. eigenvalues --    0.24418   0.25202   0.26505   0.27305   0.28919
 Alpha virt. eigenvalues --    0.30058   0.30698   0.33075   0.34077   0.34903
 Alpha virt. eigenvalues --    0.35904   0.36710   0.37174   0.37470   0.38347
 Alpha virt. eigenvalues --    0.39033   0.39883   0.41033   0.41374   0.41658
 Alpha virt. eigenvalues --    0.43147   0.43584   0.44330   0.44923   0.45963
 Alpha virt. eigenvalues --    0.46508   0.47135   0.47860   0.49512   0.50514
 Alpha virt. eigenvalues --    0.52385   0.52921   0.56082   0.56440   0.57396
 Alpha virt. eigenvalues --    0.59769   0.63918   0.65533   0.66364   0.68372
 Alpha virt. eigenvalues --    0.79090   0.87473   0.88884   0.92267   0.97257
 Alpha virt. eigenvalues --    0.98689   0.99341   1.04614   1.07058   1.09330
 Alpha virt. eigenvalues --    1.10035   1.12690   1.13993   1.15750   1.18274
 Alpha virt. eigenvalues --    1.18551   1.21600   1.22716   1.24642   1.29307
 Alpha virt. eigenvalues --    1.31484   1.32454   1.33488   1.36385   1.38195
 Alpha virt. eigenvalues --    1.40718   1.41973   1.43547   1.46887   1.48173
 Alpha virt. eigenvalues --    1.49104   1.52049   1.52466   1.55711   1.57377
 Alpha virt. eigenvalues --    1.57941   1.58931   1.60023   1.61190   1.64087
 Alpha virt. eigenvalues --    1.67684   1.68741   1.72224   1.73261   1.76374
 Alpha virt. eigenvalues --    1.79162   1.79363   1.83268   1.89954   1.91348
 Alpha virt. eigenvalues --    1.96773   1.98744   2.00982   2.02321   2.07878
 Alpha virt. eigenvalues --    2.08578   2.10430   2.14650   2.15142   2.19302
 Alpha virt. eigenvalues --    2.21012   2.26256   2.30659   2.32710   2.38232
 Alpha virt. eigenvalues --    2.40521   2.40824   2.43641   2.48244   2.49827
 Alpha virt. eigenvalues --    2.56684   2.57335   2.60169   2.62008   2.65510
 Alpha virt. eigenvalues --    2.69569   2.71061   2.74127   2.76143   2.81828
 Alpha virt. eigenvalues --    2.85416   2.87645   2.90187   2.93164   2.97932
 Alpha virt. eigenvalues --    3.03856   3.05687   3.06625   3.08342   3.11338
 Alpha virt. eigenvalues --    3.15385   3.20194   3.24137   3.26436   3.32279
 Alpha virt. eigenvalues --    3.43957   3.45990   3.55896   3.60331   3.85901
 Alpha virt. eigenvalues --    3.89548   3.98057   4.27790   4.40272   4.48080
 Alpha virt. eigenvalues --    4.50810   4.58938   4.64181   4.72950   4.88936
 Alpha virt. eigenvalues --    4.92113
  Beta  occ. eigenvalues --  -19.51413 -19.49480 -19.45535 -14.67826 -14.63291
  Beta  occ. eigenvalues --  -14.61192 -10.54044 -10.42060 -10.41602  -1.08024
  Beta  occ. eigenvalues --   -1.00196  -0.99743  -0.96263  -0.83406  -0.72372
  Beta  occ. eigenvalues --   -0.60976  -0.54492  -0.53245  -0.50234  -0.45813
  Beta  occ. eigenvalues --   -0.39837  -0.38390  -0.37552  -0.34139  -0.33340
  Beta  occ. eigenvalues --   -0.31773  -0.31229  -0.25467  -0.23033  -0.22212
  Beta  occ. eigenvalues --   -0.20637  -0.18017  -0.17522  -0.13788
  Beta virt. eigenvalues --    0.13446   0.14773   0.15137   0.15777   0.17317
  Beta virt. eigenvalues --    0.18105   0.18513   0.19738   0.20422   0.21739
  Beta virt. eigenvalues --    0.23037   0.24544   0.25654   0.26378   0.27121
  Beta virt. eigenvalues --    0.28552   0.29747   0.30867   0.32732   0.33927
  Beta virt. eigenvalues --    0.34736   0.35735   0.36435   0.36876   0.37172
  Beta virt. eigenvalues --    0.38345   0.38499   0.39839   0.40657   0.41266
  Beta virt. eigenvalues --    0.41351   0.43082   0.43338   0.44218   0.44639
  Beta virt. eigenvalues --    0.45747   0.46351   0.46790   0.47448   0.48914
  Beta virt. eigenvalues --    0.50101   0.52200   0.52589   0.56063   0.56434
  Beta virt. eigenvalues --    0.57309   0.59743   0.63680   0.66035   0.66445
  Beta virt. eigenvalues --    0.68641   0.79315   0.87645   0.88474   0.93392
  Beta virt. eigenvalues --    0.97494   0.98893   0.99336   1.04715   1.07293
  Beta virt. eigenvalues --    1.09489   1.11165   1.12885   1.14321   1.16401
  Beta virt. eigenvalues --    1.19000   1.19599   1.21791   1.23082   1.24860
  Beta virt. eigenvalues --    1.29483   1.31810   1.32350   1.33589   1.36346
  Beta virt. eigenvalues --    1.38462   1.41284   1.42061   1.43801   1.47181
  Beta virt. eigenvalues --    1.48622   1.49207   1.52674   1.53103   1.56041
  Beta virt. eigenvalues --    1.57456   1.58049   1.59347   1.60202   1.61683
  Beta virt. eigenvalues --    1.64589   1.68254   1.68934   1.72360   1.73434
  Beta virt. eigenvalues --    1.76669   1.79336   1.79886   1.83706   1.90032
  Beta virt. eigenvalues --    1.91667   1.96943   1.99086   2.01248   2.02530
  Beta virt. eigenvalues --    2.08110   2.08977   2.10861   2.15227   2.15391
  Beta virt. eigenvalues --    2.19569   2.21244   2.26861   2.31083   2.33148
  Beta virt. eigenvalues --    2.38417   2.40952   2.41595   2.43944   2.48779
  Beta virt. eigenvalues --    2.50417   2.57358   2.57699   2.60392   2.62583
  Beta virt. eigenvalues --    2.65624   2.69851   2.71760   2.74462   2.76638
  Beta virt. eigenvalues --    2.82124   2.85918   2.88176   2.90948   2.93392
  Beta virt. eigenvalues --    2.98169   3.04133   3.05985   3.07124   3.08920
  Beta virt. eigenvalues --    3.11736   3.15633   3.20273   3.24457   3.26639
  Beta virt. eigenvalues --    3.32480   3.44349   3.46253   3.56199   3.60363
  Beta virt. eigenvalues --    3.85930   3.90151   3.98051   4.28065   4.40383
  Beta virt. eigenvalues --    4.48149   4.50849   4.59027   4.64048   4.73948
  Beta virt. eigenvalues --    4.89779   4.92115
          Condensed to atoms (all electrons):
               1          2          3          4          5          6
     1  N    8.090635  -0.569104  -0.241806   0.287724  -0.256681   0.006677
     2  N   -0.569104   7.768821   0.271048  -0.273012   0.221700  -0.047700
     3  C   -0.241806   0.271048   6.472265  -0.412184  -0.059683   0.449222
     4  C    0.287724  -0.273012  -0.412184   5.992933   0.205637  -0.066315
     5  N   -0.256681   0.221700  -0.059683   0.205637   7.250311   0.001827
     6  H    0.006677  -0.047700   0.449222  -0.066315   0.001827   0.494654
     7  H    0.014657  -0.018365  -0.015079   0.377888  -0.053114   0.000685
     8  H    0.158881  -0.029849   0.001720   0.007049  -0.022788  -0.000022
     9  C   -0.057812   0.231105  -0.215447   0.004976   0.039284  -0.005747
    10  O    0.021096  -0.176906  -0.075305   0.068889  -0.011350  -0.005431
    11  O    0.061967  -0.231721   0.021590   0.031954  -0.018943  -0.000878
    12  H    0.007483  -0.005974  -0.000394   0.000104   0.004069  -0.000000
    13  O   -0.203571   0.079590   0.022373  -0.012085  -0.015160   0.000078
    14  H   -0.007738   0.012568   0.007044  -0.013718   0.015453   0.000021
               7          8          9         10         11         12
     1  N    0.014657   0.158881  -0.057812   0.021096   0.061967   0.007483
     2  N   -0.018365  -0.029849   0.231105  -0.176906  -0.231721  -0.005974
     3  C   -0.015079   0.001720  -0.215447  -0.075305   0.021590  -0.000394
     4  C    0.377888   0.007049   0.004976   0.068889   0.031954   0.000104
     5  N   -0.053114  -0.022788   0.039284  -0.011350  -0.018943   0.004069
     6  H    0.000685  -0.000022  -0.005747  -0.005431  -0.000878  -0.000000
     7  H    0.578115  -0.000030  -0.001780  -0.000260  -0.000003  -0.000000
     8  H   -0.000030   0.256956  -0.000379   0.000244   0.000737  -0.014244
     9  C   -0.001780  -0.000379   4.656530   0.501349   0.147512   0.001692
    10  O   -0.000260   0.000244   0.501349   8.360425  -0.092437   0.000152
    11  O   -0.000003   0.000737   0.147512  -0.092437   8.564150  -0.000610
    12  H   -0.000000  -0.014244   0.001692   0.000152  -0.000610   0.347515
    13  O    0.000115   0.165471  -0.015926  -0.003107  -0.089379   0.289040
    14  H   -0.000002   0.005561   0.015119   0.007984   0.161984  -0.005112
              13         14
     1  N   -0.203571  -0.007738
     2  N    0.079590   0.012568
     3  C    0.022373   0.007044
     4  C   -0.012085  -0.013718
     5  N   -0.015160   0.015453
     6  H    0.000078   0.000021
     7  H    0.000115  -0.000002
     8  H    0.165471   0.005561
     9  C   -0.015926   0.015119
    10  O   -0.003107   0.007984
    11  O   -0.089379   0.161984
    12  H    0.289040  -0.005112
    13  O    8.613056   0.029495
    14  H    0.029495   0.326306
          Atomic-Atomic Spin Densities.
               1          2          3          4          5          6
     1  N    0.736707  -0.225362   0.219510  -0.069333  -0.277936  -0.000299
     2  N   -0.225362   0.276618  -0.274409   0.056903   0.105046   0.002877
     3  C    0.219510  -0.274409   0.575437  -0.024134  -0.129871  -0.005563
     4  C   -0.069333   0.056903  -0.024134  -0.189507   0.069673   0.002412
     5  N   -0.277936   0.105046  -0.129871   0.069673   0.467264  -0.000156
     6  H   -0.000299   0.002877  -0.005563   0.002412  -0.000156  -0.015386
     7  H    0.001114   0.000035  -0.002732   0.004810  -0.002326   0.000021
     8  H    0.009276  -0.005699  -0.000235   0.000122  -0.006206   0.000002
     9  C   -0.051662   0.124565  -0.053465   0.010700   0.008622   0.000884
    10  O    0.008605  -0.033990   0.027570  -0.005037  -0.001491   0.000597
    11  O    0.018992  -0.026602   0.016292  -0.005978  -0.002980   0.000162
    12  H   -0.001431   0.000112  -0.000294   0.000062   0.000041  -0.000000
    13  O   -0.027392   0.010194  -0.009260   0.004613   0.020564  -0.000005
    14  H   -0.001237  -0.000972  -0.000795   0.000603  -0.000038  -0.000003
               7          8          9         10         11         12
     1  N    0.001114   0.009276  -0.051662   0.008605   0.018992  -0.001431
     2  N    0.000035  -0.005699   0.124565  -0.033990  -0.026602   0.000112
     3  C   -0.002732  -0.000235  -0.053465   0.027570   0.016292  -0.000294
     4  C    0.004810   0.000122   0.010700  -0.005037  -0.005978   0.000062
     5  N   -0.002326  -0.006206   0.008622  -0.001491  -0.002980   0.000041
     6  H    0.000021   0.000002   0.000884   0.000597   0.000162  -0.000000
     7  H    0.003086   0.000001   0.000117   0.000006  -0.000001   0.000000
     8  H    0.000001  -0.006528  -0.000890  -0.000000   0.000777  -0.000905
     9  C    0.000117  -0.000890   0.156628  -0.067334  -0.038098   0.000305
    10  O    0.000006  -0.000000  -0.067334   0.155531   0.011459  -0.000022
    11  O   -0.000001   0.000777  -0.038098   0.011459   0.047582  -0.000336
    12  H    0.000000  -0.000905   0.000305  -0.000022  -0.000336  -0.000808
    13  O    0.000000   0.005157   0.009209  -0.000163  -0.004685   0.002219
    14  H    0.000000  -0.000358   0.001579  -0.000198  -0.000647  -0.000007
              13         14
     1  N   -0.027392  -0.001237
     2  N    0.010194  -0.000972
     3  C   -0.009260  -0.000795
     4  C    0.004613   0.000603
     5  N    0.020564  -0.000038
     6  H   -0.000005  -0.000003
     7  H    0.000000   0.000000
     8  H    0.005157  -0.000358
     9  C    0.009209   0.001579
    10  O   -0.000163  -0.000198
    11  O   -0.004685  -0.000647
    12  H    0.002219  -0.000007
    13  O   -0.000818   0.002162
    14  H    0.002162  -0.000660
 Mulliken charges and spin densities:
               1          2
     1  N   -0.312408   0.339551
     2  N   -0.232200   0.009314
     3  C   -0.225365   0.338050
     4  C   -0.199841  -0.144090
     5  N   -0.300562   0.250204
     6  H    0.172930  -0.014458
     7  H    0.117174   0.004130
     8  H    0.470693  -0.005486
     9  C    0.699523   0.101159
    10  O   -0.595342   0.095532
    11  O   -0.555924   0.015935
    12  H    0.376279  -0.001064
    13  O   -0.859991   0.011794
    14  H    0.445034  -0.000572
 Sum of Mulliken charges =  -1.00000   1.00000
 Mulliken charges and spin densities with hydrogens summed into heavy atoms:
               1          2
     1  N   -0.312408   0.339551
     2  N   -0.232200   0.009314
     3  C   -0.052435   0.323593
     4  C   -0.082666  -0.139960
     5  N   -0.300562   0.250204
     9  C    0.699523   0.101159
    10  O   -0.595342   0.095532
    11  O   -0.110890   0.015364
    13  O   -0.013019   0.005244
 Electronic spatial extent (au):  <R**2>=           1166.2170
 Charge=             -1.0000 electrons
 Dipole moment (field-independent basis, Debye):
    X=             -1.0559    Y=              0.6728    Z=              2.1830  Tot=              2.5165
 Quadrupole moment (field-independent basis, Debye-Ang):
   XX=            -71.8297   YY=            -74.7313   ZZ=            -55.4460
   XY=              9.6184   XZ=              1.2618   YZ=              4.7248
 Traceless Quadrupole moment (field-independent basis, Debye-Ang):
   XX=             -4.4940   YY=             -7.3956   ZZ=             11.8897
   XY=              9.6184   XZ=              1.2618   YZ=              4.7248
 Octapole moment (field-independent basis, Debye-Ang**2):
  XXX=              2.6280  YYY=             12.5071  ZZZ=              4.0154  XYY=             -4.9882
  XXY=             -5.7294  XXZ=              8.6924  XZZ=             15.2650  YZZ=              7.8269
  YYZ=             10.7528  XYZ=              5.8718
 Hexadecapole moment (field-independent basis, Debye-Ang**3):
 XXXX=           -894.7648 YYYY=           -719.7321 ZZZZ=            -80.6922 XXXY=             36.0751
 XXXZ=              1.6116 YYYX=             41.8237 YYYZ=             28.6095 ZZZX=              9.4656
 ZZZY=             16.4608 XXYY=           -297.7002 XXZZ=           -160.9688 YYZZ=           -105.5497
 XXYZ=             12.2142 YYXZ=              8.7583 ZZXY=             10.6521
 N-N= 4.623836432841D+02 E-N=-2.124289052842D+03  KE= 5.032548791619D+02
                          Isotropic Fermi Contact Couplings
        Atom                 a.u.       MegaHertz       Gauss      10(-4) cm-1
     1  N(14)              0.09468      30.59067      10.91551      10.20395
     2  N(14)             -0.00180      -0.58027      -0.20705      -0.19356
     3  C(13)              0.04143      46.57556      16.61932      15.53594
     4  C(13)             -0.02795     -31.41929     -11.21118     -10.48035
     5  N(14)              0.05451      17.61360       6.28497       5.87526
     6  H(1)              -0.00453     -20.22730      -7.21760      -6.74710
     7  H(1)               0.00090       4.04373       1.44290       1.34884
     8  H(1)              -0.00041      -1.85153      -0.66067      -0.61760
     9  C(13)              0.01403      15.77095       5.62747       5.26062
    10  O(17)              0.02257     -13.67972      -4.88126      -4.56306
    11  O(17)              0.00426      -2.58050      -0.92079      -0.86076
    12  H(1)              -0.00017      -0.75706      -0.27014      -0.25253
    13  O(17)             -0.00143       0.86458       0.30850       0.28839
    14  H(1)              -0.00022      -0.97285      -0.34714      -0.32451
 --------------------------------------------------------
       Center         ----  Spin Dipole Couplings  ----
                      3XX-RR        3YY-RR        3ZZ-RR
 --------------------------------------------------------
     1   Atom       -0.416490     -0.349906      0.766396
     2   Atom       -0.118431     -0.112718      0.231148
     3   Atom       -0.133680     -0.110527      0.244207
     4   Atom        0.043649      0.048383     -0.092032
     5   Atom       -0.247808     -0.215913      0.463721
     6   Atom       -0.020364      0.020867     -0.000503
     7   Atom        0.000316      0.004990     -0.005306
     8   Atom        0.016850     -0.000165     -0.016685
     9   Atom       -0.059689     -0.062436      0.122125
    10   Atom       -0.173671     -0.186396      0.360067
    11   Atom       -0.053312     -0.052005      0.105317
    12   Atom        0.000547      0.000087     -0.000634
    13   Atom        0.014132     -0.001426     -0.012706
    14   Atom        0.006941      0.001519     -0.008459
 --------------------------------------------------------
                        XY            XZ            YZ
 --------------------------------------------------------
     1   Atom        0.032771      0.144341      0.303988
     2   Atom       -0.005230      0.034597      0.068820
     3   Atom        0.014006      0.040342      0.079783
     4   Atom        0.001870     -0.017126     -0.032086
     5   Atom        0.018334      0.073129      0.147236
     6   Atom        0.002721      0.001454     -0.005146
     7   Atom        0.002041     -0.001215     -0.002411
     8   Atom        0.023042      0.000118      0.000744
     9   Atom       -0.006783      0.021131      0.021316
    10   Atom        0.007245      0.048374      0.057579
    11   Atom       -0.005166      0.005406      0.011039
    12   Atom        0.003506      0.002949      0.002938
    13   Atom        0.020625     -0.006804     -0.003768
    14   Atom        0.000681      0.001142     -0.000747
 --------------------------------------------------------


 ---------------------------------------------------------------------------------
              Anisotropic Spin Dipole Couplings in Principal Axis System
 ---------------------------------------------------------------------------------

       Atom             a.u.   MegaHertz   Gauss  10(-4) cm-1        Axes

              Baa    -0.4354   -16.794    -5.993    -5.602  0.8982  0.3883 -0.2061
     1 N(14)  Bbb    -0.4255   -16.411    -5.856    -5.474 -0.4243  0.8884 -0.1752
              Bcc     0.8609    33.205    11.848    11.076  0.1151  0.2448  0.9627
 
              Baa    -0.1356    -5.228    -1.865    -1.744  0.6328  0.7480 -0.2001
     2 N(14)  Bbb    -0.1118    -4.313    -1.539    -1.439  0.7691 -0.6372  0.0503
              Bcc     0.2474     9.541     3.405     3.183  0.0899  0.1857  0.9785
 
              Baa    -0.1403   -18.829    -6.719    -6.281  0.9199 -0.3918 -0.0152
     3 C(13)  Bbb    -0.1255   -16.842    -6.010    -5.618  0.3776  0.8958 -0.2345
              Bcc     0.2658    35.671    12.728    11.898  0.1055  0.2100  0.9720
 
              Baa    -0.1009   -13.535    -4.830    -4.515  0.1125  0.2075  0.9717
     4 C(13)  Bbb     0.0431     5.782     2.063     1.929  0.9085 -0.4177 -0.0160
              Bcc     0.0578     7.753     2.766     2.586  0.4025  0.8846 -0.2355
 
              Baa    -0.2563    -9.887    -3.528    -3.298  0.9498 -0.3110 -0.0329
     5 N(14)  Bbb    -0.2455    -9.467    -3.378    -3.158  0.2964  0.9286 -0.2233
              Bcc     0.5018    19.354     6.906     6.456  0.1000  0.2024  0.9742
 
              Baa    -0.0207   -11.048    -3.942    -3.685  0.9929 -0.0763 -0.0909
     6 H(1)   Bbb    -0.0015    -0.781    -0.279    -0.260  0.1052  0.2111  0.9718
              Bcc     0.0222    11.829     4.221     3.946  0.0549  0.9745 -0.2177
 
              Baa    -0.0059    -3.168    -1.130    -1.057  0.1268  0.1910  0.9734
     7 H(1)   Bbb    -0.0004    -0.233    -0.083    -0.078  0.9276 -0.3704 -0.0481
              Bcc     0.0064     3.401     1.213     1.134  0.3513  0.9090 -0.2242
 
              Baa    -0.0170    -9.095    -3.245    -3.034  0.3068 -0.4555  0.8357
     8 H(1)   Bbb    -0.0159    -8.464    -3.020    -2.823 -0.4826  0.6823  0.5491
              Bcc     0.0329    17.560     6.266     5.857  0.8204  0.5717  0.0105
 
              Baa    -0.0726    -9.739    -3.475    -3.249  0.6438  0.7500 -0.1520
     9 C(13)  Bbb    -0.0542    -7.270    -2.594    -2.425  0.7575 -0.6527 -0.0119
              Bcc     0.1268    17.009     6.069     5.674  0.1081  0.1075  0.9883
 
              Baa    -0.1927    13.945     4.976     4.652 -0.1467  0.9851 -0.0898
    10 O(17)  Bbb    -0.1777    12.861     4.589     4.290  0.9851  0.1373 -0.1033
              Bcc     0.3705   -26.806    -9.565    -8.942  0.0894  0.1036  0.9906
 
              Baa    -0.0587     4.245     1.515     1.416  0.7286  0.6814 -0.0699
    11 O(17)  Bbb    -0.0476     3.443     1.229     1.149 -0.6842  0.7287 -0.0284
              Bcc     0.1062    -7.688    -2.743    -2.564  0.0316  0.0685  0.9971
 
              Baa    -0.0033    -1.748    -0.624    -0.583 -0.3390  0.7941 -0.5045
    12 H(1)   Bbb    -0.0030    -1.624    -0.579    -0.542  0.7062 -0.1395 -0.6941
              Bcc     0.0063     3.372     1.203     1.125  0.6215  0.5916  0.5135
 
              Baa    -0.0160     1.157     0.413     0.386 -0.5804  0.7262 -0.3685
    13 O(17)  Bbb    -0.0138     0.999     0.357     0.333 -0.0752  0.4028  0.9122
              Bcc     0.0298    -2.157    -0.770    -0.719  0.8109  0.5571 -0.1792
 
              Baa    -0.0086    -4.592    -1.638    -1.532 -0.0764  0.0785  0.9940
    14 H(1)   Bbb     0.0015     0.806     0.288     0.269 -0.1061  0.9906 -0.0864
              Bcc     0.0071     3.786     1.351     1.263  0.9914  0.1121  0.0674
 

 ---------------------------------------------------------------------------------

 Calling FoFJK, ICntrl=      2127 FMM=F ISym2X=0 I1Cent= 0 IOpClX= 1 NMat=1 NMatS=1 NMatT=0.
 ***** Axes restored to original set *****
 -------------------------------------------------------------------
 Center     Atomic                   Forces (Hartrees/Bohr)
 Number     Number              X              Y              Z
 -------------------------------------------------------------------
      1        7          -0.000130371    0.001441699   -0.002717518
      2        7          -0.000821664    0.001406283   -0.004140969
      3        6           0.000545126    0.006413617    0.001807830
      4        6           0.002249790   -0.000985303    0.001630671
      5        7          -0.007326482    0.006019823   -0.003549245
      6        1           0.000604813    0.000176147    0.000291905
      7        1           0.000414939    0.000426994    0.000524544
      8        1           0.054318057   -0.006870053    0.005579488
      9        6           0.027822221    0.017731137    0.002052376
     10        8          -0.005307568    0.003526366    0.000710173
     11        8          -0.001638024    0.006467352   -0.005388874
     12        1           0.011656088    0.005920422   -0.003968438
     13        8          -0.054765312   -0.035133227    0.005216438
     14        1          -0.027621613   -0.006541257    0.001951619
 -------------------------------------------------------------------
 Cartesian Forces:  Max     0.054765312 RMS     0.015180992

 GradGradGradGradGradGradGradGradGradGradGradGradGradGradGradGradGradGrad
 Berny optimization.
 FormGI is forming the generalized inverse of G from B-inverse, IUseBI=4.
 Internal  Forces:  Max     0.044722381 RMS     0.008657739
 Search for a local minimum.
 Step number   1 out of a maximum of   81
 All quantities printed in internal units (Hartrees-Bohrs-Radians)
 Mixed Optimization -- RFO/linear search
 Second derivative matrix not updated -- first step.
 ITU=  0
     Eigenvalues ---    0.00686   0.00962   0.01261   0.01717   0.01807
     Eigenvalues ---    0.01918   0.02141   0.02198   0.02235   0.02402
     Eigenvalues ---    0.04619   0.05184   0.07220   0.10160   0.11736
     Eigenvalues ---    0.12281   0.14808   0.15991   0.16000   0.20494
     Eigenvalues ---    0.22710   0.23427   0.25000   0.35766   0.36548
     Eigenvalues ---    0.36782   0.43564   0.44386   0.46214   0.47439
     Eigenvalues ---    0.47831   0.52291   0.54165   0.55057   0.60070
     Eigenvalues ---    0.91398
 RFO step:  Lambda=-2.26718693D-02 EMin= 6.85550271D-03
 Linear search not attempted -- first point.
 Maximum step size (   0.300) exceeded in Quadratic search.
    -- Step size scaled by   0.766
 Iteration  1 RMS(Cart)=  0.04762795 RMS(Int)=  0.00618156
 Iteration  2 RMS(Cart)=  0.00169413 RMS(Int)=  0.00116879
 Iteration  3 RMS(Cart)=  0.00005357 RMS(Int)=  0.00116741
 Iteration  4 RMS(Cart)=  0.00000026 RMS(Int)=  0.00116741
 Variable       Old X    -DE/DX   Delta X   Delta X   Delta X     New X
                                 (Linear)    (Quad)   (Total)
    R1        2.65585   0.00762   0.00000   0.01252   0.01220   2.66805
    R2        2.56019  -0.00405   0.00000  -0.00566  -0.00551   2.55468
    R3        2.79019   0.01470   0.00000   0.07847   0.07890   2.86910
    R4        2.62916   0.00312   0.00000   0.00545   0.00539   2.63455
    R5        2.62744  -0.00751   0.00000  -0.01199  -0.01283   2.61460
    R6        2.60182  -0.00094   0.00000  -0.00161  -0.00180   2.60002
    R7        2.03234   0.00024   0.00000   0.00046   0.00046   2.03280
    R8        2.54171   0.00174   0.00000   0.00170   0.00163   2.54334
    R9        2.04449   0.00052   0.00000   0.00105   0.00105   2.04554
   R10        1.86132   0.04472   0.00000   0.06698   0.06722   1.92853
   R11        2.75336   0.01391   0.00000   0.14212   0.14381   2.89716
   R12        2.32295   0.00408   0.00000   0.00333   0.00333   2.32628
   R13        2.48769   0.02228   0.00000   0.02623   0.02575   2.51345
   R14        1.87994   0.01992   0.00000   0.03035   0.03086   1.91080
   R15        1.81782  -0.00612   0.00000  -0.00817  -0.00817   1.80964
   R16        2.79074   0.01334   0.00000   0.05703   0.05603   2.84677
    A1        1.89314  -0.00877   0.00000  -0.02356  -0.02419   1.86895
    A2        1.89109   0.01274   0.00000   0.05276   0.05202   1.94311
    A3        2.32563  -0.00280   0.00000  -0.01799  -0.01751   2.30812
    A4        1.87785   0.00536   0.00000   0.01785   0.01808   1.89593
    A5        2.19599  -0.00050   0.00000  -0.00169  -0.00203   2.19396
    A6        2.20445  -0.00482   0.00000  -0.01525  -0.01515   2.18931
    A7        1.82528  -0.00331   0.00000  -0.00851  -0.00875   1.81654
    A8        2.10913   0.00227   0.00000   0.00688   0.00701   2.11614
    A9        2.34848   0.00102   0.00000   0.00166   0.00177   2.35025
   A10        1.95997  -0.00112   0.00000  -0.00401  -0.00423   1.95573
   A11        2.22547   0.00009   0.00000   0.00007   0.00017   2.22564
   A12        2.09774   0.00103   0.00000   0.00398   0.00407   2.10181
   A13        1.86141   0.00806   0.00000   0.02229   0.02245   1.88386
   A14        1.76420  -0.00374   0.00000  -0.04242  -0.04195   1.72225
   A15        2.07746   0.00740   0.00000   0.02019   0.02063   2.09809
   A16        2.03552  -0.00342   0.00000  -0.00844  -0.00930   2.02622
   A17        2.17020  -0.00398   0.00000  -0.01176  -0.01135   2.15885
   A18        1.86525   0.01484   0.00000   0.07546   0.07629   1.94154
   A19        2.07881  -0.01383   0.00000  -0.09198  -0.09148   1.98732
   A20        2.02287  -0.00138   0.00000  -0.00470  -0.00344   2.01943
   A21        2.66893  -0.01899   0.00000  -0.07811  -0.07724   2.59169
   A22        3.01151  -0.01134   0.00000  -0.08690  -0.08561   2.92590
   A23        3.32378  -0.00369   0.00000  -0.05568  -0.05999   3.26379
   A24        3.30366  -0.00829   0.00000  -0.10815  -0.10595   3.19771
   A25        3.01887   0.00396   0.00000   0.06122   0.05592   3.07479
    D1        0.11560  -0.00179   0.00000  -0.03142  -0.03090   0.08470
    D2       -3.12698  -0.00156   0.00000  -0.02288  -0.02170   3.13450
    D3        2.74541  -0.00137   0.00000  -0.02398  -0.02430   2.72111
    D4       -0.49718  -0.00113   0.00000  -0.01545  -0.01510  -0.51228
    D5       -0.10190   0.00243   0.00000   0.03499   0.03434  -0.06756
    D6       -2.55138  -0.00389   0.00000  -0.00452  -0.00300  -2.55438
    D7        0.37939  -0.00090   0.00000   0.02042   0.02315   0.40254
    D8        2.82943  -0.00051   0.00000   0.03888   0.03966   2.86910
    D9       -1.41510  -0.00111   0.00000  -0.04394  -0.04443  -1.45953
   D10        0.94805   0.00073   0.00000   0.01609   0.01782   0.96588
   D11       -0.08040   0.00018   0.00000   0.01398   0.01407  -0.06633
   D12        3.08354   0.00061   0.00000   0.01281   0.01285   3.09640
   D13       -3.12037  -0.00038   0.00000   0.00437   0.00394  -3.11643
   D14        0.04357   0.00006   0.00000   0.00320   0.00273   0.04629
   D15       -2.97182  -0.00014   0.00000  -0.00816  -0.00940  -2.98122
   D16        0.16753   0.00047   0.00000  -0.01451  -0.01530   0.15223
   D17        0.05023   0.00076   0.00000   0.00398   0.00332   0.05355
   D18       -3.09360   0.00138   0.00000  -0.00237  -0.00258  -3.09618
   D19        0.01904   0.00113   0.00000   0.00686   0.00646   0.02550
   D20       -3.11736   0.00015   0.00000  -0.00314  -0.00320  -3.12056
   D21        3.13370   0.00061   0.00000   0.00833   0.00798  -3.14150
   D22       -0.00270  -0.00037   0.00000  -0.00166  -0.00167  -0.00437
   D23        0.05219  -0.00181   0.00000  -0.02540  -0.02517   0.02702
   D24       -3.09417  -0.00091   0.00000  -0.01624  -0.01630  -3.11047
   D25        0.08017  -0.00394   0.00000  -0.07029  -0.07069   0.00948
   D26        0.23742   0.00125   0.00000   0.02351   0.02110   0.25852
   D27       -2.90655   0.00191   0.00000   0.01684   0.01502  -2.89153
   D28        1.47160  -0.00748   0.00000   0.00149   0.00066   1.47226
   D29       -0.43383   0.00608   0.00000   0.05351   0.05414  -0.37968
   D30       -2.88310  -0.00248   0.00000  -0.02697  -0.02848  -2.91158
         Item               Value     Threshold  Converged?
 Maximum Force            0.044722     0.000450     NO 
 RMS     Force            0.008658     0.000300     NO 
 Maximum Displacement     0.169805     0.001800     NO 
 RMS     Displacement     0.047390     0.001200     NO 
 Predicted change in Energy=-1.191425D-02
 GradGradGradGradGradGradGradGradGradGradGradGradGradGradGradGradGradGrad

                          Input orientation:                          
 ---------------------------------------------------------------------
 Center     Atomic      Atomic             Coordinates (Angstroms)
 Number     Number       Type             X           Y           Z
 ---------------------------------------------------------------------
      1          7           0        0.562504   -0.919864   -0.335865
      2          7           0        0.260978    0.423944   -0.024998
      3          6           0        1.454784    1.107025    0.202741
      4          6           0        2.421442    0.132621    0.107188
      5          7           0        1.898054   -1.070980   -0.190809
      6          1           0        1.462411    2.161267    0.416444
      7          1           0        3.489617    0.248546    0.238613
      8          1           0       -0.608135   -1.834971   -0.023939
      9          6           0       -0.997830    0.997264   -0.056984
     10          8           0       -1.127223    2.215040    0.068248
     11          8           0       -2.016856    0.161624   -0.236843
     12          1           0       -1.579785   -2.503332    1.141617
     13          8           0       -1.505764   -2.254944    0.219736
     14          1           0       -1.735302   -0.797555   -0.084746
 ---------------------------------------------------------------------
                    Distance matrix (angstroms):
                    1          2          3          4          5
     1  N    0.000000
     2  N    1.411870   0.000000
     3  C    2.279153   1.394144   0.000000
     4  C    2.181667   2.184021   1.375871   0.000000
     5  N    1.351877   2.223131   2.257227   1.345880   0.000000
     6  H    3.296843   2.157916   1.075711   2.265123   3.317524
     7  H    3.203623   3.244128   2.208805   1.082456   2.111546
     8  H    1.518260   2.420342   3.600327   3.614823   2.625359
     9  C    2.487529   1.383588   2.468769   3.530719   3.561136
    10  O    3.584146   2.267998   2.812924   4.114730   4.474074
    11  O    2.798664   2.302654   3.624817   4.451705   4.104625
    12  H    3.046264   3.649431   4.808822   4.901847   3.990282
    13  O    2.523661   3.218341   4.479729   4.597399   3.627161
    14  H    2.314721   2.341104   3.726490   4.263870   3.645173
                    6          7          8          9         10
     6  H    0.000000
     7  H    2.792793   0.000000
     8  H    4.522280   4.604514   0.000000
     9  C    2.762575   4.559072   2.859110   0.000000
    10  O    2.613491   5.021089   4.084181   1.231016   0.000000
    11  O    4.065791   5.527645   2.452797   1.330059   2.258549
    12  H    5.615988   5.838415   1.658110   3.745596   4.860037
    13  O    5.324630   5.587634   1.020536   3.303245   4.488540
    14  H    4.385338   5.338415   1.533113   1.940622   3.077157
                   11         12         13         14
    11  O    0.000000
    12  H    3.032024   0.000000
    13  O    2.511868   0.957622   0.000000
    14  H    1.011153   2.106614   1.506446   0.000000
 Stoichiometry    C3H5N3O3(1-,2)
 Framework group  C1[X(C3H5N3O3)]
 Deg. of freedom    36
 Full point group                 C1      NOp   1
 Largest Abelian subgroup         C1      NOp   1
 Largest concise Abelian subgroup C1      NOp   1
                         Standard orientation:                         
 ---------------------------------------------------------------------
 Center     Atomic      Atomic             Coordinates (Angstroms)
 Number     Number       Type             X           Y           Z
 ---------------------------------------------------------------------
      1          7           0       -0.472922    0.976697   -0.334543
      2          7           0       -0.295378   -0.388365   -0.020759
      3          6           0       -1.546639   -0.959284    0.207350
      4          6           0       -2.420364    0.099000    0.109063
      5          7           0       -1.789223    1.249252   -0.190891
      6          1           0       -1.650495   -2.007999    0.423140
      7          1           0       -3.494744    0.081221    0.239836
      8          1           0        0.776078    1.781896   -0.023469
      9          6           0        0.905933   -1.074136   -0.050566
     10          8           0        0.923671   -2.298376    0.077191
     11          8           0        1.997021   -0.335258   -0.231243
     12          1           0        1.803873    2.361273    1.141559
     13          8           0        1.708105    2.118776    0.220112
     14          1           0        1.803999    0.645907   -0.081284
 ---------------------------------------------------------------------
 Rotational constants (GHZ):           2.1199908           1.6213843           0.9392935
 Standard basis: 6-31+G(d,p) (6D, 7F)
 There are   196 symmetry adapted cartesian basis functions of A   symmetry.
 There are   196 symmetry adapted basis functions of A   symmetry.
   196 basis functions,   323 primitive gaussians,   196 cartesian basis functions
    35 alpha electrons       34 beta electrons
       nuclear repulsion energy       459.2486579749 Hartrees.
 NAtoms=   14 NActive=   14 NUniq=   14 SFac= 1.00D+00 NAtFMM=   60 NAOKFM=F Big=F
 Integral buffers will be    131072 words long.
 Raffenetti 2 integral format.
 Two-electron integral symmetry is turned on.
 One-electron integrals computed using PRISM.
 NBasis=   196 RedAO= T EigKep=  2.50D-05  NBF=   196
 NBsUse=   196 1.00D-06 EigRej= -1.00D+00 NBFU=   196
 Initial guess from the checkpoint file:  "/scratch/gongke2021/PC/Gau-25934.chk"
 B after Tr=     0.000000   -0.000000   -0.000000
         Rot=    0.999021    0.001757   -0.001191    0.044199 Ang=   5.07 deg.
 Initial guess <Sx>= 0.0000 <Sy>= 0.0000 <Sz>= 0.5000 <S**2>= 0.7647 S= 0.5073
 ExpMin= 4.38D-02 ExpMax= 5.48D+03 ExpMxC= 8.25D+02 IAcc=2 IRadAn=         4 AccDes= 0.00D+00
 Harris functional with IExCor= 1009 and IRadAn=       4 diagonalized for initial guess.
 HarFok:  IExCor= 1009 AccDes= 0.00D+00 IRadAn=         4 IDoV= 1 UseB2=F ITyADJ=14
 ICtDFT=  3500011 ScaDFX=  1.000000  1.000000  1.000000  1.000000
 FoFCou: FMM=F IPFlag=           0 FMFlag=      100000 FMFlg1=           0
         NFxFlg=           0 DoJE=T BraDBF=F KetDBF=T FulRan=T
         wScrn=  0.000000 ICntrl=       500 IOpCl=  0 I1Cent=   200000004 NGrid=           0
         NMat0=    1 NMatS0=      1 NMatT0=    0 NMatD0=    1 NMtDS0=    0 NMtDT0=    0
 Petite list used in FoFCou.
 Requested convergence on RMS density matrix=1.00D-08 within 128 cycles.
 Requested convergence on MAX density matrix=1.00D-06.
 Requested convergence on             energy=1.00D-06.
 No special actions if energy rises.
 SCF Done:  E(UM062X) =  -507.073134918     A.U. after   16 cycles
            NFock= 16  Conv=0.92D-08     -V/T= 2.0080
 <Sx>= 0.0000 <Sy>= 0.0000 <Sz>= 0.5000 <S**2>= 0.7649 S= 0.5074
 <L.S>=  0.00000000000    
 Annihilation of the first spin contaminant:
 S**2 before annihilation     0.7649,   after     0.7501
 Calling FoFJK, ICntrl=      2127 FMM=F ISym2X=0 I1Cent= 0 IOpClX= 1 NMat=1 NMatS=1 NMatT=0.
 ***** Axes restored to original set *****
 -------------------------------------------------------------------
 Center     Atomic                   Forces (Hartrees/Bohr)
 Number     Number              X              Y              Z
 -------------------------------------------------------------------
      1        7          -0.000257370    0.006389989    0.002720943
      2        7          -0.004485729    0.004005396   -0.002920016
      3        6          -0.001135519    0.001701241    0.001136646
      4        6           0.000593435   -0.002852207   -0.000944356
      5        7          -0.001638935   -0.000166241   -0.000899971
      6        1          -0.000224200   -0.000237962    0.000089578
      7        1          -0.000050509   -0.000308524   -0.000042969
      8        1           0.024384515   -0.010297981    0.006270666
      9        6           0.015047822    0.005475536   -0.000151909
     10        8          -0.003290595   -0.001162375    0.000429764
     11        8           0.002808013   -0.000147117   -0.000706147
     12        1           0.006666787    0.002581660    0.002495566
     13        8          -0.018446198   -0.012083619   -0.006728709
     14        1          -0.019971518    0.007102205   -0.000749087
 -------------------------------------------------------------------
 Cartesian Forces:  Max     0.024384515 RMS     0.007183853

 GradGradGradGradGradGradGradGradGradGradGradGradGradGradGradGradGradGrad
 Berny optimization.
 Using GEDIIS/GDIIS optimizer.
 FormGI is forming the generalized inverse of G from B-inverse, IUseBI=4.
 Internal  Forces:  Max     0.012390962 RMS     0.003389150
 Search for a local minimum.
 Step number   2 out of a maximum of   81
 All quantities printed in internal units (Hartrees-Bohrs-Radians)
 Mixed Optimization -- RFO/linear search
 Update second derivatives using D2CorX and points    1    2
 DE= -1.23D-02 DEPred=-1.19D-02 R= 1.03D+00
 TightC=F SS=  1.41D+00  RLast= 3.29D-01 DXNew= 5.0454D-01 9.8728D-01
 Trust test= 1.03D+00 RLast= 3.29D-01 DXMaxT set to 5.05D-01
 ITU=  1  0
 Use linear search instead of GDIIS.
     Eigenvalues ---    0.00734   0.01030   0.01261   0.01714   0.01743
     Eigenvalues ---    0.01901   0.02139   0.02194   0.02233   0.02403
     Eigenvalues ---    0.04337   0.04952   0.07260   0.08693   0.11947
     Eigenvalues ---    0.12543   0.14785   0.15996   0.16013   0.21974
     Eigenvalues ---    0.22869   0.23442   0.24779   0.35768   0.36549
     Eigenvalues ---    0.36972   0.43737   0.44314   0.45499   0.47669
     Eigenvalues ---    0.50154   0.52278   0.54424   0.55934   0.59929
     Eigenvalues ---    0.91581
 RFO step:  Lambda=-4.89125005D-03 EMin= 7.33737171D-03
 Quartic linear search produced a step of  0.87435.
 Iteration  1 RMS(Cart)=  0.03486346 RMS(Int)=  0.01958736
 Iteration  2 RMS(Cart)=  0.00031660 RMS(Int)=  0.01909632
 Iteration  3 RMS(Cart)=  0.00029775 RMS(Int)=  0.01863503
 Iteration  4 RMS(Cart)=  0.00028074 RMS(Int)=  0.01820053
 Iteration  5 RMS(Cart)=  0.00026533 RMS(Int)=  0.01779030
 Iteration  6 RMS(Cart)=  0.00025130 RMS(Int)=  0.01740212
 Iteration  7 RMS(Cart)=  0.00023849 RMS(Int)=  0.01703407
 Iteration  8 RMS(Cart)=  0.00022676 RMS(Int)=  0.01668447
 Iteration  9 RMS(Cart)=  0.00021596 RMS(Int)=  0.01635180
 Iteration 10 RMS(Cart)=  0.00020601 RMS(Int)=  0.01603475
 Iteration 11 RMS(Cart)=  0.00019680 RMS(Int)=  0.01573212
 Iteration 12 RMS(Cart)=  0.00018826 RMS(Int)=  0.01544287
 Iteration 13 RMS(Cart)=  0.00018033 RMS(Int)=  0.01516604
 Iteration 14 RMS(Cart)=  0.00017294 RMS(Int)=  0.01490078
 Iteration 15 RMS(Cart)=  0.00016604 RMS(Int)=  0.01464630
 Iteration 16 RMS(Cart)=  0.00015958 RMS(Int)=  0.01440191
 Iteration 17 RMS(Cart)=  0.00015353 RMS(Int)=  0.01416698
 Iteration 18 RMS(Cart)=  0.00014786 RMS(Int)=  0.01394090
 Iteration 19 RMS(Cart)=  0.00014252 RMS(Int)=  0.01372316
 Iteration 20 RMS(Cart)=  0.00013749 RMS(Int)=  0.01351327
 Iteration 21 RMS(Cart)=  0.00013274 RMS(Int)=  0.01331077
 Iteration 22 RMS(Cart)=  0.00012826 RMS(Int)=  0.01311526
 Iteration 23 RMS(Cart)=  0.00012402 RMS(Int)=  0.01292635
 Iteration 24 RMS(Cart)=  0.00012001 RMS(Int)=  0.01274369
 Iteration 25 RMS(Cart)=  0.00011620 RMS(Int)=  0.01256695
 Iteration 26 RMS(Cart)=  0.00011259 RMS(Int)=  0.01239584
 Iteration 27 RMS(Cart)=  0.00010916 RMS(Int)=  0.01223006
 Iteration 28 RMS(Cart)=  0.00010589 RMS(Int)=  0.01206937
 Iteration 29 RMS(Cart)=  0.00010278 RMS(Int)=  0.01191351
 Iteration 30 RMS(Cart)=  0.00009981 RMS(Int)=  0.01176226
 Iteration 31 RMS(Cart)=  0.00009698 RMS(Int)=  0.01161541
 Iteration 32 RMS(Cart)=  0.00009428 RMS(Int)=  0.01147275
 Iteration 33 RMS(Cart)=  0.00009170 RMS(Int)=  0.01133410
 Iteration 34 RMS(Cart)=  0.00008922 RMS(Int)=  0.01119929
 Iteration 35 RMS(Cart)=  0.00008686 RMS(Int)=  0.01106814
 Iteration 36 RMS(Cart)=  0.00008459 RMS(Int)=  0.01094051
 Iteration 37 RMS(Cart)=  0.00008242 RMS(Int)=  0.01081624
 Iteration 38 RMS(Cart)=  0.00008033 RMS(Int)=  0.01069521
 Iteration 39 RMS(Cart)=  0.00007833 RMS(Int)=  0.01057728
 Iteration 40 RMS(Cart)=  0.00007641 RMS(Int)=  0.01046233
 Iteration 41 RMS(Cart)=  0.00007456 RMS(Int)=  0.01035024
 Iteration 42 RMS(Cart)=  0.00007278 RMS(Int)=  0.01024090
 Iteration 43 RMS(Cart)=  0.00007107 RMS(Int)=  0.01013421
 Iteration 44 RMS(Cart)=  0.00006942 RMS(Int)=  0.01003007
 Iteration 45 RMS(Cart)=  0.00006783 RMS(Int)=  0.00992839
 Iteration 46 RMS(Cart)=  0.00006630 RMS(Int)=  0.00982908
 Iteration 47 RMS(Cart)=  0.00006482 RMS(Int)=  0.00973205
 Iteration 48 RMS(Cart)=  0.00006340 RMS(Int)=  0.00963723
 Iteration 49 RMS(Cart)=  0.00006202 RMS(Int)=  0.00954453
 Iteration 50 RMS(Cart)=  0.00006069 RMS(Int)=  0.00945388
 Iteration 51 RMS(Cart)=  0.00005940 RMS(Int)=  0.00936522
 Iteration 52 RMS(Cart)=  0.00005816 RMS(Int)=  0.00927848
 Iteration 53 RMS(Cart)=  0.00005696 RMS(Int)=  0.00919360
 Iteration 54 RMS(Cart)=  0.00005579 RMS(Int)=  0.00911050
 Iteration 55 RMS(Cart)=  0.00005467 RMS(Int)=  0.00902915
 Iteration 56 RMS(Cart)=  0.00005358 RMS(Int)=  0.00894948
 Iteration 57 RMS(Cart)=  0.00005252 RMS(Int)=  0.00887144
 Iteration 58 RMS(Cart)=  0.00005149 RMS(Int)=  0.00879498
 Iteration 59 RMS(Cart)=  0.00005050 RMS(Int)=  0.00872005
 Iteration 60 RMS(Cart)=  0.00004954 RMS(Int)=  0.00864661
 Iteration 61 RMS(Cart)=  0.00004860 RMS(Int)=  0.00857461
 Iteration 62 RMS(Cart)=  0.00004769 RMS(Int)=  0.00850400
 Iteration 63 RMS(Cart)=  0.00004681 RMS(Int)=  0.00843475
 Iteration 64 RMS(Cart)=  0.00004596 RMS(Int)=  0.00836682
 Iteration 65 RMS(Cart)=  0.00004512 RMS(Int)=  0.00830017
 Iteration 66 RMS(Cart)=  0.00004432 RMS(Int)=  0.00823477
 Iteration 67 RMS(Cart)=  0.00004353 RMS(Int)=  0.00817057
 Iteration 68 RMS(Cart)=  0.00004276 RMS(Int)=  0.00810755
 Iteration 69 RMS(Cart)=  0.00004202 RMS(Int)=  0.00804567
 Iteration 70 RMS(Cart)=  0.00004130 RMS(Int)=  0.00798491
 Iteration 71 RMS(Cart)=  0.00004059 RMS(Int)=  0.00792523
 Iteration 72 RMS(Cart)=  0.00003991 RMS(Int)=  0.00786660
 Iteration 73 RMS(Cart)=  0.00003924 RMS(Int)=  0.00780900
 Iteration 74 RMS(Cart)=  0.00003859 RMS(Int)=  0.00775239
 Iteration 75 RMS(Cart)=  0.00003795 RMS(Int)=  0.00769676
 Iteration 76 RMS(Cart)=  0.00003734 RMS(Int)=  0.00764208
 Iteration 77 RMS(Cart)=  0.00003673 RMS(Int)=  0.00758833
 Iteration 78 RMS(Cart)=  0.00003615 RMS(Int)=  0.00753547
 Iteration 79 RMS(Cart)=  0.00003557 RMS(Int)=  0.00748350
 Iteration 80 RMS(Cart)=  0.00003501 RMS(Int)=  0.00743238
 Iteration 81 RMS(Cart)=  0.00003447 RMS(Int)=  0.00738210
 Iteration 82 RMS(Cart)=  0.00003394 RMS(Int)=  0.00733263
 Iteration 83 RMS(Cart)=  0.00003342 RMS(Int)=  0.00728396
 Iteration 84 RMS(Cart)=  0.00003291 RMS(Int)=  0.00723607
 Iteration 85 RMS(Cart)=  0.00003241 RMS(Int)=  0.00718894
 Iteration 86 RMS(Cart)=  0.00003193 RMS(Int)=  0.00714254
 Iteration 87 RMS(Cart)=  0.00003146 RMS(Int)=  0.00709688
 Iteration 88 RMS(Cart)=  0.00003099 RMS(Int)=  0.00705192
 Iteration 89 RMS(Cart)=  0.00003054 RMS(Int)=  0.00700765
 Iteration 90 RMS(Cart)=  0.00003010 RMS(Int)=  0.00696406
 Iteration 91 RMS(Cart)=  0.00002967 RMS(Int)=  0.00692113
 Iteration 92 RMS(Cart)=  0.00002925 RMS(Int)=  0.00687884
 Iteration 93 RMS(Cart)=  0.00002883 RMS(Int)=  0.00683719
 Iteration 94 RMS(Cart)=  0.00002843 RMS(Int)=  0.00679615
 Iteration 95 RMS(Cart)=  0.00002804 RMS(Int)=  0.00675572
 Iteration 96 RMS(Cart)=  0.00002765 RMS(Int)=  0.00671588
 Iteration 97 RMS(Cart)=  0.00002727 RMS(Int)=  0.00667662
 Iteration 98 RMS(Cart)=  0.00002690 RMS(Int)=  0.00663792
 Iteration 99 RMS(Cart)=  0.00002654 RMS(Int)=  0.00659978
 Iteration100 RMS(Cart)=  0.00002618 RMS(Int)=  0.00656219
 New curvilinear step not converged.
 ITry= 1 IFail=1 DXMaxC= 1.53D-01 DCOld= 1.00D+10 DXMaxT= 5.05D-01 DXLimC= 3.00D+00 Rises=F
 Iteration  1 RMS(Cart)=  0.03603948 RMS(Int)=  0.01708814
 Iteration  2 RMS(Cart)=  0.00148498 RMS(Int)=  0.01449838
 Iteration  3 RMS(Cart)=  0.00140876 RMS(Int)=  0.01206988
 Iteration  4 RMS(Cart)=  0.00137472 RMS(Int)=  0.00973323
 Iteration  5 RMS(Cart)=  0.00137324 RMS(Int)=  0.00744824
 Iteration  6 RMS(Cart)=  0.00140039 RMS(Int)=  0.00521724
 Iteration  7 RMS(Cart)=  0.00145174 RMS(Int)=  0.00320629
 Iteration  8 RMS(Cart)=  0.00138154 RMS(Int)=  0.00226124
 Iteration  9 RMS(Cart)=  0.00018987 RMS(Int)=  0.00221385
 Iteration 10 RMS(Cart)=  0.00002598 RMS(Int)=  0.00221348
 Iteration 11 RMS(Cart)=  0.00000013 RMS(Int)=  0.00221348
 ITry= 2 IFail=0 DXMaxC= 1.63D-01 DCOld= 1.00D+10 DXMaxT= 5.05D-01 DXLimC= 3.00D+00 Rises=F
 Variable       Old X    -DE/DX   Delta X   Delta X   Delta X     New X
                                 (Linear)    (Quad)   (Total)
    R1        2.66805   0.00184   0.01066  -0.00573   0.00480   2.67285
    R2        2.55468  -0.00197  -0.00482  -0.00314  -0.00737   2.54731
    R3        2.86910   0.00381   0.06899  -0.02738   0.04504   2.91413
    R4        2.63455  -0.00028   0.00472  -0.00472   0.00029   2.63484
    R5        2.61460  -0.00631  -0.01122  -0.01189  -0.02328   2.59132
    R6        2.60002   0.00175  -0.00158   0.00989   0.00708   2.60710
    R7        2.03280  -0.00022   0.00041  -0.00153  -0.00097   2.03183
    R8        2.54334  -0.00175   0.00143  -0.00749  -0.00529   2.53805
    R9        2.04554  -0.00009   0.00092  -0.00146  -0.00039   2.04516
   R10        1.92853   0.01239   0.05877  -0.02023   0.04160   1.97014
   R11        2.89716   0.01120   0.12574   0.16825   0.27913   3.17629
   R12        2.32628  -0.00076   0.00291  -0.00465  -0.00127   2.32501
   R13        2.51345   0.00771   0.02252  -0.00113   0.02087   2.53432
   R14        1.91080   0.00304   0.02698  -0.01768   0.01171   1.92251
   R15        1.80964   0.00122  -0.00715   0.01178   0.00346   1.81310
   R16        2.84677   0.00665   0.04899   0.03171   0.07610   2.92287
    A1        1.86895  -0.00040  -0.02115   0.03010   0.00444   1.87339
    A2        1.94311   0.00513   0.04548   0.03419   0.07485   2.01796
    A3        2.30812  -0.00406  -0.01531  -0.02868  -0.04238   2.26574
    A4        1.89593  -0.00001   0.01581  -0.02016  -0.00211   1.89382
    A5        2.19396  -0.00012  -0.00177   0.00778   0.00421   2.19817
    A6        2.18931   0.00018  -0.01324   0.01377  -0.00030   2.18901
    A7        1.81654  -0.00078  -0.00765   0.00764  -0.00151   1.81503
    A8        2.11614   0.00018   0.00613  -0.00861  -0.00138   2.11476
    A9        2.35025   0.00060   0.00155   0.00151   0.00315   2.35340
   A10        1.95573   0.00008  -0.00370   0.00638   0.00158   1.95732
   A11        2.22564   0.00027   0.00014   0.00223   0.00236   2.22800
   A12        2.10181  -0.00035   0.00356  -0.00857  -0.00394   2.09787
   A13        1.88386   0.00115   0.01963  -0.02083   0.00098   1.88484
   A14        1.72225  -0.00197  -0.03668  -0.01472  -0.04967   1.67258
   A15        2.09809   0.00393   0.01803   0.00462   0.02283   2.12091
   A16        2.02622  -0.00009  -0.00813   0.01659   0.00507   2.03129
   A17        2.15885  -0.00383  -0.00993  -0.02094  -0.02803   2.13082
   A18        1.94154   0.00529   0.06670   0.01159   0.07807   2.01961
   A19        1.98732  -0.00837  -0.07999  -0.05720  -0.13339   1.85393
   A20        2.01943  -0.00183  -0.00301  -0.00904  -0.00791   2.01152
   A21        2.59169  -0.00755  -0.06754  -0.03914  -0.09981   2.49188
   A22        2.92590  -0.00517  -0.07486  -0.06496  -0.13093   2.79497
   A23        3.26379  -0.00456  -0.05246  -0.06759  -0.11936   3.14443
   A24        3.19771  -0.00305  -0.09264   0.00920  -0.08489   3.11282
   A25        3.07479   0.00282   0.04889   0.02872   0.06536   3.14015
    D1        0.08470  -0.00045  -0.02702  -0.03504  -0.05802   0.02669
    D2        3.13450   0.00016  -0.01898  -0.01848  -0.03433   3.10017
    D3        2.72111  -0.00109  -0.02124   0.00256  -0.01814   2.70297
    D4       -0.51228  -0.00048  -0.01320   0.01912   0.00554  -0.50673
    D5       -0.06756   0.00053   0.03002   0.01638   0.04366  -0.02390
    D6       -2.55438  -0.00295  -0.00262  -0.06606  -0.05635  -2.61073
    D7        0.40254  -0.00046   0.02024  -0.03054  -0.00345   0.39909
    D8        2.86910   0.00147   0.03468   0.05214   0.08006   2.94915
    D9       -1.45953  -0.00193  -0.03885  -0.04964  -0.08574  -1.54527
   D10        0.96588   0.00150   0.01558   0.02956   0.04739   1.01326
   D11       -0.06633   0.00021   0.01230   0.03935   0.04800  -0.01833
   D12        3.09640   0.00034   0.01124   0.01736   0.02685   3.12324
   D13       -3.11643  -0.00038   0.00344   0.02323   0.02417  -3.09226
   D14        0.04629  -0.00026   0.00238   0.00125   0.00302   0.04931
   D15       -2.98122  -0.00063  -0.00822  -0.03729  -0.04420  -3.02542
   D16        0.15223   0.00071  -0.01338  -0.00231  -0.01682   0.13541
   D17        0.05355   0.00007   0.00291  -0.01978  -0.01666   0.03689
   D18       -3.09618   0.00141  -0.00226   0.01520   0.01072  -3.08546
   D19        0.02550   0.00017   0.00564  -0.02906  -0.02169   0.00380
   D20       -3.12056  -0.00002  -0.00280  -0.01929  -0.02031  -3.14087
   D21       -3.14150   0.00001   0.00698  -0.00280   0.00373  -3.13777
   D22       -0.00437  -0.00018  -0.00146   0.00696   0.00511   0.00075
   D23        0.02702  -0.00042  -0.02201   0.00757  -0.01410   0.01291
   D24       -3.11047  -0.00025  -0.01426  -0.00144  -0.01539  -3.12586
   D25        0.00948  -0.00100  -0.06181   0.02055  -0.03933  -0.02985
   D26        0.25852  -0.00040   0.01845  -0.01053   0.00450   0.26302
   D27       -2.89153   0.00104   0.01313   0.02594   0.03232  -2.85922
   D28        1.47226  -0.00437   0.00057  -0.01299  -0.01022   1.46204
   D29       -0.37968   0.00264   0.04734   0.00978   0.05245  -0.32723
   D30       -2.91158  -0.00044  -0.02490   0.05953   0.02865  -2.88293
         Item               Value     Threshold  Converged?
 Maximum Force            0.012391     0.000450     NO 
 RMS     Force            0.003389     0.000300     NO 
 Maximum Displacement     0.162906     0.001800     NO 
 RMS     Displacement     0.043367     0.001200     NO 
 Predicted change in Energy=-5.041756D-03
 GradGradGradGradGradGradGradGradGradGradGradGradGradGradGradGradGradGrad

                          Input orientation:                          
 ---------------------------------------------------------------------
 Center     Atomic      Atomic             Coordinates (Angstroms)
 Number     Number       Type             X           Y           Z
 ---------------------------------------------------------------------
      1          7           0        0.559939   -0.912812   -0.278890
      2          7           0        0.267092    0.446709   -0.021026
      3          6           0        1.465510    1.122313    0.205727
      4          6           0        2.427821    0.139455    0.099498
      5          7           0        1.895668   -1.062422   -0.176484
      6          1           0        1.479493    2.178507    0.406497
      7          1           0        3.498975    0.248311    0.209245
      8          1           0       -0.572585   -1.910502    0.037426
      9          6           0       -0.974810    1.026035   -0.070442
     10          8           0       -1.122881    2.241421    0.050614
     11          8           0       -2.014217    0.194552   -0.234226
     12          1           0       -1.576565   -2.565858    1.099916
     13          8           0       -1.533037   -2.289289    0.182223
     14          1           0       -1.821508   -0.790734   -0.069675
 ---------------------------------------------------------------------
                    Distance matrix (angstroms):
                    1          2          3          4          5
     1  N    0.000000
     2  N    1.414409   0.000000
     3  C    2.279616   1.394296   0.000000
     4  C    2.177023   2.185791   1.379616   0.000000
     5  N    1.347977   2.225737   2.259245   1.343079   0.000000
     6  H    3.297209   2.156807   1.075197   2.269649   3.319139
     7  H    3.197564   3.246144   2.213340   1.082249   2.106514
     8  H    1.542093   2.502983   3.657885   3.634366   2.618639
     9  C    2.481538   1.371269   2.457783   3.520341   3.551414
    10  O    3.590215   2.271155   2.824222   4.126517   4.480914
    11  O    2.802593   2.305083   3.628057   4.454897   4.107373
    12  H    3.032873   3.705557   4.863785   4.935045   3.993235
    13  O    2.547128   3.281381   4.542121   4.646939   3.659220
    14  H    2.393734   2.428144   3.813146   4.353237   3.728622
                    6          7          8          9         10
     6  H    0.000000
     7  H    2.800512   0.000000
     8  H    4.589906   4.611681   0.000000
     9  C    2.753046   4.549486   2.965918   0.000000
    10  O    2.627349   5.035792   4.188253   1.230342   0.000000
    11  O    4.068490   5.531260   2.565804   1.341103   2.250619
    12  H    5.685888   5.871453   1.601984   3.825382   4.941336
    13  O    5.393221   5.635716   1.042552   3.371473   4.551141
    14  H    4.465394   5.428163   1.680821   2.004383   3.113923
                   11         12         13         14
    11  O    0.000000
    12  H    3.096989   0.000000
    13  O    2.564065   0.959451   0.000000
    14  H    1.017351   2.139861   1.546717   0.000000
 Stoichiometry    C3H5N3O3(1-,2)
 Framework group  C1[X(C3H5N3O3)]
 Deg. of freedom    36
 Full point group                 C1      NOp   1
 Largest Abelian subgroup         C1      NOp   1
 Largest concise Abelian subgroup C1      NOp   1
                         Standard orientation:                         
 ---------------------------------------------------------------------
 Center     Atomic      Atomic             Coordinates (Angstroms)
 Number     Number       Type             X           Y           Z
 ---------------------------------------------------------------------
      1          7           0       -0.438035    0.991734   -0.283585
      2          7           0       -0.313575   -0.391680   -0.016700
      3          6           0       -1.586296   -0.915719    0.206071
      4          6           0       -2.421777    0.175843    0.088590
      5          7           0       -1.746337    1.302703   -0.190384
      6          1           0       -1.729316   -1.961211    0.412329
      7          1           0       -3.498826    0.198240    0.192164
      8          1           0        0.805270    1.846730    0.034578
      9          6           0        0.849213   -1.117503   -0.055230
     10          8           0        0.848203   -2.341126    0.073178
     11          8           0        1.982637   -0.419090   -0.216859
     12          1           0        1.875303    2.381980    1.099890
     13          8           0        1.803724    2.107212    0.183416
     14          1           0        1.909849    0.583259   -0.058736
 ---------------------------------------------------------------------
 Rotational constants (GHZ):           2.0745194           1.6193457           0.9262735
 Standard basis: 6-31+G(d,p) (6D, 7F)
 There are   196 symmetry adapted cartesian basis functions of A   symmetry.
 There are   196 symmetry adapted basis functions of A   symmetry.
   196 basis functions,   323 primitive gaussians,   196 cartesian basis functions
    35 alpha electrons       34 beta electrons
       nuclear repulsion energy       457.4178168511 Hartrees.
 NAtoms=   14 NActive=   14 NUniq=   14 SFac= 1.00D+00 NAtFMM=   60 NAOKFM=F Big=F
 Integral buffers will be    131072 words long.
 Raffenetti 2 integral format.
 Two-electron integral symmetry is turned on.
 One-electron integrals computed using PRISM.
 NBasis=   196 RedAO= T EigKep=  2.52D-05  NBF=   196
 NBsUse=   196 1.00D-06 EigRej= -1.00D+00 NBFU=   196
 Initial guess from the checkpoint file:  "/scratch/gongke2021/PC/Gau-25934.chk"
 B after Tr=    -0.000000    0.000000    0.000000
         Rot=    0.999862    0.001468   -0.000068    0.016529 Ang=   1.90 deg.
 Initial guess <Sx>= 0.0000 <Sy>= 0.0000 <Sz>= 0.5000 <S**2>= 0.7650 S= 0.5075
 ExpMin= 4.38D-02 ExpMax= 5.48D+03 ExpMxC= 8.25D+02 IAcc=2 IRadAn=         4 AccDes= 0.00D+00
 Harris functional with IExCor= 1009 and IRadAn=       4 diagonalized for initial guess.
[...]
 ! D3    D(8,1,2,3)            177.4384         -DE/DX =    0.0                 !
 ! D4    D(8,1,2,9)             -2.5957         -DE/DX =    0.0                 !
 ! D5    D(2,1,5,4)              0.0136         -DE/DX =    0.0                 !
 ! D6    D(8,1,5,4)           -177.5889         -DE/DX =    0.0                 !
 ! D7    D(2,1,8,14)             3.4987         -DE/DX =    0.0                 !
 ! D8    D(5,1,8,14)          -179.4168         -DE/DX =    0.0                 !
 ! D9    D(2,1,13,12)          -97.6027         -DE/DX =    0.0                 !
 ! D10   D(5,1,13,12)           77.3161         -DE/DX =    0.0                 !
 ! D11   D(1,2,3,4)              0.0632         -DE/DX =    0.0                 !
 ! D12   D(1,2,3,6)            179.7649         -DE/DX =    0.0                 !
 ! D13   D(9,2,3,4)           -179.9023         -DE/DX =    0.0                 !
 ! D14   D(9,2,3,6)             -0.2006         -DE/DX =    0.0                 !
 ! D15   D(1,2,9,10)           179.7466         -DE/DX =    0.0                 !
 ! D16   D(1,2,9,11)            -0.0042         -DE/DX =    0.0                 !
 ! D17   D(3,2,9,10)            -0.2932         -DE/DX =    0.0                 !
 ! D18   D(3,2,9,11)           179.956          -DE/DX =    0.0                 !
 ! D19   D(2,3,4,5)             -0.0566         -DE/DX =    0.0                 !
 ! D20   D(2,3,4,7)            179.9249         -DE/DX =    0.0                 !
 ! D21   D(6,3,4,5)           -179.695          -DE/DX =    0.0                 !
 ! D22   D(6,3,4,7)              0.2864         -DE/DX =    0.0                 !
 ! D23   D(3,4,5,1)              0.028          -DE/DX =    0.0                 !
 ! D24   D(7,4,5,1)           -179.955          -DE/DX =    0.0                 !
 ! D25   D(1,8,14,11)           -8.0377         -DE/DX =    0.0                 !
 ! D26   D(2,9,11,14)           -0.6532         -DE/DX =    0.0                 !
 ! D27   D(10,9,11,14)         179.5919         -DE/DX =    0.0                 !
 ! D28   D(9,11,13,12)          93.3783         -DE/DX =    0.0                 !
 ! D29   D(9,11,14,8)            6.9411         -DE/DX =    0.0                 !
 ! D30   D(13,11,14,8)        -130.4033         -DE/DX =    0.0                 !
 --------------------------------------------------------------------------------
 GradGradGradGradGradGradGradGradGradGradGradGradGradGradGradGradGradGrad


 ----------------------------------------------------------------------

 Electric dipole moment (input orientation):
 (Debye = 10**-18 statcoulomb cm , SI units = C m)
                  (au)            (Debye)         (10**-30 SI)
   Tot        0.857948D+00      0.218069D+01      0.727399D+01
   x          0.571954D+00      0.145376D+01      0.484923D+01
   y         -0.213541D+00     -0.542766D+00     -0.181047D+01
   z          0.602780D+00      0.153211D+01      0.511058D+01

 Dipole polarizability, Alpha (input orientation).
 (esu units = cm**3 , SI units = C**2 m**2 J**-1)
 Alpha(0;0):
               (au)            (10**-24 esu)      (10**-40 SI)
   iso        0.874447D+02      0.129580D+02      0.144177D+02
   aniso      0.505675D+02      0.749333D+01      0.833745D+01
   xx         0.105686D+03      0.156610D+02      0.174252D+02
   yx        -0.589692D+01     -0.873833D+00     -0.972271D+00
   yy         0.102133D+03      0.151345D+02      0.168394D+02
   zx         0.108424D+01      0.160668D+00      0.178768D+00
   zy         0.797836D-01      0.118227D-01      0.131545D-01
   zz         0.545156D+02      0.807838D+01      0.898840D+01

 ----------------------------------------------------------------------

 Dipole orientation:
     7          0.54810654         -1.45556282          1.03185933
     7          0.42621476          1.04152120          0.14983640
     6          2.15962096          2.51134027          1.48834349
     6          3.26448576          0.81587012          3.13496002
     7          2.31112137         -1.51945956          2.86245835
     1          2.37823066          4.49428677          1.10204948
     1          4.72325389          1.18706254          4.51924810
     1         -1.23259571         -3.97139629          0.12706100
     6         -1.13943527          1.87369477         -1.71534648
     8         -1.18292131          4.08883211         -2.41847079
     8         -2.67767085          0.12303720         -2.77011897
     1         -3.91602493         -5.09405630          0.56190868
     8         -2.59682390         -5.00362501         -0.68448185
     1         -2.47298049         -1.57193232         -2.07410231

 Electric dipole moment (dipole orientation):
 (Debye = 10**-18 statcoulomb cm , SI units = C m)
                  (au)            (Debye)         (10**-30 SI)
   Tot        0.857948D+00      0.218069D+01      0.727399D+01
   x          0.000000D+00      0.000000D+00      0.000000D+00
   y          0.000000D+00      0.000000D+00      0.000000D+00
   z          0.857948D+00      0.218069D+01      0.727399D+01

 Dipole polarizability, Alpha (dipole orientation).
 (esu units = cm**3 , SI units = C**2 m**2 J**-1)
 Alpha(0;0):
               (au)            (10**-24 esu)      (10**-40 SI)
   iso        0.874447D+02      0.129580D+02      0.144177D+02
   aniso      0.505675D+02      0.749333D+01      0.833745D+01
   xx         0.809827D+02      0.120004D+02      0.133522D+02
   yx         0.398146D+01      0.589992D+00      0.656455D+00
   yy         0.981998D+02      0.145517D+02      0.161910D+02
   zx         0.248546D+02      0.368307D+01      0.409796D+01
   zy        -0.114379D+02     -0.169492D+01     -0.188585D+01
   zz         0.831516D+02      0.123218D+02      0.137098D+02

 ----------------------------------------------------------------------
 1\1\GINC-NODE4\Freq\UM062X\6-31+G(d,p)\C3H5N3O3(1-,2)\GONGKE2021\04-Ju
 n-2023\0\\#N Geom=AllCheck Guess=TCheck SCRF=Check GenChk UM062X/6-31+
 G(d,p) Freq\\test\\-1,2\N,0.5032857133,-0.8498645236,-0.0014367795\N,0
 .2732415275,0.5333409529,0.0425281258\C,1.4990792949,1.1959344289,0.12
 22566714\C,2.4245831346,0.1714786965,0.1213708459\N,1.8352044016,-1.03
 26343496,0.0487952531\H,1.5505538785,2.2692370249,0.1626904396\H,3.502
 5172279,0.253664049,0.1703057898\H,-0.6419890148,-2.1054076978,-0.0410
 024644\C,-0.954077501,1.1226061143,0.0110024053\O,-1.1048905064,2.3425
 212514,0.0566850497\O,-2.0179827351,0.2895011557,-0.0690774154\H,-1.59
 58252394,-2.8735409539,0.9194581391\O,-1.514992706,-2.5952315102,0.002
 5870923\H,-1.7798129055,-0.6559188386,-0.1057603028\\Version=ES64L-G16
 RevA.03\State=2-A\HF=-507.0816129\S2=0.765494\S2-1=0.\S2A=0.750109\RMS
 D=2.545e-09\RMSF=1.890e-05\ZeroPoint=0.0962868\Thermal=0.1056206\Dipol
 e=0.571954,-0.2135407,0.6027799\DipoleDeriv=-0.1442491,-0.9864383,-0.0
 134967,0.0094994,-0.487898,0.0155447,0.0146767,-0.0285814,-0.3443031,-
 0.7925965,0.2536753,-0.0239331,0.2030602,-0.2721798,-0.0004407,-0.0238
 45,-0.0012978,0.0550865,-0.1922849,0.2906759,0.0254147,-0.2544312,-0.4
 356471,-0.009021,-0.0022024,0.0061783,-0.4347409,0.2302991,-0.1783659,
 0.0090485,-0.0924549,0.7264203,0.0333029,0.007192,0.0259854,-0.102919,
 -0.5022904,0.6139289,0.0157805,0.1582611,-0.8523709,-0.0134392,-0.0006
 83,0.0091638,-0.2491795,0.0507127,0.0077033,-0.0081165,-0.0330741,0.01
 85681,-0.0096613,-0.008309,-0.0048514,0.2570406,-0.1620349,-0.0248571,
 -0.0128702,-0.0230228,0.0881638,-0.0026159,-0.0141958,-0.0041715,0.148
 4477,0.6973757,0.6604783,-0.0500917,0.4711993,0.8995164,-0.000934,-0.0
 541562,-0.0227047,0.220659,2.2525665,-0.2060535,0.0767171,-0.6331297,2
 .2381014,0.0303554,0.0470481,0.0677078,0.4160278,-0.8198565,0.1764898,
 -0.0073273,1.1039447,-1.8135803,0.0133791,0.0367671,-0.0492686,-0.5161
 835,-1.2663013,-0.2361797,-0.0516162,-0.747341,-0.8344702,-0.0284706,-
 0.0594449,-0.010943,-0.4520897,0.2989086,0.0239637,-0.0579786,0.012515
 ,0.3507056,0.0094249,-0.0196307,0.0233948,0.1277452,-0.9347805,-0.4553
 771,0.0859786,-0.3214124,-1.2193061,-0.0175192,0.0748262,0.0156913,-0.
 4232428,0.2845316,0.0603563,0.0124908,0.1463865,0.5939769,-0.0199051,0
 .0019568,-0.0263029,0.2976516\Polar=105.6858752,-5.8969189,102.1325873
 ,1.0842433,0.0797836,54.5155772\Quadrupole=-2.2410585,-6.6278801,8.868
 9387,6.4394617,-2.0015586,-3.7002681\PG=C01 [X(C3H5N3O3)]\NImag=0\\0.5
 2756451,0.06768933,0.37112770,0.02077034,0.01322801,0.05443334,-0.1007
 0090,-0.06241039,-0.00556534,0.85752875,0.00507881,-0.18657938,-0.0057
 2403,-0.06007829,0.58553052,-0.00283763,-0.00835516,-0.02929312,0.0319
 7709,0.01733628,0.07448483,0.00457766,-0.03060227,-0.00066212,-0.23048
 429,-0.07290639,-0.01183767,0.54704685,-0.02098764,-0.05083789,-0.0025
 8204,-0.06943808,-0.14815492,-0.00739843,-0.05111315,0.87621662,-0.000
 64980,-0.00313479,-0.00380775,-0.01142869,-0.00740291,-0.03448646,0.01
 917968,0.02793626,0.06446747,-0.10534370,-0.02845014,-0.00629263,-0.07
 677421,-0.00668078,-0.00377728,-0.23219549,0.14069676,-0.00251996,0.88
 600425,-0.02531024,-0.01256428,-0.00218194,0.04444577,0.00780780,0.001
 87186,0.11662146,-0.22267895,-0.00118791,0.00923794,0.58403949,-0.0060
 9606,-0.00243868,0.01629051,-0.00192738,-0.00030026,0.00714810,-0.0032
 1270,-0.00066778,-0.04797196,0.03313125,0.01816782,0.12194704,-0.28880
 324,0.05485910,-0.00832602,-0.06993031,0.06347073,-0.00088928,0.012812
 63,-0.00274858,-0.00059295,-0.13235630,-0.13518223,-0.00833380,0.49043
 331,-0.05046999,-0.09407440,-0.00388561,0.03765857,-0.03838995,-0.0000
 2655,0.05098876,-0.11036926,-0.00365556,-0.09502856,-0.28341449,-0.012
 37584,0.05251390,0.52539848,-0.01219509,0.00054080,-0.04767349,-0.0016
 0928,0.00101843,0.00380931,0.00118534,-0.00553935,0.02829261,-0.006822
 67,-0.01453678,-0.06367695,0.01963004,0.01959861,0.08124726,-0.0052343
 4,-0.00198318,-0.00042690,0.00187834,-0.03071967,-0.00077992,-0.053669
 83,-0.00667512,-0.00218952,0.01217337,0.01518407,0.00120364,-0.0036629
 7,0.00553271,-0.00017767,0.04705745,0.00109484,-0.00035615,-0.00006964
 ,0.00193248,-0.00750049,-0.00000545,-0.01896402,-0.37801681,-0.0140927
 1,-0.00581842,-0.00510172,-0.00026315,-0.00090362,-0.00017422,-0.00025
 129,0.01995244,0.39291444,-0.00032369,-0.00023495,0.00304996,0.0003336
 3,-0.00152523,-0.00509208,-0.00266136,-0.01321235,-0.00828776,0.000532
 27,0.00033981,-0.00408802,-0.00042056,0.00010810,0.00581639,0.00227859
 ,0.01456162,0.01085737,0.00075793,-0.00163244,-0.00036488,-0.00158606,
 0.00075803,-0.00029975,-0.00797963,-0.00651379,-0.00057182,-0.35066818
 ,-0.01546068,-0.01424369,-0.01155918,-0.00091679,-0.00026118,-0.000416
 80,0.00049684,0.00007345,0.37162255,-0.00386035,-0.00542516,-0.0006938
 4,0.00453146,-0.00578597,-0.00026827,0.01826585,0.01100364,0.00123198,
 -0.00999263,-0.05950568,-0.00154589,-0.03229407,0.00457589,-0.00094213
 ,-0.00070693,-0.00042262,0.00001930,0.02350668,0.05411795,-0.00041179,
 -0.00059419,0.00807501,-0.00015154,-0.00039082,0.00605142,0.00038650,0
 .00013918,-0.00028426,-0.01401605,-0.00168497,-0.03076005,-0.00151344,
 0.00032048,-0.00650237,0.00003407,0.00006526,-0.00177274,0.01572843,0.
 00215183,0.02434143,-0.00865595,0.01165249,0.00139292,0.00775911,0.003
 18998,0.00026531,-0.00195459,0.00446729,0.00013854,0.00214151,-0.00006
 725,0.00007491,-0.00524905,0.00268516,-0.00009259,0.00076844,0.0002730
 4,0.00001190,0.00045885,0.00032221,0.00000055,0.28877861,0.00503969,-0
 .00322112,0.00064336,0.00306727,-0.00146090,0.00006485,-0.00023414,0.0
 0261373,0.00015429,0.00447507,0.00058716,0.00020479,-0.00030931,0.0071
 3862,0.00036552,0.00047762,0.00017343,0.00001038,0.00063898,0.00069962
 ,0.00004271,0.11774632,0.09457859,-0.00024106,-0.00040556,-0.00715818,
 -0.00020455,-0.00002301,-0.00256967,0.00008520,-0.00013543,0.00014217,
 -0.00013195,0.00003605,0.00075653,0.00014263,-0.00021063,-0.00214248,-
 0.00002953,-0.00001342,0.00014629,-0.00002765,-0.00003347,0.00036425,-
 0.01765302,-0.02080297,0.06470372,-0.01620608,0.01889165,0.00048433,-0
 .30528093,0.07606679,-0.00826958,-0.03845412,0.00923632,-0.00129445,-0
 .00218923,-0.00703095,-0.00040373,0.01871351,-0.00858885,0.00044439,0.
 00196341,0.00088972,0.00009807,0.00067899,-0.00015444,-0.00002564,0.01
 542511,0.00649706,-0.00056726,0.67293028,0.04035196,0.00253650,0.00176
 691,0.07410227,-0.16344571,-0.00138537,-0.01341411,0.01428750,-0.00030
 940,-0.00866341,-0.00416275,-0.00050495,-0.00839999,-0.00889102,-0.000
 56764,-0.00510702,-0.00220592,-0.00025194,-0.00142045,0.00111848,-0.00
 005476,-0.00111648,-0.00485162,-0.00007675,-0.06031971,0.98945475,0.00
 114728,0.00147893,-0.00026037,-0.00801739,-0.00169902,-0.04683162,-0.0
 0251570,0.00072968,0.00097962,-0.00033341,-0.00044513,-0.00055801,0.00
 032444,-0.00058648,-0.00261349,-0.00014890,-0.00007570,0.00049209,-0.0
 0007933,-0.00001182,0.00111345,0.00040984,-0.00001303,0.00092761,0.019
 67793,0.03262619,0.15861802,-0.00282998,-0.00605363,-0.00056127,-0.012
 53613,0.06213464,0.00132099,0.00430409,-0.00075340,0.00026378,0.001452
 66,0.00299661,0.00020085,-0.00314441,0.00410903,-0.00007974,0.00009211
 ,0.00157907,0.00009333,-0.00026863,0.00016520,-0.00000430,-0.00379217,
 -0.00180895,0.00013265,-0.11120882,0.07631202,0.00125872,0.11579947,-0
 .01122197,-0.01868301,-0.00104193,0.02311137,-0.04623805,-0.00170483,0
 .00797831,0.01221669,0.00127650,-0.00129393,-0.00236299,-0.00020041,0.
 01766845,-0.00187597,0.00052257,0.00390242,0.00064039,0.00014936,0.000
 88890,0.00020850,0.00004739,0.00473589,0.00483039,-0.00005504,0.070100
 69,-0.62419985,-0.02087218,-0.08668346,0.74132925,-0.00083079,-0.00133
 031,0.00256906,-0.00049554,0.00032652,0.01587753,0.00076319,0.00067195
 ,-0.00323524,-0.00001382,0.00003363,0.00001703,0.00056372,-0.00000610,
 0.00239895,0.00018963,0.00012172,-0.00070566,0.00002959,0.00001871,-0.
 00005333,0.00012202,0.00016538,-0.00010949,0.00106257,-0.02053528,-0.0
 6406491,0.00010184,0.02631072,0.03224623,0.01136893,0.00435870,0.00047
 200,-0.06181209,-0.03507977,-0.00442012,-0.00422442,0.00690705,-0.0002
 1145,-0.00118145,-0.00509802,-0.00028625,-0.00747677,0.00396710,-0.000
 23602,-0.00051543,-0.00036227,-0.00001150,-0.00077080,0.00050512,0.000
 01942,-0.00820754,-0.00487263,0.00035745,-0.24167569,-0.05941281,-0.01
 055136,0.01485025,-0.02114204,-0.00086247,0.37528731,0.01520448,0.0105
 0618,0.00086522,0.00309267,0.00251443,-0.00010871,-0.00746241,-0.00282
 868,-0.00071931,0.00430826,-0.00339681,0.00002836,-0.01055336,0.006772
 68,-0.00013509,0.00040477,0.00016726,0.00004473,-0.00009363,0.00002261
 ,0.00001717,-0.01004988,-0.00299998,0.00066349,-0.10291985,-0.17847071
 ,-0.01039939,-0.05134124,-0.06288064,-0.00530411,0.01433226,0.68587802
 ,0.00117989,0.00031368,-0.00245972,-0.00323077,-0.00168297,0.00842452,
 -0.00054083,0.00005862,0.00507972,0.00002357,-0.00039232,0.00122862,-0
 .00059554,0.00034198,0.00102321,0.00001079,0.00000939,-0.00049808,-0.0
 0000825,0.00004619,-0.00056231,-0.00014283,0.00016830,-0.00157424,-0.0
 1311744,-0.00910482,-0.04087337,-0.00212450,-0.00416501,0.01034870,0.0
 1468521,0.03245761,0.02635151,-0.00061938,-0.00084487,-0.00195475,-0.0
 0036285,-0.00019973,-0.00036925,-0.00012311,0.00027053,0.00002284,-0.0
 0013587,-0.00029387,0.00007061,-0.00059014,0.00017656,-0.00024762,-0.0
 0002113,-0.00000270,0.00001631,0.00000170,-0.00002298,0.00004148,0.001
 09425,-0.00962741,0.03900355,0.00086969,-0.00024838,0.00014248,-0.0002
 2316,0.00055988,0.00003526,-0.00080445,0.00008681,0.00055586,0.0366406
 9,-0.00075103,-0.00036663,-0.00183598,-0.00000559,-0.00040117,-0.00003
 376,0.00015276,0.00002157,-0.00003753,0.00004940,0.00015264,0.00010177
 ,-0.00019218,-0.00029721,-0.00030874,0.00000582,-0.00000654,0.00002233
 ,0.00004112,0.00000494,0.00006292,0.00190530,-0.00349923,0.02219640,-0
 .00096322,-0.00125410,0.00028700,0.00012338,0.00039160,-0.00011232,0.0
 0084661,0.00018358,-0.00143121,0.03020185,0.06086363,-0.00049767,-0.00
 043252,-0.00020871,-0.00000553,-0.00014163,0.00012040,-0.00002857,-0.0
 0017255,-0.00002467,-0.00001139,0.00004274,-0.00001517,0.00002170,-0.0
 0000736,0.00007210,-0.00001548,-0.00001164,0.00002671,-0.00002549,-0.0
 0000136,-0.00000300,-0.00561505,-0.00083557,-0.00631886,0.00019213,0.0
 0036644,0.00002434,-0.00003916,-0.00029214,-0.00003351,0.00012016,-0.0
 0114071,-0.00009348,-0.05060578,-0.15702318,0.50350916,-0.01642156,-0.
 02381933,0.00116416,-0.00468032,-0.00138783,0.00027758,0.00148444,-0.0
 0345992,-0.00014532,-0.00259711,0.00066969,-0.00021364,0.00273712,-0.0
 0524728,0.00020062,-0.00053865,-0.00020697,-0.00001610,-0.00043209,-0.
 00043218,-0.00008388,-0.28757277,-0.13029005,-0.02022752,-0.01292943,0
 .00145026,-0.00050035,0.00321979,-0.00398340,-0.00009243,0.00903522,0.
 00822865,-0.00060061,-0.03644679,-0.03056366,0.05670055,0.35142209,-0.
 01753199,-0.00985974,0.00145449,-0.00368199,-0.00037496,-0.00017139,-0
 .00045046,-0.00135934,-0.00010982,-0.00259584,-0.00060114,-0.00022351,
 -0.00148787,-0.00377749,0.00014403,-0.00028479,-0.00011338,-0.00002013
 ,-0.00049298,-0.00045117,-0.00010685,-0.15204812,-0.09396052,-0.000765
 17,0.00710153,0.00553565,0.00038563,-0.00134315,-0.00459619,-0.0002346
 1,-0.00365969,-0.01356412,0.00122772,-0.01934258,-0.05592174,0.1581433
 8,0.19474988,0.17144415,0.00101795,0.00109419,0.00719853,0.00034211,0.
 00037675,0.00071499,-0.00007253,0.00019898,0.00005532,0.00013017,-0.00
 006465,-0.00029771,0.00005753,0.00025434,0.00122923,0.00004098,0.00002
 357,-0.00010980,0.00004402,0.00002885,-0.00021897,0.02206644,0.0201153
 3,-0.05174775,0.00009185,0.00010412,-0.00054568,0.00001294,0.00026163,
 0.00023767,-0.00039131,0.00126315,0.00327686,0.01474284,0.13387802,-0.
 49672954,-0.03895401,-0.15571298,0.54432019,0.00054610,-0.00165505,-0.
 00012986,-0.00301811,-0.00364653,-0.00036050,-0.00114020,0.00011172,-0
 .00000089,0.00166975,-0.00071229,0.00003600,-0.00192421,0.00261968,0.0
 0026146,0.00012605,0.00003956,-0.00000435,0.00016132,0.00016704,-0.000
 00382,-0.00099382,0.00920048,-0.00063895,0.01736332,-0.03411414,-0.000
 81425,-0.00571507,-0.00462110,-0.00057278,-0.08387306,0.13676248,0.003
 90547,0.00072055,-0.00085055,-0.00019043,-0.00627993,0.00106804,0.0008
 7101,0.08235733,-0.00432590,-0.00220263,0.00005703,0.00367249,0.002478
 74,0.00018494,0.00113980,-0.00211391,0.00005090,-0.00024375,0.00120173
 ,0.00001773,0.00355900,-0.00262167,0.00009105,0.00001685,0.00000233,-0
 .00001103,0.00020021,-0.00016103,-0.00001535,0.01630406,-0.00062818,-0
 .00037448,-0.00880673,-0.02545120,-0.00140466,0.00056388,0.00121986,-0
 .00012590,0.09871039,-0.44190382,-0.01784717,-0.00071309,0.00012867,0.
 00150608,-0.00570787,0.00759999,-0.00182129,-0.10436936,0.46245113,-0.
 00003189,0.00027053,-0.00075510,-0.00001683,-0.00016812,0.00164183,-0.
 00006844,-0.00002672,-0.00091880,0.00010190,0.00000180,-0.00001997,-0.
 00006848,0.00013063,-0.00128029,0.00001021,0.00000144,0.00016533,0.000
 00653,-0.00000008,0.00021147,-0.00097895,-0.00028335,0.00458009,0.0016
 2683,-0.00207275,-0.00640769,-0.00057614,-0.00023663,0.00450697,0.0013
 1624,-0.01753240,-0.00967194,-0.00145383,0.00423428,-0.00032578,0.0024
 9096,-0.00401080,-0.00738335,-0.00235811,0.01969216,0.01565723\\-0.000
 03964,0.00002226,0.00000071,0.00001513,-0.00000634,-0.00001256,-0.0000
 0814,-0.00000501,0.00001239,0.00000273,0.00000274,-0.00000198,0.000002
 37,0.00000304,0.00000078,-0.00000062,-0.00000144,-0.00000668,-0.000000
 59,-0.00000249,-0.00000014,-0.00004667,-0.00003060,-0.00001102,0.00001
 512,0.00000014,0.00001148,0.00000327,-0.00000074,0.00000107,0.00000312
 ,0.00000533,0.00000596,-0.00000439,-0.00001055,-0.00001029,0.00006636,
 0.00004832,0.00002505,-0.00000804,-0.00002465,-0.00001477\\\@


 THERE'S A SUCKER BORN EVERY MINUTE

              -- PHINEAS TAYLOR (P.T.) BARNUM
 Job cpu time:       0 days  0 hours 33 minutes 12.3 seconds.
 Elapsed time:       0 days  0 hours  1 minutes 23.6 seconds.
 File lengths (MBytes):  RWF=    127 Int=      0 D2E=      0 Chk=      6 Scr=      1
 Normal termination of Gaussian 16 at Sun Jun  4 07:42:15 2023.
