 Entering Gaussian System, Link 0=/opt/soft/g16/g16
 Initial command:
 /opt/soft/g16/l1.exe "/scratch/gongke2021/TS/Gau-29949.inp" -scrdir="/scratch/gongke2021/TS/"
 Entering Link 1 = /opt/soft/g16/l1.exe PID=     29950.
  
 Copyright (c) 1988,1990,1992,1993,1995,1998,2003,2009,2016,
            Gaussian, Inc.  All Rights Reserved.
  
 This is part of the Gaussian(R) 16 program.  It is based on
 the Gaussian(R) 09 system (copyright 2009, Gaussian, Inc.),
 the Gaussian(R) 03 system (copyright 2003, Gaussian, Inc.),
 the Gaussian(R) 98 system (copyright 1998, Gaussian, Inc.),
 the Gaussian(R) 94 system (copyright 1995, Gaussian, Inc.),
 the Gaussian 92(TM) system (copyright 1992, Gaussian, Inc.),
 the Gaussian 90(TM) system (copyright 1990, Gaussian, Inc.),
 the Gaussian 88(TM) system (copyright 1988, Gaussian, Inc.),
 the Gaussian 86(TM) system (copyright 1986, Carnegie Mellon
 University), and the Gaussian 82(TM) system (copyright 1983,
 Carnegie Mellon University). Gaussian is a federally registered
 trademark of Gaussian, Inc.
  
 This software contains proprietary and confidential information,
 including trade secrets, belonging to Gaussian, Inc.
  
 This software is provided under written license and may be
 used, copied, transmitted, or stored only in accord with that
 written license.
  
 The following legend is applicable only to US Government
 contracts under FAR:
  
                    RESTRICTED RIGHTS LEGEND
  
 Use, reproduction and disclosure by the US Government is
 subject to restrictions as set forth in subparagraphs (a)
 and (c) of the Commercial Computer Software - Restricted
 Rights clause in FAR 52.227-19.
  
 Gaussian, Inc.
 340 Quinnipiac St., Bldg. 40, Wallingford CT 06492
  
  
 ---------------------------------------------------------------
 Warning -- This program may not be used in any manner that
 competes with the business of Gaussian, Inc. or will provide
 assistance to any competitor of Gaussian, Inc.  The licensee
 of this program is prohibited from giving any competitor of
 Gaussian, Inc. access to this program.  By using this program,
 the user acknowledges that Gaussian, Inc. is engaged in the
 business of creating and licensing software in the field of
 computational chemistry and represents and warrants to the
 licensee that it is not a competitor of Gaussian, Inc. and that
 it will not use this program in any manner prohibited above.
 ---------------------------------------------------------------
  

 Cite this work as:
 Gaussian 16, Revision A.03,
 M. J. Frisch, G. W. Trucks, H. B. Schlegel, G. E. Scuseria, 
 M. A. Robb, J. R. Cheeseman, G. Scalmani, V. Barone, 
 G. A. Petersson, H. Nakatsuji, X. Li, M. Caricato, A. V. Marenich, 
 J. Bloino, B. G. Janesko, R. Gomperts, B. Mennucci, H. P. Hratchian, 
 J. V. Ortiz, A. F. Izmaylov, J. L. Sonnenberg, D. Williams-Young, 
 F. Ding, F. Lipparini, F. Egidi, J. Goings, B. Peng, A. Petrone, 
 T. Henderson, D. Ranasinghe, V. G. Zakrzewski, J. Gao, N. Rega, 
 G. Zheng, W. Liang, M. Hada, M. Ehara, K. Toyota, R. Fukuda, 
 J. Hasegawa, M. Ishida, T. Nakajima, Y. Honda, O. Kitao, H. Nakai, 
 T. Vreven, K. Throssell, J. A. Montgomery, Jr., J. E. Peralta, 
 F. Ogliaro, M. J. Bearpark, J. J. Heyd, E. N. Brothers, K. N. Kudin, 
 V. N. Staroverov, T. A. Keith, R. Kobayashi, J. Normand, 
 K. Raghavachari, A. P. Rendell, J. C. Burant, S. S. Iyengar, 
 J. Tomasi, M. Cossi, J. M. Millam, M. Klene, C. Adamo, R. Cammi, 
 J. W. Ochterski, R. L. Martin, K. Morokuma, O. Farkas, 
 J. B. Foresman, and D. J. Fox, Gaussian, Inc., Wallingford CT, 2016.
 
 ******************************************
 Gaussian 16:  ES64L-G16RevA.03 25-Dec-2016
                 5-Jun-2023 
 ******************************************
 %mem=10GB
 %nprocshared=24
 Will use up to   24 processors via shared memory.
 ----------------------------------------------------------------------
 # opt=(calcfc,ts,noeigentest) freq 6-31+g(d,p) integral=grid=ultrafine
  m062x
 ----------------------------------------------------------------------
 1/5=1,10=4,11=1,18=20,26=4,38=1/1,3;
 2/9=110,12=2,17=6,18=5,40=1/2;
 3/5=1,6=6,7=111,11=2,25=1,30=1,71=2,74=-55,75=-5,140=1/1,2,3;
 4//1;
 5/5=2,38=5/2;
 8/6=4,10=90,11=11/1;
 11/6=1,8=1,9=11,15=111,16=1/1,2,10;
 10/6=1,13=1/2;
 6/7=2,8=2,9=2,10=2,28=1/1;
 7/10=1,18=20,25=1/1,2,3,16;
 1/5=1,10=4,11=1,18=20,26=4/3(2);
 2/9=110/2;
 99//99;
 2/9=110/2;
 3/5=1,6=6,7=111,11=2,25=1,30=1,71=1,74=-55,75=-5/1,2,3;
 4/5=5,16=3,69=1/1;
 5/5=2,38=5/2;
 7//1,2,3,16;
 1/5=1,11=1,18=20,26=4/3(-5);
 2/9=110/2;
 6/7=2,8=2,9=2,10=2,19=2,28=1/1;
 99/9=1/99;
 ----
 test
 ----
 Symbolic Z-matrix:
 Charge =  0 Multiplicity = 1
 N                     1.04473  -1.08903   0.00915 
 N                     0.87863   0.2199   -0.00497 
 C                     2.12211   0.70184   0.03811 
 C                     3.00689  -0.38472   0.07603 
 N                     2.28947  -1.50845   0.0556 
 H                     2.3073    1.76491   0.03805 
 H                     4.08452  -0.41017   0.11518 
 H                    -0.12038  -2.0311   -0.0304 
 C                    -0.25776   1.42231  -0.1306 
 O                    -0.00301   2.8323   -0.10225 
 O                    -1.69801   1.5107   -0.02725 
 H                    -2.32338  -1.93574  -0.03241 
 O                    -1.22606  -2.73896  -0.11193 
 H                    -1.35656  -3.38011  -0.81643 
 H                    -2.43755   0.31937   0.03167 
 O                    -3.29884  -0.94008   0.09921 
 H                    -3.86363  -0.9077    0.87759 
 
 Add virtual bond connecting atoms O13        and H8         Dist= 2.49D+00.
 Add virtual bond connecting atoms O13        and H12        Dist= 2.57D+00.
 Add virtual bond connecting atoms O16        and H12        Dist= 2.65D+00.
 Add virtual bond connecting atoms H15        and O11        Dist= 2.65D+00.
 Add virtual bond connecting atoms H8         and N1         Dist= 2.83D+00.
 Add virtual bond connecting atoms O16        and H15        Dist= 2.89D+00.

 GradGradGradGradGradGradGradGradGradGradGradGradGradGradGradGradGradGrad
 Berny optimization.
 Initialization pass.
                           ----------------------------
                           !    Initial Parameters    !
                           ! (Angstroms and Degrees)  !
 --------------------------                            --------------------------
 ! Name  Definition              Value          Derivative Info.                !
 --------------------------------------------------------------------------------
 ! R1    R(1,2)                  1.3195         calculate D2E/DX2 analytically  !
 ! R2    R(1,5)                  1.3143         calculate D2E/DX2 analytically  !
 ! R3    R(1,8)                  1.4989         calculate D2E/DX2 analytically  !
 ! R4    R(2,3)                  1.3343         calculate D2E/DX2 analytically  !
 ! R5    R(2,9)                  1.6592         calculate D2E/DX2 analytically  !
 ! R6    R(3,4)                  1.4017         calculate D2E/DX2 analytically  !
 ! R7    R(3,6)                  1.0791         calculate D2E/DX2 analytically  !
 ! R8    R(4,5)                  1.3334         calculate D2E/DX2 analytically  !
 ! R9    R(4,7)                  1.0786         calculate D2E/DX2 analytically  !
 ! R10   R(8,13)                 1.3154         calculate D2E/DX2 analytically  !
 ! R11   R(9,10)                 1.4331         calculate D2E/DX2 analytically  !
 ! R12   R(9,11)                 1.4467         calculate D2E/DX2 analytically  !
 ! R13   R(11,15)                1.4034         calculate D2E/DX2 analytically  !
 ! R14   R(12,13)                1.3622         calculate D2E/DX2 analytically  !
 ! R15   R(12,16)                1.4001         calculate D2E/DX2 analytically  !
 ! R16   R(13,14)                0.9615         calculate D2E/DX2 analytically  !
 ! R17   R(15,16)                1.5273         calculate D2E/DX2 analytically  !
 ! R18   R(16,17)                0.9622         calculate D2E/DX2 analytically  !
 ! A1    A(2,1,5)              115.8586         calculate D2E/DX2 analytically  !
 ! A2    A(2,1,8)              121.6926         calculate D2E/DX2 analytically  !
 ! A3    A(5,1,8)              122.4484         calculate D2E/DX2 analytically  !
 ! A4    A(1,2,3)              103.9244         calculate D2E/DX2 analytically  !
 ! A5    A(1,2,9)              143.6982         calculate D2E/DX2 analytically  !
 ! A6    A(3,2,9)              112.2702         calculate D2E/DX2 analytically  !
 ! A7    A(2,3,4)              108.0067         calculate D2E/DX2 analytically  !
 ! A8    A(2,3,6)              121.0489         calculate D2E/DX2 analytically  !
 ! A9    A(4,3,6)              130.9443         calculate D2E/DX2 analytically  !
 ! A10   A(3,4,5)              108.2553         calculate D2E/DX2 analytically  !
 ! A11   A(3,4,7)              130.532          calculate D2E/DX2 analytically  !
 ! A12   A(5,4,7)              121.2128         calculate D2E/DX2 analytically  !
 ! A13   A(1,5,4)              103.9549         calculate D2E/DX2 analytically  !
 ! A14   A(2,9,10)             126.14           calculate D2E/DX2 analytically  !
 ! A15   A(2,9,11)             136.1153         calculate D2E/DX2 analytically  !
 ! A16   A(10,9,11)             96.6293         calculate D2E/DX2 analytically  !
 ! A17   A(9,11,15)            118.4078         calculate D2E/DX2 analytically  !
 ! A18   A(8,13,12)            110.8669         calculate D2E/DX2 analytically  !
 ! A19   A(8,13,14)            121.2221         calculate D2E/DX2 analytically  !
 ! A20   A(12,13,14)           109.065          calculate D2E/DX2 analytically  !
 ! A21   A(12,16,15)           100.9165         calculate D2E/DX2 analytically  !
 ! A22   A(12,16,17)           120.5925         calculate D2E/DX2 analytically  !
 ! A23   A(15,16,17)           109.8173         calculate D2E/DX2 analytically  !
 ! A24   L(1,8,13,11,-1)       173.6597         calculate D2E/DX2 analytically  !
 ! A25   L(13,12,16,2,-1)      170.591          calculate D2E/DX2 analytically  !
 ! A26   L(11,15,16,1,-1)      182.5335         calculate D2E/DX2 analytically  !
 ! A27   L(1,8,13,11,-2)       177.9651         calculate D2E/DX2 analytically  !
 ! A28   L(13,12,16,2,-2)      181.8557         calculate D2E/DX2 analytically  !
 ! A29   L(11,15,16,1,-2)      179.863          calculate D2E/DX2 analytically  !
 ! D1    D(5,1,2,3)             -0.1046         calculate D2E/DX2 analytically  !
 ! D2    D(5,1,2,9)            175.4458         calculate D2E/DX2 analytically  !
 ! D3    D(8,1,2,3)           -179.9029         calculate D2E/DX2 analytically  !
 ! D4    D(8,1,2,9)             -4.3525         calculate D2E/DX2 analytically  !
 ! D5    D(2,1,5,4)              0.1011         calculate D2E/DX2 analytically  !
 ! D6    D(8,1,5,4)            179.8978         calculate D2E/DX2 analytically  !
 ! D7    D(2,1,13,12)           -6.3534         calculate D2E/DX2 analytically  !
 ! D8    D(2,1,13,14)          120.852          calculate D2E/DX2 analytically  !
 ! D9    D(5,1,13,12)          174.9704         calculate D2E/DX2 analytically  !
 ! D10   D(5,1,13,14)          -57.8242         calculate D2E/DX2 analytically  !
 ! D11   D(1,2,3,4)              0.0617         calculate D2E/DX2 analytically  !
 ! D12   D(1,2,3,6)            179.9722         calculate D2E/DX2 analytically  !
 ! D13   D(9,2,3,4)           -177.0934         calculate D2E/DX2 analytically  !
 ! D14   D(9,2,3,6)              2.8172         calculate D2E/DX2 analytically  !
 ! D15   D(1,2,9,10)          -179.6996         calculate D2E/DX2 analytically  !
 ! D16   D(1,2,9,11)            15.3945         calculate D2E/DX2 analytically  !
 ! D17   D(3,2,9,10)            -4.367          calculate D2E/DX2 analytically  !
 ! D18   D(3,2,9,11)          -169.2729         calculate D2E/DX2 analytically  !
 ! D19   D(2,3,4,5)             -0.0056         calculate D2E/DX2 analytically  !
 ! D20   D(2,3,4,7)            179.969          calculate D2E/DX2 analytically  !
 ! D21   D(6,3,4,5)           -179.9041         calculate D2E/DX2 analytically  !
 ! D22   D(6,3,4,7)              0.0705         calculate D2E/DX2 analytically  !
 ! D23   D(3,4,5,1)             -0.0533         calculate D2E/DX2 analytically  !
 ! D24   D(7,4,5,1)            179.9693         calculate D2E/DX2 analytically  !
 ! D25   D(2,9,11,15)          -10.0792         calculate D2E/DX2 analytically  !
 ! D26   D(10,9,11,15)        -177.8565         calculate D2E/DX2 analytically  !
 ! D27   D(9,11,16,12)          -2.7517         calculate D2E/DX2 analytically  !
 ! D28   D(9,11,16,17)         125.9602         calculate D2E/DX2 analytically  !
 ! D29   D(8,13,16,15)           8.0315         calculate D2E/DX2 analytically  !
 ! D30   D(8,13,16,17)        -110.0095         calculate D2E/DX2 analytically  !
 ! D31   D(14,13,16,15)       -127.0019         calculate D2E/DX2 analytically  !
 ! D32   D(14,13,16,17)        114.9571         calculate D2E/DX2 analytically  !
 --------------------------------------------------------------------------------
 Trust Radius=3.00D-01 FncErr=1.00D-07 GrdErr=1.00D-06 EigMax=2.50D+02 EigMin=1.00D-04
 Number of steps in this run=     89 maximum allowed number of steps=    102.
 Search for a saddle point of order  1.
 GradGradGradGradGradGradGradGradGradGradGradGradGradGradGradGradGradGrad

                          Input orientation:                          
 ---------------------------------------------------------------------
 Center     Atomic      Atomic             Coordinates (Angstroms)
 Number     Number       Type             X           Y           Z
 ---------------------------------------------------------------------
      1          7           0        1.044732   -1.089026    0.009145
      2          7           0        0.878634    0.219902   -0.004969
      3          6           0        2.122110    0.701839    0.038112
      4          6           0        3.006885   -0.384722    0.076031
      5          7           0        2.289474   -1.508449    0.055598
      6          1           0        2.307303    1.764912    0.038045
      7          1           0        4.084517   -0.410166    0.115175
      8          1           0       -0.120381   -2.031102   -0.030397
      9          6           0       -0.257759    1.422314   -0.130603
     10          8           0       -0.003014    2.832303   -0.102250
     11          8           0       -1.698013    1.510703   -0.027254
     12          1           0       -2.323381   -1.935744   -0.032409
     13          8           0       -1.226062   -2.738958   -0.111931
     14          1           0       -1.356558   -3.380105   -0.816433
     15          1           0       -2.437549    0.319368    0.031668
     16          8           0       -3.298837   -0.940083    0.099213
     17          1           0       -3.863630   -0.907695    0.877590
 ---------------------------------------------------------------------
                    Distance matrix (angstroms):
                    1          2          3          4          5
     1  N    0.000000
     2  N    1.319500   0.000000
     3  C    2.090163   1.334298   0.000000
     4  C    2.085800   2.213952   1.401742   0.000000
     5  N    1.314327   2.231890   2.216684   1.333364   0.000000
     6  H    3.120879   2.104757   1.079083   2.260926   3.273457
     7  H    3.116470   3.269420   2.256886   1.078643   2.105221
     8  H    1.498853   2.462863   3.535877   3.535773   2.467380
     9  C    2.832462   1.659207   2.492253   3.737108   3.887472
    10  O    4.060419   2.758878   3.012430   4.409142   4.911471
    11  O    3.779228   2.881973   3.905364   5.073398   5.002219
    12  H    3.473161   3.860112   5.169546   5.552402   4.633439
    13  O    2.809527   3.632635   4.803317   4.847226   3.728433
    14  H    3.420061   4.314465   5.430805   5.367350   4.190117
    15  H    3.756376   3.317876   4.575676   5.489952   5.068159
    16  O    4.347055   4.336783   5.664478   6.330173   5.617309
    17  H    4.987895   4.953731   6.254951   6.936856   6.236767
                    6          7          8          9         10
     6  H    0.000000
     7  H    2.809876   0.000000
     8  H    4.506446   4.508857   0.000000
     9  C    2.593330   4.719508   3.457599   0.000000
    10  O    2.548838   5.221953   4.865352   1.433098   0.000000
    11  O    4.013906   6.094889   3.877281   1.446659   2.150645
    12  H    5.928158   6.588651   2.205064   3.943728   5.303136
    13  O    5.726430   5.803197   1.315385   4.272487   5.703937
    14  H    6.373791   6.268471   1.991430   4.974027   6.398137
    15  H    4.960167   6.563272   3.301185   2.448327   3.501391
    16  O    6.224913   7.402363   3.362990   3.857705   5.013376
    17  H    6.777026   8.000116   4.012280   4.409954   5.463701
                   11         12         13         14         15
    11  O    0.000000
    12  H    3.502729   0.000000
    13  O    4.276625   1.362199   0.000000
    14  H    4.965823   1.906730   0.961469   0.000000
    15  H    1.403447   2.258909   3.292671   3.946380   0.000000
    16  O    2.930014   1.400064   2.752622   3.250317   1.527284
    17  H    3.370058   2.063335   3.359976   3.907421   2.062759
                   16         17
    16  O    0.000000
    17  H    0.962243   0.000000
 Stoichiometry    C3H7N3O4
 Framework group  C1[X(C3H7N3O4)]
 Deg. of freedom    45
 Full point group                 C1      NOp   1
 Largest Abelian subgroup         C1      NOp   1
 Largest concise Abelian subgroup C1      NOp   1
                         Standard orientation:                         
 ---------------------------------------------------------------------
 Center     Atomic      Atomic             Coordinates (Angstroms)
 Number     Number       Type             X           Y           Z
 ---------------------------------------------------------------------
      1          7           0        0.806739   -1.136804    0.013378
      2          7           0        0.851993    0.181883    0.003642
      3          6           0        2.156521    0.458723    0.047440
      4          6           0        2.856251   -0.755410    0.081212
      5          7           0        1.968444   -1.749945    0.057610
      6          1           0        2.509255    1.478521    0.050710
      7          1           0        3.915967   -0.952904    0.119534
      8          1           0       -0.493982   -1.880401   -0.028434
      9          6           0       -0.077616    1.550887   -0.117294
     10          8           0        0.399231    2.901928   -0.084522
     11          8           0       -1.485207    1.868003   -0.012670
     12          1           0       -2.653416   -1.434139   -0.028625
     13          8           0       -1.698603   -2.402151   -0.111516
     14          1           0       -1.930012   -3.011850   -0.818013
     15          1           0       -2.405649    0.810002    0.042878
     16          8           0       -3.457163   -0.295807    0.106909
     17          1           0       -4.009396   -0.176149    0.885775
 ---------------------------------------------------------------------
 Rotational constants (GHZ):           1.2508559           0.9023262           0.5266904
 Standard basis: 6-31+G(d,p) (6D, 7F)
 There are   225 symmetry adapted cartesian basis functions of A   symmetry.
 There are   225 symmetry adapted basis functions of A   symmetry.
   225 basis functions,   369 primitive gaussians,   225 cartesian basis functions
    39 alpha electrons       39 beta electrons
       nuclear repulsion energy       518.9011332444 Hartrees.
 NAtoms=   17 NActive=   17 NUniq=   17 SFac= 1.00D+00 NAtFMM=   60 NAOKFM=F Big=F
 Integral buffers will be    131072 words long.
 Raffenetti 2 integral format.
 Two-electron integral symmetry is turned on.
 One-electron integrals computed using PRISM.
 NBasis=   225 RedAO= T EigKep=  2.60D-05  NBF=   225
 NBsUse=   225 1.00D-06 EigRej= -1.00D+00 NBFU=   225
 ExpMin= 4.38D-02 ExpMax= 5.48D+03 ExpMxC= 8.25D+02 IAcc=3 IRadAn=         5 AccDes= 0.00D+00
 Harris functional with IExCor= 1009 and IRadAn=       5 diagonalized for initial guess.
 HarFok:  IExCor= 1009 AccDes= 0.00D+00 IRadAn=         5 IDoV= 1 UseB2=F ITyADJ=14
 ICtDFT=  3500011 ScaDFX=  1.000000  1.000000  1.000000  1.000000
 FoFCou: FMM=F IPFlag=           0 FMFlag=      100000 FMFlg1=           0
         NFxFlg=           0 DoJE=T BraDBF=F KetDBF=T FulRan=T
         wScrn=  0.000000 ICntrl=       500 IOpCl=  0 I1Cent=   200000004 NGrid=           0
         NMat0=    1 NMatS0=      1 NMatT0=    0 NMatD0=    1 NMtDS0=    0 NMtDT0=    0
 Petite list used in FoFCou.
 Requested convergence on RMS density matrix=1.00D-08 within 128 cycles.
 Requested convergence on MAX density matrix=1.00D-06.
 Requested convergence on             energy=1.00D-06.
 No special actions if energy rises.
 SCF Done:  E(RM062X) =  -583.197682589     A.U. after   18 cycles
            NFock= 18  Conv=0.59D-08     -V/T= 2.0113
 DoSCS=F DFT=T ScalE2(SS,OS)=  1.000000  1.000000
 Range of M.O.s used for correlation:     1   225
 NBasis=   225 NAE=    39 NBE=    39 NFC=     0 NFV=     0
 NROrb=    225 NOA=    39 NOB=    39 NVA=   186 NVB=   186

 **** Warning!!: The largest alpha MO coefficient is  0.52159944D+02

 Symmetrizing basis deriv contribution to polar:
 IMax=3 JMax=2 DiffMx= 0.00D+00
 G2DrvN: will do    18 centers at a time, making    1 passes.
 Calling FoFCou, ICntrl=  3107 FMM=F I1Cent=   0 AccDes= 0.00D+00.
 End of G2Drv F.D. properties file   721 does not exist.
 End of G2Drv F.D. properties file   722 does not exist.
 End of G2Drv F.D. properties file   788 does not exist.
          IDoAtm=11111111111111111
          Differentiating once with respect to nuclear coordinates.
 Keep R1 ints in memory in canonical form, NReq=348474885.
          There are    54 degrees of freedom in the 1st order CPHF.  IDoFFX=6 NUNeed=     0.
     48 vectors produced by pass  0 Test12= 1.34D-14 1.85D-09 XBig12= 1.54D-01 8.02D-02.
 AX will form    48 AO Fock derivatives at one time.
     48 vectors produced by pass  1 Test12= 1.34D-14 1.85D-09 XBig12= 3.17D-02 3.60D-02.
     48 vectors produced by pass  2 Test12= 1.34D-14 1.85D-09 XBig12= 9.76D-04 5.90D-03.
     48 vectors produced by pass  3 Test12= 1.34D-14 1.85D-09 XBig12= 1.18D-05 4.08D-04.
     48 vectors produced by pass  4 Test12= 1.34D-14 1.85D-09 XBig12= 1.19D-07 4.33D-05.
     48 vectors produced by pass  5 Test12= 1.34D-14 1.85D-09 XBig12= 7.02D-10 2.97D-06.
     41 vectors produced by pass  6 Test12= 1.34D-14 1.85D-09 XBig12= 2.94D-12 1.48D-07.
     12 vectors produced by pass  7 Test12= 1.34D-14 1.85D-09 XBig12= 1.02D-14 1.03D-08.
 InvSVY:  IOpt=1 It=  1 EMax= 6.11D-16
 Solved reduced A of dimension   341 with    54 vectors.
 End of Minotr F.D. properties file   721 does not exist.
 End of Minotr F.D. properties file   722 does not exist.
 End of Minotr F.D. properties file   788 does not exist.

 **********************************************************************

            Population analysis using the SCF density.

 **********************************************************************

 Orbital symmetries:
       Occupied  (A) (A) (A) (A) (A) (A) (A) (A) (A) (A) (A) (A)
                 (A) (A) (A) (A) (A) (A) (A) (A) (A) (A) (A) (A)
                 (A) (A) (A) (A) (A) (A) (A) (A) (A) (A) (A) (A)
                 (A) (A) (A)
       Virtual   (A) (A) (A) (A) (A) (A) (A) (A) (A) (A) (A) (A)
                 (A) (A) (A) (A) (A) (A) (A) (A) (A) (A) (A) (A)
                 (A) (A) (A) (A) (A) (A) (A) (A) (A) (A) (A) (A)
                 (A) (A) (A) (A) (A) (A) (A) (A) (A) (A) (A) (A)
                 (A) (A) (A) (A) (A) (A) (A) (A) (A) (A) (A) (A)
                 (A) (A) (A) (A) (A) (A) (A) (A) (A) (A) (A) (A)
                 (A) (A) (A) (A) (A) (A) (A) (A) (A) (A) (A) (A)
                 (A) (A) (A) (A) (A) (A) (A) (A) (A) (A) (A) (A)
                 (A) (A) (A) (A) (A) (A) (A) (A) (A) (A) (A) (A)
                 (A) (A) (A) (A) (A) (A) (A) (A) (A) (A) (A) (A)
                 (A) (A) (A) (A) (A) (A) (A) (A) (A) (A) (A) (A)
                 (A) (A) (A) (A) (A) (A) (A) (A) (A) (A) (A) (A)
                 (A) (A) (A) (A) (A) (A) (A) (A) (A) (A) (A) (A)
                 (A) (A) (A) (A) (A) (A) (A) (A) (A) (A) (A) (A)
                 (A) (A) (A) (A) (A) (A) (A) (A) (A) (A) (A) (A)
                 (A) (A) (A) (A) (A) (A)
 The electronic state is 1-A.
 Alpha  occ. eigenvalues --  -19.70091 -19.68838 -19.67166 -19.65189 -14.94664
 Alpha  occ. eigenvalues --  -14.91078 -14.86492 -10.79717 -10.64706 -10.62875
 Alpha  occ. eigenvalues --   -1.29586  -1.15580  -1.13190  -1.08690  -1.08102
 Alpha  occ. eigenvalues --   -1.04642  -0.96067  -0.80586  -0.77487  -0.71191
 Alpha  occ. eigenvalues --   -0.64180  -0.62275  -0.61433  -0.58828  -0.57303
 Alpha  occ. eigenvalues --   -0.56615  -0.52121  -0.50145  -0.48934  -0.48247
 Alpha  occ. eigenvalues --   -0.44788  -0.44206  -0.42835  -0.41799  -0.40049
 Alpha  occ. eigenvalues --   -0.38772  -0.37307  -0.35494  -0.34169
 Alpha virt. eigenvalues --   -0.07653  -0.02991   0.00379   0.00666   0.01779
 Alpha virt. eigenvalues --    0.02944   0.03382   0.03995   0.04373   0.05482
 Alpha virt. eigenvalues --    0.07315   0.08052   0.09059   0.09723   0.10692
 Alpha virt. eigenvalues --    0.10965   0.12361   0.13985   0.14018   0.14371
 Alpha virt. eigenvalues --    0.15811   0.16222   0.17439   0.17952   0.18615
 Alpha virt. eigenvalues --    0.19847   0.20360   0.20892   0.20978   0.21216
 Alpha virt. eigenvalues --    0.22049   0.22759   0.23773   0.24373   0.25093
 Alpha virt. eigenvalues --    0.25807   0.26431   0.27105   0.27466   0.28245
 Alpha virt. eigenvalues --    0.29541   0.30039   0.30702   0.30976   0.33554
 Alpha virt. eigenvalues --    0.34407   0.35102   0.35466   0.36376   0.38026
 Alpha virt. eigenvalues --    0.39333   0.39562   0.41300   0.42806   0.43652
 Alpha virt. eigenvalues --    0.47184   0.48498   0.52395   0.68224   0.69943
 Alpha virt. eigenvalues --    0.72835   0.75616   0.77445   0.79653   0.84182
 Alpha virt. eigenvalues --    0.89796   0.89915   0.91587   0.92681   0.93546
 Alpha virt. eigenvalues --    0.94931   0.97837   0.98987   1.00895   1.01700
 Alpha virt. eigenvalues --    1.03467   1.07146   1.08630   1.13180   1.14677
 Alpha virt. eigenvalues --    1.16979   1.18743   1.19863   1.20579   1.21809
 Alpha virt. eigenvalues --    1.22298   1.23673   1.24716   1.24785   1.26512
 Alpha virt. eigenvalues --    1.27263   1.29682   1.30864   1.31855   1.32097
 Alpha virt. eigenvalues --    1.32517   1.34642   1.35289   1.36345   1.36816
 Alpha virt. eigenvalues --    1.44097   1.44978   1.46565   1.48429   1.50600
 Alpha virt. eigenvalues --    1.50931   1.51990   1.52606   1.55946   1.57548
 Alpha virt. eigenvalues --    1.59054   1.60678   1.61751   1.64299   1.67210
 Alpha virt. eigenvalues --    1.68498   1.73716   1.77644   1.78282   1.81406
 Alpha virt. eigenvalues --    1.82635   1.87823   1.88132   1.90148   1.90794
 Alpha virt. eigenvalues --    1.94859   2.00184   2.04024   2.06974   2.10242
 Alpha virt. eigenvalues --    2.11961   2.14093   2.18276   2.18944   2.19391
 Alpha virt. eigenvalues --    2.21694   2.23186   2.24076   2.26666   2.28924
 Alpha virt. eigenvalues --    2.29268   2.31885   2.33627   2.34449   2.37862
 Alpha virt. eigenvalues --    2.38891   2.40560   2.44074   2.47560   2.49803
 Alpha virt. eigenvalues --    2.50434   2.50968   2.52903   2.56793   2.58396
 Alpha virt. eigenvalues --    2.65215   2.68171   2.68975   2.71576   2.73485
 Alpha virt. eigenvalues --    2.73769   2.77037   2.78551   2.81756   2.89202
 Alpha virt. eigenvalues --    2.95230   3.00325   3.09317   3.18678   3.23010
 Alpha virt. eigenvalues --    3.27951   3.32214   3.47973   3.49762   3.59543
 Alpha virt. eigenvalues --    3.68330   3.98341   4.12771   4.17234   4.22127
 Alpha virt. eigenvalues --    4.24559   4.33130   4.38507   4.40805   4.47210
 Alpha virt. eigenvalues --    4.64662
          Condensed to atoms (all electrons):
               1          2          3          4          5          6
     1  N    8.330070  -0.547316  -0.545993   0.572331  -0.543105   0.003121
     2  N   -0.547316   7.322300   0.264275  -0.185378   0.276426  -0.048659
     3  C   -0.545993   0.264275   6.616929  -0.839400   0.279018   0.418162
     4  C    0.572331  -0.185378  -0.839400   6.505496  -0.128343  -0.030898
     5  N   -0.543105   0.276426   0.279018  -0.128343   7.144520  -0.006961
     6  H    0.003121  -0.048659   0.418162  -0.030898  -0.006961   0.412184
     7  H    0.034550  -0.026950   0.007956   0.373586  -0.059121   0.000279
     8  H    0.078420   0.012192   0.016371  -0.008384   0.016392  -0.000014
     9  C   -0.057724   0.001572  -0.174087  -0.030951   0.071755   0.001928
    10  O   -0.010502  -0.022226  -0.047258   0.044531  -0.000825   0.001934
    11  O   -0.036240  -0.031686   0.019668   0.000916   0.005201   0.000099
    12  H    0.002784  -0.000747   0.001413  -0.001159   0.002607  -0.000000
    13  O   -0.043839  -0.003268   0.007722  -0.005228   0.007354   0.000035
    14  H    0.006031   0.002094  -0.000653   0.000695  -0.005364  -0.000000
    15  H   -0.001995   0.007110   0.007511  -0.004734   0.003703  -0.000006
    16  O    0.005722  -0.002128   0.005354  -0.004002   0.004757   0.000002
    17  H   -0.000447   0.000080  -0.000122   0.000147  -0.000192  -0.000000
               7          8          9         10         11         12
     1  N    0.034550   0.078420  -0.057724  -0.010502  -0.036240   0.002784
     2  N   -0.026950   0.012192   0.001572  -0.022226  -0.031686  -0.000747
     3  C    0.007956   0.016371  -0.174087  -0.047258   0.019668   0.001413
     4  C    0.373586  -0.008384  -0.030951   0.044531   0.000916  -0.001159
     5  N   -0.059121   0.016392   0.071755  -0.000825   0.005201   0.002607
     6  H    0.000279  -0.000014   0.001928   0.001934   0.000099  -0.000000
     7  H    0.468210  -0.000004  -0.000828  -0.000077   0.000001  -0.000000
     8  H   -0.000004   0.240301  -0.002982   0.000073   0.000106  -0.002920
     9  C   -0.000828  -0.002982   4.995498   0.443859   0.282329  -0.001599
    10  O   -0.000077   0.000073   0.443859   8.097693  -0.145468   0.000014
    11  O    0.000001   0.000106   0.282329  -0.145468   8.285660   0.001706
    12  H   -0.000000  -0.002920  -0.001599   0.000014   0.001706   0.244363
    13  O    0.000030   0.137342  -0.010234   0.000066  -0.001320   0.118927
    14  H   -0.000000  -0.008306   0.000235  -0.000001   0.000000  -0.008212
    15  H    0.000000  -0.000143   0.002409   0.004123   0.115128  -0.004202
    16  O    0.000000   0.002073  -0.007427  -0.002490  -0.045559   0.144763
    17  H   -0.000000  -0.000021   0.000346   0.000045   0.002152  -0.009601
              13         14         15         16         17
     1  N   -0.043839   0.006031  -0.001995   0.005722  -0.000447
     2  N   -0.003268   0.002094   0.007110  -0.002128   0.000080
     3  C    0.007722  -0.000653   0.007511   0.005354  -0.000122
     4  C   -0.005228   0.000695  -0.004734  -0.004002   0.000147
     5  N    0.007354  -0.005364   0.003703   0.004757  -0.000192
     6  H    0.000035  -0.000000  -0.000006   0.000002  -0.000000
     7  H    0.000030  -0.000000   0.000000   0.000000  -0.000000
     8  H    0.137342  -0.008306  -0.000143   0.002073  -0.000021
     9  C   -0.010234   0.000235   0.002409  -0.007427   0.000346
    10  O    0.000066  -0.000001   0.004123  -0.002490   0.000045
    11  O   -0.001320   0.000000   0.115128  -0.045559   0.002152
    12  H    0.118927  -0.008212  -0.004202   0.144763  -0.009601
    13  O    8.430051   0.279494   0.001504  -0.084446   0.005140
    14  H    0.279494   0.326649  -0.000011   0.004435  -0.000072
    15  H    0.001504  -0.000011   0.331773   0.106333  -0.007318
    16  O   -0.084446   0.004435   0.106333   8.514723   0.277223
    17  H    0.005140  -0.000072  -0.007318   0.277223   0.340555
 Mulliken charges:
               1
     1  N   -0.245866
     2  N   -0.017691
     3  C   -0.036867
     4  C   -0.259226
     5  N   -0.067821
     6  H    0.248795
     7  H    0.202367
     8  H    0.519504
     9  C    0.485900
    10  O   -0.363492
    11  O   -0.452693
    12  H    0.511862
    13  O   -0.839329
    14  H    0.402986
    15  H    0.438816
    16  O   -0.919331
    17  H    0.392085
 Sum of Mulliken charges =  -0.00000
 Mulliken charges with hydrogens summed into heavy atoms:
               1
     1  N   -0.245866
     2  N   -0.017691
     3  C    0.211929
     4  C   -0.056859
     5  N   -0.067821
     9  C    0.485900
    10  O   -0.363492
    11  O   -0.013876
    13  O    0.595022
    16  O   -0.527246
 APT charges:
               1
     1  N   -0.417361
     2  N   -0.504102
     3  C   -0.549971
     4  C   -0.408277
     5  N    0.098186
     6  H    0.616827
     7  H    0.913628
     8  H    0.406999
     9  C   -0.286814
    10  O    0.069701
    11  O   -0.178381
    12  H    0.427331
    13  O   -1.197441
    14  H    0.925432
    15  H    0.438240
    16  O   -1.236150
    17  H    0.882155
 Sum of APT charges =  -0.00000
 APT charges with hydrogens summed into heavy atoms:
               1
     1  N   -0.417361
     2  N   -0.504102
     3  C    0.066855
     4  C    0.505351
     5  N    0.098186
     9  C   -0.286814
    10  O    0.069701
    11  O    0.259859
    13  O    0.562320
    16  O   -0.353995
 Electronic spatial extent (au):  <R**2>=           1986.0033
 Charge=              0.0000 electrons
 Dipole moment (field-independent basis, Debye):
    X=              2.7026    Y=             -4.1637    Z=              0.0901  Tot=              4.9647
 Quadrupole moment (field-independent basis, Debye-Ang):
   XX=            -49.8969   YY=            -74.0128   ZZ=            -58.8879
   XY=              5.3859   XZ=             -2.7815   YZ=              4.8495
 Traceless Quadrupole moment (field-independent basis, Debye-Ang):
   XX=             11.0356   YY=            -13.0802   ZZ=              2.0446
   XY=              5.3859   XZ=             -2.7815   YZ=              4.8495
 Octapole moment (field-independent basis, Debye-Ang**2):
  XXX=             17.0517  YYY=            -54.0933  ZZZ=             -0.0409  XYY=            -20.6281
  XXY=             -6.9483  XXZ=             21.9296  XZZ=            -15.0629  YZZ=             -3.7440
  YYZ=            -13.2471  XYZ=             -8.5322
 Hexadecapole moment (field-independent basis, Debye-Ang**3):
 XXXX=          -1211.2152 YYYY=          -1083.6599 ZZZZ=            -62.7312 XXXY=              8.4199
 XXXZ=            -95.2853 YYYX=             71.0780 YYYZ=             57.1796 ZZZX=             -6.3301
 ZZZY=              6.6818 XXYY=           -386.7333 XXZZ=           -235.5201 YYZZ=           -167.7532
 XXYZ=             17.3740 YYXZ=             29.5100 ZZXY=             12.0117
 N-N= 5.189011332444D+02 E-N=-2.402123604893D+03  KE= 5.766593518363D+02
  Exact polarizability:   0.000   0.000   0.000   0.000   0.000   0.000
 Approx polarizability: 131.691  -0.091 144.465  -0.602   1.710  61.780
 Calling FoFJK, ICntrl=    100147 FMM=F ISym2X=0 I1Cent= 0 IOpClX= 0 NMat=1 NMatS=1 NMatT=0.
 ***** Axes restored to original set *****
 -------------------------------------------------------------------
 Center     Atomic                   Forces (Hartrees/Bohr)
 Number     Number              X              Y              Z
 -------------------------------------------------------------------
      1        7          -0.080089345   -0.087324486   -0.003523737
      2        7           0.007763826    0.056247396   -0.004576964
      3        6           0.041237876    0.021328783    0.001090376
      4        6          -0.000839632    0.027108145    0.000112342
      5        7          -0.038023927    0.025398602   -0.000505231
      6        1          -0.000850461    0.001678299   -0.000344762
      7        1          -0.000215590    0.003297939    0.000067488
      8        1          -0.024672938   -0.014344065   -0.011089869
      9        6          -0.105445970    0.194985443    0.030753619
     10        8           0.047062917   -0.183429194   -0.011196647
     11        8           0.064082941   -0.135790720   -0.008217660
     12        1          -0.002207551    0.011269975    0.010828025
     13        8           0.003288677    0.064508057    0.017101942
     14        1           0.008128485    0.000927011   -0.004890478
     15        1           0.005385143    0.012271621    0.000181792
     16        8           0.071135759    0.006630701   -0.019707730
     17        1           0.004259790   -0.004763507    0.003917496
 -------------------------------------------------------------------
 Cartesian Forces:  Max     0.194985443 RMS     0.052850060
 FormGI is forming the generalized inverse of G from B-inverse, IUseBI=4.

 GradGradGradGradGradGradGradGradGradGradGradGradGradGradGradGradGradGrad
 Berny optimization.
 Internal  Forces:  Max     0.172327083 RMS     0.036154735
 Search for a saddle point.
 Step number   1 out of a maximum of   89
 All quantities printed in internal units (Hartrees-Bohrs-Radians)
 Swapping is turned off.
 Second derivative matrix not updated -- analytic derivatives used.
 ITU=  0
     Eigenvalues ---   -0.09065  -0.04308  -0.02699  -0.00320  -0.00302
     Eigenvalues ---   -0.00118   0.00016   0.00247   0.00426   0.00796
     Eigenvalues ---    0.01166   0.01287   0.01383   0.02000   0.02399
     Eigenvalues ---    0.02578   0.02881   0.03561   0.03961   0.04155
     Eigenvalues ---    0.04471   0.04690   0.04905   0.05205   0.05456
     Eigenvalues ---    0.06098   0.07802   0.08049   0.08620   0.10477
     Eigenvalues ---    0.10686   0.12021   0.13331   0.23302   0.26585
     Eigenvalues ---    0.36194   0.38526   0.38796   0.41734   0.43875
     Eigenvalues ---    0.51459   0.52629   0.56104   0.56406   0.62516
 Eigenvectors required to have negative eigenvalues:
                          R15       R17       R14       R13       R3
   1                    0.44035  -0.43206  -0.41616   0.39442  -0.33850
                          R10       R12       R5        R11       A22
   1                    0.32222  -0.15128   0.12229   0.08825   0.06583
 RFO step:  Lambda0=4.962837560D-03 Lambda=-2.67659033D-01.
 Linear search not attempted -- option 19 set.
 Maximum step size (   0.300) exceeded in Quadratic search.
    -- Step size scaled by   0.239
 Iteration  1 RMS(Cart)=  0.04311171 RMS(Int)=  0.00063281
 Iteration  2 RMS(Cart)=  0.00092308 RMS(Int)=  0.00015106
 Iteration  3 RMS(Cart)=  0.00000073 RMS(Int)=  0.00015106
 Variable       Old X    -DE/DX   Delta X   Delta X   Delta X     New X
                                 (Linear)    (Quad)   (Total)
    R1        2.49349   0.01961   0.00000   0.00775   0.00768   2.50117
    R2        2.48372  -0.02326   0.00000  -0.00722  -0.00721   2.47651
    R3        2.83242  -0.04014   0.00000   0.08469   0.08463   2.91706
    R4        2.52146   0.02440   0.00000   0.00652   0.00650   2.52795
    R5        3.13545  -0.07268   0.00000  -0.05068  -0.05069   3.08475
    R6        2.64891  -0.02896   0.00000  -0.01094  -0.01094   2.63797
    R7        2.03917   0.00151   0.00000  -0.00018  -0.00018   2.03899
    R8        2.51969   0.02859   0.00000   0.00739   0.00741   2.52711
    R9        2.03834  -0.00029   0.00000  -0.00023  -0.00023   2.03811
   R10        2.48572  -0.06983   0.00000  -0.13927  -0.13932   2.34639
   R11        2.70816  -0.17233   0.00000  -0.08794  -0.08794   2.62022
   R12        2.73379  -0.09810   0.00000  -0.08546  -0.08545   2.64834
   R13        2.65213  -0.06422   0.00000   0.04250   0.04255   2.69468
   R14        2.57418  -0.05915   0.00000  -0.09390  -0.09387   2.48032
   R15        2.64574  -0.06831   0.00000   0.00731   0.00735   2.65309
   R16        1.81691   0.00186   0.00000   0.00116   0.00116   1.81808
   R17        2.88615  -0.05076   0.00000  -0.14867  -0.14862   2.73753
   R18        1.81838   0.00051   0.00000   0.00045   0.00045   1.81882
    A1        2.02211  -0.04631   0.00000  -0.01975  -0.01970   2.00242
    A2        2.12394   0.03478   0.00000   0.02502   0.02483   2.14877
    A3        2.13713   0.01153   0.00000  -0.00524  -0.00514   2.13198
    A4        1.81382   0.03585   0.00000   0.01441   0.01440   1.82823
    A5        2.50801  -0.02595   0.00000  -0.01955  -0.01963   2.48837
    A6        1.95948  -0.00994   0.00000   0.00476   0.00483   1.96431
    A7        1.88507  -0.02101   0.00000  -0.00760  -0.00764   1.87743
    A8        2.11270   0.00935   0.00000   0.00044   0.00046   2.11316
    A9        2.28541   0.01167   0.00000   0.00716   0.00718   2.29259
   A10        1.88941  -0.00059   0.00000  -0.00034  -0.00034   1.88907
   A11        2.27821  -0.00306   0.00000  -0.00084  -0.00084   2.27738
   A12        2.11556   0.00365   0.00000   0.00118   0.00118   2.11674
   A13        1.81436   0.03206   0.00000   0.01328   0.01328   1.82764
   A14        2.20156  -0.08690   0.00000  -0.04610  -0.04609   2.15547
   A15        2.37566  -0.03788   0.00000  -0.02760  -0.02768   2.34798
   A16        1.68650   0.12479   0.00000   0.07538   0.07547   1.76197
   A17        2.06661   0.03290   0.00000   0.03341   0.03345   2.10005
   A18        1.93499  -0.01263   0.00000  -0.01539  -0.01544   1.91955
   A19        2.11573  -0.00248   0.00000  -0.01051  -0.01058   2.10514
   A20        1.90354   0.00885   0.00000   0.01222   0.01223   1.91577
   A21        1.76133   0.00186   0.00000   0.00869   0.00874   1.77006
   A22        2.10474  -0.01037   0.00000   0.00909   0.00929   2.11403
   A23        1.91667   0.00254   0.00000  -0.00208  -0.00243   1.91424
   A24        3.03093   0.00022   0.00000  -0.00129  -0.00148   3.02945
   A25        2.97738  -0.01058   0.00000  -0.00844  -0.00845   2.96893
   A26        3.18581   0.01767   0.00000   0.00541   0.00554   3.19136
   A27        3.10608   0.00292   0.00000   0.01363   0.01330   3.11938
   A28        3.17398  -0.00089   0.00000  -0.00590  -0.00626   3.16772
   A29        3.13920  -0.00159   0.00000   0.00698   0.00706   3.14626
    D1       -0.00183   0.00125   0.00000   0.00168   0.00170  -0.00012
    D2        3.06211   0.00141   0.00000  -0.00520  -0.00511   3.05700
    D3       -3.13990   0.00167   0.00000  -0.00813  -0.00829   3.13499
    D4       -0.07597   0.00182   0.00000  -0.01502  -0.01510  -0.09107
    D5        0.00177  -0.00072   0.00000  -0.00122  -0.00123   0.00054
    D6        3.13981  -0.00110   0.00000   0.00874   0.00873  -3.13465
    D7       -0.11089   0.00155   0.00000   0.00072   0.00060  -0.11029
    D8        2.10927   0.00014   0.00000  -0.00453  -0.00463   2.10463
    D9        3.05381   0.00112   0.00000  -0.01807  -0.01803   3.03578
   D10       -1.00922  -0.00029   0.00000  -0.02332  -0.02326  -1.03248
   D11        0.00108  -0.00119   0.00000  -0.00137  -0.00141  -0.00033
   D12        3.14111  -0.00079   0.00000  -0.00218  -0.00220   3.13890
   D13       -3.09086   0.00026   0.00000   0.00444   0.00448  -3.08638
   D14        0.04917   0.00067   0.00000   0.00364   0.00369   0.05286
   D15       -3.13635   0.00933   0.00000   0.02051   0.02027  -3.11608
   D16        0.26869  -0.00643   0.00000  -0.00050  -0.00053   0.26816
   D17       -0.07622   0.01055   0.00000   0.01342   0.01328  -0.06294
   D18       -2.95437  -0.00521   0.00000  -0.00759  -0.00752  -2.96189
   D19       -0.00010   0.00087   0.00000   0.00075   0.00077   0.00067
   D20        3.14105   0.00041   0.00000   0.00038   0.00039   3.14144
   D21       -3.13992   0.00042   0.00000   0.00167   0.00169  -3.13823
   D22        0.00123  -0.00004   0.00000   0.00130   0.00130   0.00253
   D23       -0.00093  -0.00016   0.00000   0.00022   0.00022  -0.00071
   D24        3.14106   0.00026   0.00000   0.00055   0.00056  -3.14157
   D25       -0.17592  -0.00101   0.00000   0.03365   0.03334  -0.14257
   D26       -3.10418   0.00322   0.00000   0.02596   0.02553  -3.07865
   D27       -0.04803   0.00516   0.00000  -0.02734  -0.02797  -0.07600
   D28        2.19842  -0.00225   0.00000  -0.01000  -0.01034   2.18808
   D29        0.14018  -0.00582   0.00000   0.00250   0.00213   0.14231
   D30       -1.92003  -0.00279   0.00000  -0.00539  -0.00576  -1.92579
   D31       -2.21660   0.00356   0.00000   0.02420   0.02416  -2.19244
   D32        2.00638   0.00660   0.00000   0.01631   0.01627   2.02265
         Item               Value     Threshold  Converged?
 Maximum Force            0.172327     0.000450     NO 
 RMS     Force            0.036155     0.000300     NO 
 Maximum Displacement     0.131953     0.001800     NO 
 RMS     Displacement     0.043038     0.001200     NO 
 Predicted change in Energy=-6.320719D-02
 GradGradGradGradGradGradGradGradGradGradGradGradGradGradGradGradGradGrad

                          Input orientation:                          
 ---------------------------------------------------------------------
 Center     Atomic      Atomic             Coordinates (Angstroms)
 Number     Number       Type             X           Y           Z
 ---------------------------------------------------------------------
      1          7           0        1.002415   -1.073334   -0.004152
      2          7           0        0.858467    0.242374   -0.007477
      3          6           0        2.106163    0.721638    0.048203
      4          6           0        2.975615   -0.369891    0.084225
      5          7           0        2.244168   -1.488858    0.049097
      6          1           0        2.294862    1.783968    0.056373
      7          1           0        4.052502   -0.406050    0.131279
      8          1           0       -0.190208   -2.052298   -0.050009
      9          6           0       -0.260580    1.423680   -0.137553
     10          8           0        0.047105    2.775433   -0.112218
     11          8           0       -1.658587    1.467106   -0.049658
     12          1           0       -2.279644   -1.943403   -0.024224
     13          8           0       -1.230569   -2.726937   -0.115007
     14          1           0       -1.359224   -3.361779   -0.826364
     15          1           0       -2.412499    0.259701    0.034959
     16          8           0       -3.238774   -0.927537    0.114228
     17          1           0       -3.802743   -0.878521    0.892627
 ---------------------------------------------------------------------
                    Distance matrix (angstroms):
                    1          2          3          4          5
     1  N    0.000000
     2  N    1.323563   0.000000
     3  C    2.107825   1.337736   0.000000
     4  C    2.096702   2.205809   1.395952   0.000000
     5  N    1.310513   2.218227   2.214801   1.337287   0.000000
     6  H    3.136599   2.108036   1.078990   2.259051   3.273227
     7  H    3.125163   3.262142   2.250960   1.078521   2.109337
     8  H    1.543640   2.523301   3.602456   3.587610   2.500694
     9  C    2.801434   1.632382   2.475649   3.706621   3.845969
    10  O    3.967027   2.661892   2.912649   4.302072   4.799718
    11  O    3.679244   2.799519   3.839093   4.986813   4.896832
    12  H    3.395487   3.824349   5.132542   5.486843   4.547181
    13  O    2.780811   3.632140   4.801363   4.825696   3.692365
    14  H    3.389742   4.310295   5.426607   5.345221   4.154358
    15  H    3.666081   3.271288   4.542231   5.424997   4.974154
    16  O    4.245345   4.262732   5.593968   6.239431   5.511984
    17  H    4.892004   4.877855   6.179702   6.845316   6.135892
                    6          7          8          9         10
     6  H    0.000000
     7  H    2.809109   0.000000
     8  H    4.572070   4.554513   0.000000
     9  C    2.587991   4.692852   3.477792   0.000000
    10  O    2.462486   5.120971   4.833961   1.386560   0.000000
    11  O    3.967543   6.013152   3.813442   1.401440   2.150586
    12  H    5.901347   6.517953   2.092430   3.927685   5.262026
    13  O    5.727678   5.775640   1.241658   4.262512   5.648765
    14  H    6.372619   6.240208   1.919392   4.958033   6.336650
    15  H    4.948039   6.499904   3.207981   2.452624   3.521395
    16  O    6.162526   7.309921   3.253585   3.802795   4.955831
    17  H    6.705889   7.906184   3.913658   4.348369   5.402076
                   11         12         13         14         15
    11  O    0.000000
    12  H    3.466689   0.000000
    13  O    4.216334   1.312526   0.000000
    14  H    4.900104   1.871468   0.962084   0.000000
    15  H    1.425963   2.207900   3.215503   3.868641   0.000000
    16  O    2.873702   1.403953   2.706155   3.216046   1.448637
    17  H    3.314705   2.072298   3.323860   3.884879   1.990960
                   16         17
    16  O    0.000000
    17  H    0.962480   0.000000
 Stoichiometry    C3H7N3O4
 Framework group  C1[X(C3H7N3O4)]
 Deg. of freedom    45
 Full point group                 C1      NOp   1
 Largest Abelian subgroup         C1      NOp   1
 Largest concise Abelian subgroup C1      NOp   1
                         Standard orientation:                         
 ---------------------------------------------------------------------
 Center     Atomic      Atomic             Coordinates (Angstroms)
 Number     Number       Type             X           Y           Z
 ---------------------------------------------------------------------
      1          7           0        0.720183   -1.144349    0.001196
      2          7           0        0.841915    0.173601    0.004176
      3          6           0        2.160202    0.393744    0.060690
      4          6           0        2.794137   -0.849602    0.090637
      5          7           0        1.853935   -1.799758    0.051107
      6          1           0        2.557274    1.396932    0.073609
      7          1           0        3.842113   -1.100336    0.136310
      8          1           0       -0.643942   -1.865165   -0.047891
      9          6           0       -0.018672    1.555215   -0.119123
     10          8           0        0.552797    2.818145   -0.087823
     11          8           0       -1.379824    1.876556   -0.029454
     12          1           0       -2.669527   -1.341284   -0.019247
     13          8           0       -1.798095   -2.318110   -0.114868
     14          1           0       -2.051072   -2.911044   -0.829037
     15          1           0       -2.359681    0.843658    0.050372
     16          8           0       -3.406415   -0.155002    0.125025
     17          1           0       -3.949099    0.001926    0.904278
 ---------------------------------------------------------------------
 Rotational constants (GHZ):           1.2859527           0.9272366           0.5416207
 Standard basis: 6-31+G(d,p) (6D, 7F)
 There are   225 symmetry adapted cartesian basis functions of A   symmetry.
 There are   225 symmetry adapted basis functions of A   symmetry.
   225 basis functions,   369 primitive gaussians,   225 cartesian basis functions
    39 alpha electrons       39 beta electrons
       nuclear repulsion energy       524.7415754860 Hartrees.
 NAtoms=   17 NActive=   17 NUniq=   17 SFac= 1.00D+00 NAtFMM=   60 NAOKFM=F Big=F
 Integral buffers will be    131072 words long.
 Raffenetti 2 integral format.
 Two-electron integral symmetry is turned on.
 One-electron integrals computed using PRISM.
 NBasis=   225 RedAO= T EigKep=  2.48D-05  NBF=   225
 NBsUse=   225 1.00D-06 EigRej= -1.00D+00 NBFU=   225
 Initial guess from the checkpoint file:  "/scratch/gongke2021/TS/Gau-29950.chk"
 B after Tr=    -0.000000    0.000000   -0.000000
         Rot=    0.999780    0.000333   -0.000159    0.020973 Ang=   2.40 deg.
 ExpMin= 4.38D-02 ExpMax= 5.48D+03 ExpMxC= 8.25D+02 IAcc=2 IRadAn=         4 AccDes= 0.00D+00
 Harris functional with IExCor= 1009 and IRadAn=       4 diagonalized for initial guess.
 HarFok:  IExCor= 1009 AccDes= 0.00D+00 IRadAn=         4 IDoV= 1 UseB2=F ITyADJ=14
 ICtDFT=  3500011 ScaDFX=  1.000000  1.000000  1.000000  1.000000
 FoFCou: FMM=F IPFlag=           0 FMFlag=      100000 FMFlg1=           0
         NFxFlg=           0 DoJE=T BraDBF=F KetDBF=T FulRan=T
         wScrn=  0.000000 ICntrl=       500 IOpCl=  0 I1Cent=   200000004 NGrid=           0
         NMat0=    1 NMatS0=      1 NMatT0=    0 NMatD0=    1 NMtDS0=    0 NMtDT0=    0
 Petite list used in FoFCou.
 Requested convergence on RMS density matrix=1.00D-08 within 128 cycles.
 Requested convergence on MAX density matrix=1.00D-06.
 Requested convergence on             energy=1.00D-06.
 No special actions if energy rises.
 SCF Done:  E(RM062X) =  -583.260500939     A.U. after   15 cycles
            NFock= 15  Conv=0.69D-08     -V/T= 2.0110
 Calling FoFJK, ICntrl=      2127 FMM=F ISym2X=0 I1Cent= 0 IOpClX= 0 NMat=1 NMatS=1 NMatT=0.
 ***** Axes restored to original set *****
 -------------------------------------------------------------------
 Center     Atomic                   Forces (Hartrees/Bohr)
 Number     Number              X              Y              Z
 -------------------------------------------------------------------
      1        7          -0.069352370   -0.072407023   -0.004206272
      2        7           0.007140294    0.052476295   -0.004810363
      3        6           0.035614380    0.016901779    0.001422350
      4        6          -0.001001519    0.022229830    0.000274172
      5        7          -0.032210606    0.021917273   -0.000344852
      6        1          -0.001195582    0.001244639   -0.000363878
      7        1          -0.000187956    0.002748464    0.000103015
      8        1          -0.027793436   -0.016890282   -0.010505385
      9        6          -0.091666884    0.182250449    0.029426107
     10        8           0.037464137   -0.170183104   -0.010678481
     11        8           0.059620026   -0.123596571   -0.006464513
     12        1           0.000967935    0.008988894    0.009624411
     13        8           0.002648516    0.062217387    0.016798799
     14        1           0.008326506    0.001285526   -0.004748638
     15        1          -0.001924909    0.002397368    0.000203973
     16        8           0.069745678    0.012340551   -0.019234925
     17        1           0.003805791   -0.003921474    0.003504480
 -------------------------------------------------------------------
 Cartesian Forces:  Max     0.182250449 RMS     0.048375375

 GradGradGradGradGradGradGradGradGradGradGradGradGradGradGradGradGradGrad
 Berny optimization.
 FormGI is forming the generalized inverse of G from B-inverse, IUseBI=4.
 Internal  Forces:  Max     0.157792919 RMS     0.033005821
 Search for a saddle point.
 Step number   2 out of a maximum of   89
 All quantities printed in internal units (Hartrees-Bohrs-Radians)
 Swapping is turned off.
 Update second derivatives using D2CorX and points    1    2
 ITU=  0  0
     Eigenvalues ---   -0.09154  -0.04501  -0.02604  -0.00366  -0.00302
     Eigenvalues ---   -0.00120   0.00016   0.00248   0.00510   0.00796
     Eigenvalues ---    0.01166   0.01286   0.01382   0.02005   0.02454
     Eigenvalues ---    0.02578   0.02914   0.03558   0.03960   0.04154
     Eigenvalues ---    0.04472   0.04692   0.04909   0.05215   0.05467
     Eigenvalues ---    0.06098   0.07820   0.08294   0.08617   0.10487
     Eigenvalues ---    0.10697   0.12021   0.14836   0.23319   0.26598
     Eigenvalues ---    0.36193   0.38526   0.38796   0.41735   0.43905
     Eigenvalues ---    0.51699   0.52628   0.56104   0.56406   0.62512
 Eigenvectors required to have negative eigenvalues:
                          R17       R15       R14       R13       R3
   1                   -0.45502   0.43816  -0.41862   0.40753  -0.31200
                          R10       R12       R5        R11       A22
   1                    0.29819  -0.15532   0.11859   0.09159   0.06738
 RFO step:  Lambda0=1.947416879D-03 Lambda=-2.35950551D-01.
 Linear search not attempted -- option 19 set.
 Maximum step size (   0.300) exceeded in Quadratic search.
    -- Step size scaled by   0.244
 Iteration  1 RMS(Cart)=  0.03799308 RMS(Int)=  0.00071501
 Iteration  2 RMS(Cart)=  0.00102665 RMS(Int)=  0.00011183
 Iteration  3 RMS(Cart)=  0.00000101 RMS(Int)=  0.00011183
 Iteration  4 RMS(Cart)=  0.00000000 RMS(Int)=  0.00011183
 Variable       Old X    -DE/DX   Delta X   Delta X   Delta X     New X
                                 (Linear)    (Quad)   (Total)
    R1        2.50117   0.01686   0.00000   0.00556   0.00548   2.50665
    R2        2.47651  -0.01970   0.00000  -0.00623  -0.00623   2.47028
    R3        2.91706  -0.03350   0.00000  -0.00723  -0.00729   2.90977
    R4        2.52795   0.02026   0.00000   0.00438   0.00436   2.53232
    R5        3.08475  -0.06523   0.00000  -0.02425  -0.02428   3.06048
    R6        2.63797  -0.02448   0.00000  -0.00794  -0.00793   2.63004
    R7        2.03899   0.00101   0.00000  -0.00035  -0.00035   2.03864
    R8        2.52711   0.02356   0.00000   0.00547   0.00550   2.53260
    R9        2.03811  -0.00028   0.00000  -0.00021  -0.00021   2.03790
   R10        2.34639  -0.06711   0.00000  -0.06197  -0.06203   2.28437
   R11        2.62022  -0.15779   0.00000  -0.09067  -0.09067   2.52954
   R12        2.64834  -0.08717   0.00000  -0.08158  -0.08155   2.56679
   R13        2.69468  -0.05665   0.00000   0.07182   0.07189   2.76657
   R14        2.48032  -0.05700   0.00000   0.03277   0.03279   2.51310
   R15        2.65309  -0.06232   0.00000  -0.12615  -0.12613   2.52696
   R16        1.81808   0.00155   0.00000   0.00011   0.00011   1.81819
   R17        2.73753  -0.05544   0.00000  -0.18878  -0.18872   2.54881
   R18        1.81882   0.00041   0.00000   0.00123   0.00123   1.82006
    A1        2.00242  -0.03932   0.00000  -0.01437  -0.01434   1.98808
    A2        2.14877   0.03109   0.00000   0.01421   0.01399   2.16276
    A3        2.13198   0.00823   0.00000   0.00023   0.00035   2.13233
    A4        1.82823   0.03023   0.00000   0.01101   0.01103   1.83925
    A5        2.48837  -0.02429   0.00000  -0.01536  -0.01552   2.47286
    A6        1.96431  -0.00597   0.00000   0.00479   0.00492   1.96923
    A7        1.87743  -0.01789   0.00000  -0.00634  -0.00638   1.87106
    A8        2.11316   0.00751   0.00000   0.00027   0.00029   2.11345
    A9        2.29259   0.01038   0.00000   0.00607   0.00609   2.29868
   A10        1.88907  -0.00042   0.00000   0.00014   0.00014   1.88921
   A11        2.27738  -0.00258   0.00000  -0.00087  -0.00087   2.27650
   A12        2.11674   0.00301   0.00000   0.00074   0.00073   2.11748
   A13        1.82764   0.02740   0.00000   0.00956   0.00955   1.83719
   A14        2.15547  -0.07830   0.00000  -0.04828  -0.04825   2.10722
   A15        2.34798  -0.03585   0.00000  -0.02993  -0.02992   2.31807
   A16        1.76197   0.11448   0.00000   0.07845   0.07846   1.84042
   A17        2.10005   0.03231   0.00000   0.04012   0.04021   2.14027
   A18        1.91955  -0.01190   0.00000  -0.00640  -0.00660   1.91295
   A19        2.10514  -0.00278   0.00000  -0.01307  -0.01295   2.09219
   A20        1.91577   0.00856   0.00000   0.00703   0.00697   1.92274
   A21        1.77006   0.00221   0.00000   0.00239   0.00249   1.77255
   A22        2.11403  -0.00895   0.00000  -0.01767  -0.01789   2.09614
   A23        1.91424   0.00186   0.00000  -0.00227  -0.00224   1.91200
   A24        3.02945   0.00033   0.00000  -0.00464  -0.00492   3.02452
   A25        2.96893  -0.00984   0.00000   0.00014   0.00015   2.96908
   A26        3.19136   0.01655   0.00000   0.00212   0.00221   3.19356
   A27        3.11938   0.00261   0.00000  -0.00585  -0.00551   3.11386
   A28        3.16772  -0.00141   0.00000   0.00421   0.00457   3.17229
   A29        3.14626  -0.00106   0.00000  -0.00310  -0.00302   3.14324
    D1       -0.00012   0.00109   0.00000  -0.00005  -0.00009  -0.00021
    D2        3.05700   0.00134   0.00000   0.00902   0.00892   3.06592
    D3        3.13499   0.00147   0.00000   0.01170   0.01171  -3.13648
    D4       -0.09107   0.00172   0.00000   0.02078   0.02072  -0.07035
    D5        0.00054  -0.00058   0.00000   0.00033   0.00034   0.00087
    D6       -3.13465  -0.00105   0.00000  -0.01136  -0.01129   3.13725
    D7       -0.11029   0.00166   0.00000   0.00492   0.00487  -0.10543
    D8        2.10463   0.00044   0.00000  -0.00604  -0.00594   2.09869
    D9        3.03578   0.00075   0.00000   0.02051   0.02037   3.05615
   D10       -1.03248  -0.00047   0.00000   0.00954   0.00956  -1.02292
   D11       -0.00033  -0.00111   0.00000  -0.00023  -0.00020  -0.00053
   D12        3.13890  -0.00077   0.00000   0.00127   0.00129   3.14019
   D13       -3.08638   0.00035   0.00000  -0.00497  -0.00501  -3.09139
   D14        0.05286   0.00069   0.00000  -0.00347  -0.00352   0.04933
   D15       -3.11608   0.00906   0.00000  -0.00286  -0.00278  -3.11886
   D16        0.26816  -0.00661   0.00000  -0.01397  -0.01403   0.25412
   D17       -0.06294   0.01025   0.00000   0.00672   0.00673  -0.05621
   D18       -2.96189  -0.00542   0.00000  -0.00438  -0.00452  -2.96642
   D19        0.00067   0.00082   0.00000   0.00044   0.00040   0.00107
   D20        3.14144   0.00037   0.00000   0.00034   0.00033  -3.14142
   D21       -3.13823   0.00044   0.00000  -0.00126  -0.00129  -3.13952
   D22        0.00253  -0.00001   0.00000  -0.00136  -0.00136   0.00117
   D23       -0.00071  -0.00019   0.00000  -0.00046  -0.00045  -0.00116
   D24       -3.14157   0.00022   0.00000  -0.00037  -0.00038   3.14123
   D25       -0.14257  -0.00038   0.00000  -0.02784  -0.02771  -0.17028
   D26       -3.07865   0.00185   0.00000  -0.02737  -0.02727  -3.10592
   D27       -0.07600   0.00387   0.00000   0.03460   0.03493  -0.04107
   D28        2.18808  -0.00199   0.00000   0.01375   0.01399   2.20207
   D29        0.14231  -0.00579   0.00000  -0.01503  -0.01477   0.12753
   D30       -1.92579  -0.00306   0.00000  -0.00309  -0.00297  -1.92876
   D31       -2.19244   0.00380   0.00000   0.00152   0.00167  -2.19077
   D32        2.02265   0.00653   0.00000   0.01346   0.01347   2.03612
         Item               Value     Threshold  Converged?
 Maximum Force            0.157793     0.000450     NO 
 RMS     Force            0.033006     0.000300     NO 
 Maximum Displacement     0.145437     0.001800     NO 
 RMS     Displacement     0.037950     0.001200     NO 
 Predicted change in Energy=-5.727911D-02
 GradGradGradGradGradGradGradGradGradGradGradGradGradGradGradGradGradGrad

                          Input orientation:                          
 ---------------------------------------------------------------------
 Center     Atomic      Atomic             Coordinates (Angstroms)
 Number     Number       Type             X           Y           Z
 ---------------------------------------------------------------------
      1          7           0        0.972244   -1.066394    0.009056
      2          7           0        0.844195    0.253818   -0.002765
      3          6           0        2.095020    0.732645    0.040604
      4          6           0        2.953720   -0.361961    0.078754
      5          7           0        2.212055   -1.478010    0.056570
      6          1           0        2.285368    1.794523    0.040577
      7          1           0        4.030517   -0.405129    0.118912
      8          1           0       -0.215509   -2.045252   -0.035839
      9          6           0       -0.271582    1.421206   -0.125796
     10          8           0        0.083812    2.711642   -0.109708
     11          8           0       -1.626181    1.417719   -0.025855
     12          1           0       -2.285657   -1.893401   -0.030222
     13          8           0       -1.230071   -2.698866   -0.104647
     14          1           0       -1.345168   -3.331160   -0.820660
     15          1           0       -2.409986    0.182739    0.035640
     16          8           0       -3.190328   -0.916033    0.089965
     17          1           0       -3.753979   -0.872794    0.869743
 ---------------------------------------------------------------------
                    Distance matrix (angstroms):
                    1          2          3          4          5
     1  N    0.000000
     2  N    1.326461   0.000000
     3  C    2.120888   1.340044   0.000000
     4  C    2.104123   2.199074   1.391756   0.000000
     5  N    1.307217   2.207666   2.213808   1.340196   0.000000
     6  H    3.148037   2.110125   1.078803   2.258003   3.273393
     7  H    3.130875   3.256020   2.246511   1.078410   2.112289
     8  H    1.539784   2.531757   3.614015   3.590350   2.494668
     9  C    2.784501   1.619534   2.470347   3.691084   3.821931
    10  O    3.882908   2.574979   2.825593   4.209385   4.702153
    11  O    3.594976   2.730926   3.784320   4.914641   4.808752
    12  H    3.361458   3.795692   5.107981   5.459694   4.517686
    13  O    2.743735   3.609890   4.780439   4.795714   3.655778
    14  H    3.344845   4.279525   5.393624   5.301465   4.105792
    15  H    3.605624   3.255184   4.538448   5.391466   4.911394
    16  O    4.166072   4.201729   5.536739   6.168991   5.431636
    17  H    4.807852   4.813910   6.121739   6.773466   6.051536
                    6          7          8          9         10
     6  H    0.000000
     7  H    2.808941   0.000000
     8  H    4.583022   4.554414   0.000000
     9  C    2.589409   4.680112   3.468078   0.000000
    10  O    2.389674   5.034184   4.766874   1.338577   0.000000
    11  O    3.930217   5.944911   3.739287   1.358285   2.146006
    12  H    5.873675   6.490859   2.075717   3.879723   5.179490
    13  O    5.707008   5.743257   1.208835   4.230146   5.567756
    14  H    6.339964   6.192128   1.882985   4.921423   6.250031
    15  H    4.964295   6.467814   3.128065   2.476415   3.554645
    16  O    6.110056   7.238955   3.184417   3.745439   4.890796
    17  H    6.654006   7.834592   3.836080   4.287262   5.341923
                   11         12         13         14         15
    11  O    0.000000
    12  H    3.376159   0.000000
    13  O    4.136349   1.329877   0.000000
    14  H    4.823125   1.891153   0.962142   0.000000
    15  H    1.464004   2.080903   3.116974   3.770222   0.000000
    16  O    2.811827   1.337207   2.656873   3.172805   1.348771
    17  H    3.252087   2.001886   3.264059   3.834501   1.901629
                   16         17
    16  O    0.000000
    17  H    0.963133   0.000000
 Stoichiometry    C3H7N3O4
 Framework group  C1[X(C3H7N3O4)]
 Deg. of freedom    45
 Full point group                 C1      NOp   1
 Largest Abelian subgroup         C1      NOp   1
 Largest concise Abelian subgroup C1      NOp   1
                         Standard orientation:                         
 ---------------------------------------------------------------------
 Center     Atomic      Atomic             Coordinates (Angstroms)
 Number     Number       Type             X           Y           Z
 ---------------------------------------------------------------------
      1          7           0        0.668863   -1.141119    0.011621
      2          7           0        0.832584    0.175183    0.005064
      3          6           0        2.157886    0.368736    0.047841
      4          6           0        2.756494   -0.887292    0.080176
      5          7           0        1.788714   -1.814061    0.055181
      6          1           0        2.575822    1.363288    0.051482
      7          1           0        3.797835   -1.165031    0.118093
      8          1           0       -0.704234   -1.836384   -0.034703
      9          6           0       -0.001055    1.558793   -0.111379
     10          8           0        0.627928    2.740215   -0.091073
     11          8           0       -1.323529    1.851172   -0.008842
     12          1           0       -2.691073   -1.235578   -0.024519
     13          8           0       -1.837238   -2.252049   -0.104039
     14          1           0       -2.088561   -2.840913   -0.822226
     15          1           0       -2.358347    0.817219    0.049471
     16          8           0       -3.360009   -0.084551    0.101125
     17          1           0       -3.899746    0.077668    0.882146
 ---------------------------------------------------------------------
 Rotational constants (GHZ):           1.3304624           0.9473023           0.5560514
 Standard basis: 6-31+G(d,p) (6D, 7F)
 There are   225 symmetry adapted cartesian basis functions of A   symmetry.
 There are   225 symmetry adapted basis functions of A   symmetry.
   225 basis functions,   369 primitive gaussians,   225 cartesian basis functions
    39 alpha electrons       39 beta electrons
       nuclear repulsion energy       530.6143608071 Hartrees.
 NAtoms=   17 NActive=   17 NUniq=   17 SFac= 1.00D+00 NAtFMM=   60 NAOKFM=F Big=F
 Integral buffers will be    131072 words long.
 Raffenetti 2 integral format.
 Two-electron integral symmetry is turned on.
 One-electron integrals computed using PRISM.
 NBasis=   225 RedAO= T EigKep=  2.36D-05  NBF=   225
 NBsUse=   225 1.00D-06 EigRej= -1.00D+00 NBFU=   225
 Initial guess from the checkpoint file:  "/scratch/gongke2021/TS/Gau-29950.chk"
 B after Tr=     0.000000   -0.000000    0.000000
         Rot=    0.999947    0.000124   -0.000095    0.010255 Ang=   1.18 deg.
 ExpMin= 4.38D-02 ExpMax= 5.48D+03 ExpMxC= 8.25D+02 IAcc=2 IRadAn=         4 AccDes= 0.00D+00
 Harris functional with IExCor= 1009 and IRadAn=       4 diagonalized for initial guess.
 HarFok:  IExCor= 1009 AccDes= 0.00D+00 IRadAn=         4 IDoV= 1 UseB2=F ITyADJ=14
 ICtDFT=  3500011 ScaDFX=  1.000000  1.000000  1.000000  1.000000
 FoFCou: FMM=F IPFlag=           0 FMFlag=      100000 FMFlg1=           0
         NFxFlg=           0 DoJE=T BraDBF=F KetDBF=T FulRan=T
         wScrn=  0.000000 ICntrl=       500 IOpCl=  0 I1Cent=   200000004 NGrid=           0
         NMat0=    1 NMatS0=      1 NMatT0=    0 NMatD0=    1 NMtDS0=    0 NMtDT0=    0
 Petite list used in FoFCou.
 Requested convergence on RMS density matrix=1.00D-08 within 128 cycles.
 Requested convergence on MAX density matrix=1.00D-06.
 Requested convergence on             energy=1.00D-06.
 No special actions if energy rises.
 SCF Done:  E(RM062X) =  -583.316796802     A.U. after   15 cycles
            NFock= 15  Conv=0.39D-08     -V/T= 2.0106
 Calling FoFJK, ICntrl=      2127 FMM=F ISym2X=0 I1Cent= 0 IOpClX= 0 NMat=1 NMatS=1 NMatT=0.
 ***** Axes restored to original set *****
 -------------------------------------------------------------------
 Center     Atomic                   Forces (Hartrees/Bohr)
 Number     Number              X              Y              Z
 -------------------------------------------------------------------
      1        7          -0.060733868   -0.059636592   -0.003044475
      2        7           0.006984419    0.046618694   -0.005177334
      3        6           0.030467684    0.013188526    0.001002024
      4        6          -0.000998221    0.017893512    0.000093944
      5        7          -0.026641174    0.018331768   -0.000097247
      6        1          -0.001342364    0.000739830   -0.000389040
      7        1          -0.000163741    0.002258994    0.000085645
      8        1          -0.027368473   -0.016996725   -0.010740112
      9        6          -0.075232220    0.161485959    0.029573615
     10        8           0.031166874   -0.146154625   -0.010700775
     11        8           0.049253868   -0.110985948   -0.008363071
     12        1          -0.001741914    0.010143517    0.009807804
     13        8           0.003179359    0.056658801    0.015184274
     14        1           0.008633202    0.001273969   -0.004124798
     15        1          -0.009184485   -0.007197997    0.000939122
     16        8           0.070198794    0.016028304   -0.017314901
     17        1           0.003522261   -0.003649986    0.003265328
 -------------------------------------------------------------------
 Cartesian Forces:  Max     0.161485959 RMS     0.042567509

 GradGradGradGradGradGradGradGradGradGradGradGradGradGradGradGradGradGrad
 Berny optimization.
 FormGI is forming the generalized inverse of G from B-inverse, IUseBI=4.
 Internal  Forces:  Max     0.132751940 RMS     0.028962047
 Search for a saddle point.
 Step number   3 out of a maximum of   89
 All quantities printed in internal units (Hartrees-Bohrs-Radians)
 Swapping is turned off.
 Update second derivatives using D2CorX and points    1    2    3
 ITU=  0  0  0
     Eigenvalues ---   -0.09330  -0.05463  -0.02635  -0.00394  -0.00310
     Eigenvalues ---   -0.00126   0.00017   0.00249   0.00732   0.00799
     Eigenvalues ---    0.01166   0.01286   0.01381   0.02006   0.02546
     Eigenvalues ---    0.02581   0.03013   0.03590   0.03972   0.04174
     Eigenvalues ---    0.04460   0.04704   0.04910   0.05225   0.05464
     Eigenvalues ---    0.06097   0.07827   0.08250   0.08770   0.10496
     Eigenvalues ---    0.10712   0.12022   0.19042   0.23408   0.26665
     Eigenvalues ---    0.36193   0.38525   0.38797   0.41737   0.43960
     Eigenvalues ---    0.52610   0.52742   0.56104   0.56406   0.62504
 Eigenvectors required to have negative eigenvalues:
                          R17       R13       R15       R14       R3
   1                   -0.51465   0.44799   0.40108  -0.39418  -0.27154
                          R10       R12       R11       R5        A16
   1                    0.25665  -0.16231   0.11620   0.11402   0.06442
 RFO step:  Lambda0=4.342561247D-04 Lambda=-1.88512819D-01.
 Linear search not attempted -- option 19 set.
 Maximum step size (   0.300) exceeded in Quadratic search.
    -- Step size scaled by   0.258
 Iteration  1 RMS(Cart)=  0.04139972 RMS(Int)=  0.00059098
 Iteration  2 RMS(Cart)=  0.00078870 RMS(Int)=  0.00016689
 Iteration  3 RMS(Cart)=  0.00000060 RMS(Int)=  0.00016689
 Variable       Old X    -DE/DX   Delta X   Delta X   Delta X     New X
                                 (Linear)    (Quad)   (Total)
    R1        2.50665   0.01436   0.00000   0.00739   0.00735   2.51400
    R2        2.47028  -0.01620   0.00000  -0.00582  -0.00580   2.46448
    R3        2.90977  -0.02871   0.00000   0.11851   0.11846   3.02823
    R4        2.53232   0.01686   0.00000   0.00670   0.00669   2.53901
    R5        3.06048  -0.05572   0.00000  -0.05818  -0.05819   3.00228
    R6        2.63004  -0.02026   0.00000  -0.01013  -0.01014   2.61990
    R7        2.03864   0.00049   0.00000  -0.00086  -0.00086   2.03779
    R8        2.53260   0.01908   0.00000   0.00681   0.00682   2.53942
    R9        2.03790  -0.00025   0.00000  -0.00016  -0.00016   2.03774
   R10        2.28437  -0.06209   0.00000  -0.16659  -0.16664   2.11772
   R11        2.52954  -0.13275   0.00000  -0.05384  -0.05384   2.47570
   R12        2.56679  -0.06994   0.00000  -0.05058  -0.05055   2.51623
   R13        2.76657  -0.04779   0.00000   0.01319   0.01324   2.77981
   R14        2.51310  -0.05097   0.00000  -0.06456  -0.06454   2.44856
   R15        2.52696  -0.05910   0.00000  -0.03493  -0.03491   2.49204
   R16        1.81819   0.00120   0.00000   0.00107   0.00107   1.81926
   R17        2.54881  -0.05863   0.00000  -0.14350  -0.14344   2.40536
   R18        1.82006   0.00042   0.00000   0.00044   0.00044   1.82050
    A1        1.98808  -0.03284   0.00000  -0.01943  -0.01940   1.96868
    A2        2.16276   0.02763   0.00000   0.03188   0.03173   2.19449
    A3        2.13233   0.00520   0.00000  -0.01238  -0.01235   2.11998
    A4        1.83925   0.02498   0.00000   0.01407   0.01406   1.85331
    A5        2.47286  -0.02278   0.00000  -0.02992  -0.02995   2.44291
    A6        1.96923  -0.00222   0.00000   0.01545   0.01547   1.98470
    A7        1.87106  -0.01490   0.00000  -0.00744  -0.00747   1.86359
    A8        2.11345   0.00596   0.00000   0.00050   0.00051   2.11396
    A9        2.29868   0.00894   0.00000   0.00694   0.00696   2.30564
   A10        1.88921  -0.00029   0.00000  -0.00043  -0.00044   1.88877
   A11        2.27650  -0.00215   0.00000  -0.00073  -0.00073   2.27577
   A12        2.11748   0.00244   0.00000   0.00116   0.00116   2.11864
   A13        1.83719   0.02305   0.00000   0.01323   0.01324   1.85043
   A14        2.10722  -0.06861   0.00000  -0.03057  -0.03061   2.07661
   A15        2.31807  -0.03479   0.00000  -0.03309  -0.03314   2.28493
   A16        1.84042   0.10399   0.00000   0.06630   0.06633   1.90676
   A17        2.14027   0.03199   0.00000   0.03901   0.03914   2.17941
   A18        1.91295  -0.01082   0.00000  -0.02177  -0.02207   1.89088
   A19        2.09219  -0.00307   0.00000  -0.02257  -0.02272   2.06947
   A20        1.92274   0.00804   0.00000   0.01179   0.01133   1.93407
   A21        1.77255   0.00245   0.00000   0.01257   0.01261   1.78517
   A22        2.09614  -0.00865   0.00000   0.00328   0.00341   2.09955
   A23        1.91200   0.00175   0.00000   0.00048   0.00018   1.91218
   A24        3.02452   0.00078   0.00000   0.00219   0.00195   3.02648
   A25        2.96908  -0.00882   0.00000  -0.00689  -0.00687   2.96221
   A26        3.19356   0.01488   0.00000   0.00878   0.00896   3.20252
   A27        3.11386   0.00299   0.00000   0.01225   0.01194   3.12580
   A28        3.17229  -0.00104   0.00000  -0.01158  -0.01211   3.16018
   A29        3.14324  -0.00086   0.00000   0.00604   0.00621   3.14945
    D1       -0.00021   0.00102   0.00000   0.00206   0.00213   0.00192
    D2        3.06592   0.00136   0.00000  -0.00455  -0.00431   3.06161
    D3       -3.13648   0.00140   0.00000  -0.01231  -0.01253   3.13417
    D4       -0.07035   0.00174   0.00000  -0.01892  -0.01898  -0.08932
    D5        0.00087  -0.00057   0.00000  -0.00158  -0.00161  -0.00073
    D6        3.13725  -0.00087   0.00000   0.01266   0.01250  -3.13344
    D7       -0.10543   0.00141   0.00000   0.00994   0.00982  -0.09560
    D8        2.09869   0.00085   0.00000  -0.01111  -0.01102   2.08767
    D9        3.05615   0.00052   0.00000  -0.01287  -0.01279   3.04336
   D10       -1.02292  -0.00004   0.00000  -0.03392  -0.03363  -1.05655
   D11       -0.00053  -0.00101   0.00000  -0.00163  -0.00171  -0.00224
   D12        3.14019  -0.00070   0.00000  -0.00245  -0.00249   3.13770
   D13       -3.09139   0.00018   0.00000   0.00506   0.00506  -3.08633
   D14        0.04933   0.00049   0.00000   0.00425   0.00428   0.05362
   D15       -3.11886   0.00913   0.00000   0.01735   0.01710  -3.10175
   D16        0.25412  -0.00673   0.00000  -0.00803  -0.00798   0.24615
   D17       -0.05621   0.01010   0.00000   0.01023   0.01013  -0.04608
   D18       -2.96642  -0.00576   0.00000  -0.01516  -0.01495  -2.98137
   D19        0.00107   0.00071   0.00000   0.00076   0.00081   0.00188
   D20       -3.14142   0.00034   0.00000   0.00043   0.00045  -3.14097
   D21       -3.13952   0.00035   0.00000   0.00170   0.00171  -3.13781
   D22        0.00117  -0.00001   0.00000   0.00137   0.00135   0.00253
   D23       -0.00116  -0.00013   0.00000   0.00043   0.00043  -0.00073
   D24        3.14123   0.00019   0.00000   0.00073   0.00075  -3.14120
   D25       -0.17028   0.00047   0.00000   0.03505   0.03479  -0.13550
   D26       -3.10592   0.00093   0.00000   0.02017   0.01979  -3.08613
   D27       -0.04107   0.00402   0.00000  -0.01865  -0.01926  -0.06032
   D28        2.20207  -0.00151   0.00000  -0.00391  -0.00417   2.19790
   D29        0.12753  -0.00508   0.00000  -0.00792  -0.00812   0.11941
   D30       -1.92876  -0.00280   0.00000  -0.02029  -0.02062  -1.94938
   D31       -2.19077   0.00402   0.00000   0.03742   0.03754  -2.15324
[...]
   zx        -0.595875D+01     -0.882996D+00     -0.982466D+00
   zy        -0.132749D+02     -0.196714D+01     -0.218873D+01
   zz         0.842532D+02      0.124850D+02      0.138915D+02

 ----------------------------------------------------------------------
 1\1\GINC-NODE4\Freq\RM062X\6-31+G(d,p)\C3H7N3O4\GONGKE2021\05-Jun-2023
 \0\\#N Geom=AllCheck Guess=TCheck SCRF=Check GenChk RM062X/6-31+G(d,p)
  Freq\\test\\0,1\N,0.8211970443,-0.937632761,-0.1278110672\N,0.8770499
 347,0.3931612237,-0.0813038055\C,2.148661838,0.7893124698,0.1092353709
 \C,2.8710508544,-0.3834733238,0.1696517201\N,2.0140006611,-1.423546097
 6,0.0248836143\H,2.3987790141,1.8355571091,0.1800739788\H,3.9289868858
 ,-0.5397300261,0.3063871005\H,-0.4172967861,-1.8236596306,-0.175504083
 4\C,-0.3449401233,1.282510234,-0.2060833119\O,-0.1247323769,2.44620772
 29,0.0333370973\O,-1.3540870116,0.6315624181,-0.5635383609\H,-2.227790
 3895,-1.7369389695,0.0993030719\O,-1.2702537247,-2.4375275952,-0.13125
 30329\H,-1.3443807234,-2.9361271195,-0.9538671563\H,-2.4284091742,-0.0
 598903317,-0.0195159352\O,-3.0334631951,-0.8770174764,0.2605762433\H,-
 3.3659023576,-0.7774760462,1.1597586961\\Version=ES64L-G16RevA.03\Stat
 e=1-A\HF=-583.4675993\RMSD=2.296e-09\RMSF=2.685e-06\ZeroPoint=0.120672
 1\Thermal=0.1305297\Dipole=-0.2760951,-1.3414158,0.4123842\DipoleDeriv
 =-0.6675284,-0.6148528,-0.0619025,-0.6836418,0.0096769,-0.0586961,-0.0
 620546,-0.0571322,-0.0906215,-0.9137941,0.6666834,-0.094531,0.7711106,
 -0.537777,0.0552159,-0.093466,0.0442725,0.0025257,0.1466757,-0.3632602
 ,0.0121676,0.0233532,0.0734838,0.0100974,0.0313013,-0.0543834,-0.02549
 89,0.1339862,-0.0393426,0.0348221,-0.1140027,-0.2355827,-0.020226,0.02
 66234,-0.0103635,-0.0989306,-0.1566162,0.4678962,0.0392882,0.1486065,-
 0.2559966,0.0187511,0.018379,0.0737621,-0.220218,0.1411644,0.0143922,-
 0.0052577,-0.0097152,0.1276686,-0.0029858,-0.0094239,-0.0002583,0.1830
 361,0.0173961,-0.0023277,-0.0203565,0.0218934,0.094312,0.0012599,-0.02
 08248,-0.0022452,0.1694064,1.288318,0.7655024,0.06385,0.7869036,0.8117
 298,0.0238223,0.0519807,-0.0034987,0.2349166,2.5734672,-0.1503492,0.39
 99023,-0.1887157,2.3802646,0.2379123,0.5239893,0.3637257,0.5004966,-0.
 7706211,-0.0286853,-0.0623144,0.0130032,-1.5316789,-0.1332018,-0.09107
 52,-0.1994285,-0.4438151,-1.9592485,-0.6059356,-0.1506779,-0.6049001,-
 1.1329564,-0.0525259,-0.1563243,-0.0387987,-0.5613527,1.1254925,-0.619
 3785,-0.2636849,-0.678277,0.8813137,0.2319392,-0.2629548,0.1852938,0.3
 351583,-1.4592429,-0.1210235,0.0862678,-0.1556692,-1.1243861,-0.107403
 8,0.1222397,-0.0632632,-0.4553308,0.2832542,0.0290854,0.0234624,0.0337
 257,0.4096108,0.0193583,0.0192365,0.0066415,0.2984475,1.1657728,0.5991
 94,-0.1777261,0.7149909,0.8581118,-0.2166459,-0.3498874,-0.3033482,0.3
 639574,-1.3643986,-0.0138982,0.204344,-0.0915156,-1.1178728,0.0169781,
 0.2968118,0.0739649,-0.4933449,0.4159227,0.0163,-0.0276535,0.0128501,0
 .2900785,-0.0236491,-0.0445506,-0.0149406,0.3011678\Polar=96.3506993,2
 .6582591,88.2399269,3.1472577,3.0455255,49.096499\Quadrupole=7.4468915
 ,-7.670181,0.2232896,8.5710873,-3.6702482,2.9846753\PG=C01 [X(C3H7N3O4
 )]\NImag=1\\0.69939690,0.03176234,0.54405998,0.07395943,0.01006708,0.1
 3897077,-0.12181336,-0.08017858,-0.00859469,0.76703079,-0.01196030,-0.
 27758750,-0.00510314,-0.00615720,0.67355308,-0.00755027,-0.01647578,-0
 .07575937,0.09422147,0.02589652,0.13637883,-0.05797897,-0.07204506,-0.
 01231441,-0.32306282,-0.06458065,-0.03756351,0.62213266,-0.01672201,-0
 .07524582,-0.00488776,-0.07193724,-0.14663762,-0.01427740,0.05628965,0
 .94126707,-0.01140034,-0.01184576,0.01472165,-0.03674703,-0.01270634,-
 0.07378810,0.06814073,0.03501591,0.14511635,-0.11697810,0.00133592,-0.
 01820047,-0.07023431,-0.00318724,-0.01060664,-0.19540993,0.13968573,-0
 .01236614,0.91050118,-0.07579459,-0.00054391,-0.01103945,0.10107607,0.
 00911841,0.01435038,0.09682201,-0.30227340,0.00443142,-0.08829410,0.60
 655122,-0.02118253,-0.00123762,0.01858097,-0.00932066,-0.00024396,0.00
 937377,-0.01305289,0.01115929,-0.07116118,0.10105055,0.00259580,0.1493
 1333,-0.35515727,0.12761473,-0.03182408,-0.08299554,0.09292551,-0.0129
 3844,0.05155525,-0.06157885,0.00316763,-0.18043839,-0.08913667,-0.0171
 5129,0.57383025,0.06163791,-0.13951907,0.00889783,0.03815523,-0.104324
 59,0.00151141,0.03025211,-0.07818824,0.00178677,-0.09362063,-0.2504616
 6,-0.01716217,-0.03630602,0.56554183,-0.03387124,0.01833874,-0.0966876
 5,-0.01410211,0.00717366,0.02590395,0.00528933,-0.01115879,0.02027468,
 -0.01717273,-0.01665554,-0.07536533,0.06165970,0.00634702,0.12430841,-
 0.00743539,-0.00201478,-0.00186556,-0.00188789,-0.03297149,-0.00099780
 ,-0.07136859,-0.06273378,-0.00786911,0.01294835,0.01151214,0.00213070,
 -0.00117187,0.00648843,-0.00084805,0.06733474,0.00243238,0.00181693,0.
 00013714,-0.00068886,-0.00227877,-0.00012697,-0.07546568,-0.35936249,-
 0.02133915,-0.00796556,-0.00409851,-0.00123159,-0.00013938,-0.00237786
 ,-0.00035414,0.08070463,0.36780337,-0.00184308,-0.00022287,0.00628345,
 -0.00014441,-0.00454968,-0.00221554,-0.00808119,-0.01984645,-0.0338968
 9,0.00148188,0.00147700,0.00062502,-0.00092415,0.00061193,0.00622616,0
 .00900370,0.02272995,0.02661998,-0.00053755,-0.00259788,-0.00120130,0.
 00010224,0.00007803,-0.00085021,-0.00228149,-0.00308590,-0.00030077,-0
 .35762883,0.04900822,-0.04221309,-0.01373968,0.00377393,-0.00077694,-0
 .00041449,0.00033511,0.00021879,0.37433167,-0.00692897,-0.00405557,-0.
 00118767,0.00374962,-0.00671990,-0.00003233,0.02197249,0.00610397,0.00
 316077,0.05506271,-0.06626395,0.00631165,-0.02603197,0.00976454,-0.003
 01220,-0.00050425,-0.00016907,-0.00001519,-0.04776931,0.05939363,-0.00
 152368,-0.00085473,0.00840928,-0.00079606,-0.00020479,0.00671775,0.000
 40079,-0.00009471,-0.00077742,-0.04200934,0.00554724,-0.03604437,-0.00
 163125,0.00076797,-0.00766633,0.00019134,0.00012218,-0.00193844,0.0452
 9953,-0.00533630,0.03030537,-0.01180131,0.01392563,-0.00251371,0.00703
 271,0.00099518,0.00004090,0.00774342,0.00578193,0.00140778,0.00346202,
 0.00817126,0.00100353,-0.00708408,0.00146014,-0.00090379,0.00134552,-0
 .00041241,0.00024814,0.00049852,0.00066609,0.00008150,0.15673157,0.008
 46073,-0.01352076,-0.00257120,-0.00310540,-0.00435631,-0.00074484,0.00
 612845,0.00113992,0.00104371,0.00564975,0.00534318,0.00147256,0.004049
 41,0.00813302,-0.00022411,0.00045408,-0.00024999,0.00010723,0.00053075
 ,0.00092149,0.00020649,0.05769673,0.10415107,0.00178132,0.00004908,-0.
 01793962,-0.00084273,-0.00043513,-0.00247495,0.00071367,-0.00007369,0.
 00140107,-0.00051238,0.00086658,0.00210138,-0.00162200,-0.00059892,-0.
 00292240,-0.00009226,-0.00006586,0.00073413,-0.00009045,-0.00004012,0.
 00049024,-0.01477519,0.01088811,0.06894952,0.00310588,0.02858830,0.003
 55594,-0.08587985,-0.01374839,-0.00347023,-0.03350931,0.00716286,-0.00
 357838,-0.00318098,-0.01601354,-0.00114281,0.02647914,-0.01897698,0.00
 181207,-0.00036789,-0.00057728,0.00018887,0.00027986,-0.00088038,-0.00
 021784,0.02228464,0.00808858,0.00211058,0.58847206,0.02204355,-0.02683
 953,0.00240901,-0.01474798,-0.07316183,-0.00307880,0.00904368,0.020035
 61,0.00253995,-0.00952826,0.00696810,-0.00136161,-0.01442255,-0.002344
 35,-0.00228809,-0.00415974,-0.00000639,-0.00028441,-0.00046611,0.00165
 928,-0.00010018,-0.00415720,-0.00696576,0.00031157,0.32210433,0.975573
 07,0.00119514,0.00329660,-0.01216644,-0.00340589,-0.00212298,-0.053810
 57,-0.00380740,0.00199627,-0.00514357,-0.00171297,-0.00270851,0.003245
 49,0.00310052,-0.00330558,0.00762889,-0.00062941,0.00000764,-0.0015609
 8,-0.00022428,-0.00013421,0.00140769,0.00444624,0.00123534,0.00087151,
 0.12449945,0.18732414,0.27998696,-0.00308210,-0.00219416,-0.00054437,0
 .00343840,0.04344525,0.00263119,-0.00064094,0.00039219,0.00026082,0.00
 281420,0.00100380,0.00044542,-0.00306964,0.00634851,-0.00025815,0.0008
 8373,0.00168689,0.00018950,-0.00001954,0.00008337,0.00001877,-0.005234
 16,-0.00180056,-0.00057878,-0.11811187,-0.10773689,-0.02398279,0.12899
 991,0.01082503,0.00995205,0.00058185,0.02887891,-0.08048817,-0.0075470
 0,-0.00781412,-0.00349056,-0.00147029,0.00093633,-0.00371364,0.0000744
 8,0.00728754,-0.00593399,0.00159443,0.00235279,-0.00105965,0.00018240,
 0.00026463,-0.00025049,0.00004000,0.00148864,0.00278963,-0.00041230,-0
 .11711756,-0.68038606,-0.12075648,0.12582936,0.81883720,0.00127813,0.0
 0059252,0.00454409,0.00052379,-0.00686863,0.01761251,-0.00084328,-0.00
 015574,0.00062525,0.00040775,-0.00002409,0.00036986,0.00035552,-0.0000
 9763,-0.00198269,0.00042344,0.00021355,-0.00073479,0.00006418,-0.00000
 069,-0.00016136,-0.00089266,0.00006940,-0.00024037,-0.02376908,-0.1182
 9482,-0.10774443,0.04236836,0.15530767,0.06841457,0.00469566,-0.008934
 96,-0.00100169,-0.08838882,-0.00157511,-0.02348597,0.00802428,0.010764
 10,0.00039916,-0.00322648,0.00631105,0.00013114,-0.01105648,0.00422011
 ,-0.00121679,0.00122585,-0.00012055,-0.00007784,-0.00027819,0.00117536
 ,0.00025646,-0.01543680,-0.00908785,-0.00087246,-0.36774283,-0.1910689
 6,-0.09082199,-0.01341220,-0.05959619,-0.02336304,0.50800428,0.0051663
 9,-0.00444471,0.00053635,0.00234391,0.01403374,-0.00146494,0.00394269,
 -0.00076968,0.00017632,0.00262073,0.00319792,0.00054854,-0.00394856,0.
 00455771,-0.00017075,0.00151351,-0.00018257,-0.00001867,0.00018623,0.0
 0024638,0.00009222,-0.00740755,-0.00034502,-0.00123869,-0.17965359,-0.
 20784605,-0.06172399,-0.07083810,-0.05756485,-0.03011436,0.27188243,0.
 26999547,0.00068778,-0.00165640,0.00158386,-0.01813619,-0.00128153,0.0
 1154140,0.00091487,0.00150861,0.00294487,-0.00025875,0.00098425,-0.000
 52570,-0.00184970,0.00083462,-0.00017981,0.00040672,-0.00010593,0.0000
 5429,0.00007014,0.00020504,-0.00060915,-0.00082521,0.00006326,-0.00185
 399,-0.10110482,-0.06719895,-0.11452741,-0.01857262,-0.02537113,0.0201
 7227,0.11614094,0.07483593,0.09970521,0.00583101,0.00139676,-0.0002258
 9,-0.00302211,0.00078522,-0.00076280,0.00316656,0.00148032,0.00054233,
 0.00045846,0.00275900,0.00022944,-0.00279628,0.00161978,-0.00043482,0.
 00034295,-0.00012669,0.00000710,0.00010096,0.00022771,0.00002991,-0.02
 812994,-0.00921684,-0.00039606,0.01169468,-0.00135836,0.00393141,-0.00
 286529,-0.00027545,-0.00083677,-0.01902310,-0.00555784,0.00403216,0.05
 317956,-0.00622062,-0.00448820,-0.00062030,0.00234580,-0.00167817,0.00
 060127,-0.00290689,-0.00171289,-0.00046339,-0.00021148,-0.00243920,-0.
 00013063,0.00308777,-0.00127912,0.00038573,-0.00041662,0.00009451,-0.0
 0001543,-0.00007879,-0.00019426,0.00000956,0.01076427,0.03057968,0.005
 95562,-0.01563154,-0.00157583,-0.00470846,0.00385998,0.00213492,0.0014
 6050,0.01781297,0.00862984,-0.00324518,0.02356579,0.07401794,-0.001911
 79,-0.00111656,-0.00031717,0.00043731,-0.00039715,0.00030268,-0.000892
 92,-0.00051449,-0.00012338,-0.00014784,-0.00074967,0.00001333,0.000724
 64,-0.00042628,-0.00009098,-0.00010921,0.00002889,0.00001282,-0.000040
 20,-0.00006779,0.00001898,0.00809059,0.00756623,0.00163947,-0.00266519
 ,0.00016518,-0.00082284,0.00056942,-0.00015499,0.00013728,0.00549645,0
 .00167283,-0.00287248,0.01269915,-0.01073421,0.07592424,-0.03106492,-0
 .03357714,-0.00167084,-0.00349241,-0.00147491,0.00024849,-0.00561211,-
 0.00418065,-0.00093984,-0.00275890,-0.00529049,-0.00063817,0.00304143,
 -0.00367849,0.00040794,-0.00098092,0.00029168,-0.00014702,-0.00038551,
 -0.00061543,-0.00006058,-0.15238417,-0.07282138,0.04192679,-0.01896151
 ,0.00317083,-0.00449455,0.00451634,-0.00086740,0.00089535,0.01840512,0
 .00700866,-0.00145946,-0.03062564,-0.02451467,-0.02862492,0.34252460,-
 0.02560627,-0.01273469,0.00113086,-0.00352096,0.00140282,-0.00017200,-
 0.00207598,-0.00085180,-0.00045876,-0.00286032,-0.00192027,-0.00063704
 ,-0.00282682,-0.00338678,-0.00013293,-0.00023225,0.00012434,-0.0001255
 1,-0.00026475,-0.00043991,-0.00011432,-0.08822119,-0.10872181,0.005496
 28,0.00200744,0.00392940,0.00142362,-0.00070069,-0.00279757,-0.0006787
 3,-0.00358029,-0.00439604,0.00047172,-0.00547011,-0.03833299,0.0017154
 1,0.10021670,0.35079639,-0.00277242,0.00015332,0.01028852,0.00030367,0
 .00028217,0.00064949,0.00005164,0.00026522,-0.00040355,0.00011087,-0.0
 0000231,-0.00066017,-0.00002417,0.00013348,0.00096299,0.00008282,0.000
 00450,-0.00027932,0.00004038,0.00002442,-0.00020097,0.01076177,-0.0151
 5912,-0.05278183,0.00015860,-0.00021875,0.00003874,0.00001258,0.000270
 25,0.00004428,-0.00215862,-0.00003342,0.00242662,-0.01130695,-0.003059
 06,-0.03379561,-0.00080794,0.25217166,0.46228873,-0.00322460,-0.002123
 90,0.00229052,-0.00045253,0.00029986,0.00023484,0.00001063,0.00009570,
 -0.00013394,-0.00039953,0.00000471,-0.00022365,-0.00047131,-0.00015896
 ,0.00018731,-0.00001447,-0.00000262,-0.00010166,-0.00001819,-0.0000347
 3,-0.00005403,0.00835218,-0.00931824,-0.02794672,0.00058260,-0.0002544
 0,0.00006349,-0.00015285,0.00011992,-0.00000017,-0.00037365,-0.0000116
 0,-0.00012323,0.01528492,0.00047299,0.01519122,-0.05425906,-0.02305771
 ,-0.02051103,0.04264357,-0.00109578,0.00038677,0.00126193,0.00026361,-
 0.00066249,0.00013539,0.00019323,-0.00001055,-0.00003931,0.00013052,0.
 00029487,-0.00011785,-0.00054342,-0.00018177,0.00014561,-0.00000237,-0
 .00002237,-0.00003671,0.00002181,0.00001659,-0.00003287,0.00254485,-0.
 00783464,-0.01871461,-0.00166114,-0.00113842,-0.00053521,0.00044719,0.
 00075565,0.00017436,0.00098393,0.00111969,0.00093093,-0.00422748,-0.00
 443367,-0.00949521,-0.02804747,-0.14984368,-0.21512328,0.02866805,0.16
 249641,0.00188415,0.00077843,-0.00044223,0.00008140,0.00002519,0.00006
 119,0.00026012,0.00017071,0.00008489,0.00010888,0.00025349,0.00009077,
 0.00004856,0.00016744,-0.00016438,0.00002280,-0.00000478,0.00003105,0.
 00002399,0.00002476,0.00002984,-0.00221727,0.00116286,0.00183799,0.000
 19012,-0.00047687,0.00003202,-0.00003280,0.00026666,0.00002358,0.00012
 730,0.00053144,-0.00061086,0.00287467,-0.00216164,-0.00323857,-0.03261
 330,-0.24362418,-0.39480140,0.03205756,0.24111147,0.39589939,-0.002069
 26,0.00116867,0.00030268,0.00549048,-0.00396296,0.00147990,-0.00269515
 ,-0.00130194,-0.00051357,0.00035908,-0.00186080,-0.00004846,0.00337893
 ,-0.00129599,0.00032216,-0.00052647,0.00001338,-0.00005414,0.00006619,
 -0.00016136,0.00000743,0.00600053,0.00866086,0.00029541,-0.03515606,-0
 .01459569,-0.01938761,0.00878875,0.01432230,0.00715766,0.02209655,0.01
 028336,0.00645388,0.03174463,-0.00540917,-0.01148582,-0.01775762,0.002
 88437,0.00471790,0.00014397,0.00016643,-0.00024896,0.07292926,-0.00263
 852,0.00187110,0.00053980,0.00957112,-0.00277852,0.00350849,-0.0031286
 3,-0.00186864,-0.00027482,0.00023641,-0.00242383,-0.00021243,0.0036466
 0,-0.00169081,0.00044625,-0.00050469,0.00005113,-0.00002541,0.00005029
 ,-0.00025622,-0.00009251,0.00995927,0.00597238,-0.00007373,-0.02852168
 ,-0.01760286,-0.01641044,0.00626249,0.00897783,0.00265404,0.03095041,0
 .01237034,0.00364123,0.01020469,-0.03304274,-0.00264707,-0.01345368,0.
 00572339,0.00332533,-0.00016159,-0.00031622,-0.00080990,0.05417569,0.1
 6911023,0.00104534,-0.00047543,-0.00031731,-0.00513350,0.00074729,-0.0
 0083730,0.00098089,0.00106740,0.00014833,-0.00027109,0.00082647,0.0000
 8931,-0.00148830,0.00070110,-0.00038771,0.00020484,-0.00002293,0.00006
 799,-0.00004258,0.00012510,0.00004219,-0.00327503,-0.00341504,0.000936
 79,0.00607204,0.00073506,0.00707598,-0.00405382,-0.00495536,-0.0025754
 5,-0.00471540,-0.00168165,-0.02081884,-0.01366125,0.00939927,0.0088765
 0,0.00835684,-0.00213103,-0.00381039,0.00031742,-0.00071594,0.00060112
 ,-0.02221214,-0.02108869,0.07479119,-0.00203738,-0.00228039,-0.0000039
 2,-0.00192888,0.00137997,-0.00065490,-0.00006020,-0.00006678,-0.000075
 74,-0.00032713,-0.00035637,-0.00005801,-0.00028263,0.00007527,-0.00001
 652,0.00011031,0.00005718,0.00002198,-0.00008192,-0.00001311,-0.000007
 93,0.00683462,0.00541371,0.00035996,0.01141557,0.00781726,0.01097005,-
 0.00300394,-0.00719020,-0.00366893,-0.04254270,-0.03658655,0.01446067,
 -0.03515290,-0.00102079,-0.00976352,-0.04708206,0.05035252,0.02227162,
 -0.00776376,0.00175476,-0.00247566,-0.08977757,-0.08400708,0.02208272,
 0.28615724,0.00467134,0.00077863,-0.00011771,-0.00607742,0.00264301,-0
 .00208474,0.00342537,0.00184492,0.00046183,0.00001546,0.00267697,0.000
 17755,-0.00371143,0.00171654,-0.00047945,0.00052044,-0.00008645,0.0000
 2532,0.00001247,0.00023887,0.00004413,-0.01322418,-0.01669604,-0.00185
 696,0.02540867,0.00941065,0.01615507,-0.00602345,-0.00700105,-0.003684
 34,-0.06549496,-0.03459044,0.01550802,-0.00949479,-0.03595690,0.031964
 96,0.07114915,-0.03328355,-0.02403333,0.00550531,-0.00087078,0.0025418
 6,-0.06278145,-0.15884768,-0.00394552,0.04351377,0.32505073,0.00041631
 ,0.00090748,0.00026948,0.00207988,-0.00040280,0.00049101,-0.00020699,-
 0.00019544,-0.00002195,0.00016800,-0.00014102,-0.00003771,0.00049668,-
 0.00018565,0.00019366,-0.00006816,0.00000435,-0.00004842,0.00003825,-0
 .00002710,-0.00003402,-0.00166386,-0.00213504,-0.00096928,-0.00447850,
 -0.00142899,-0.00545581,0.00197973,0.00320497,0.00192848,0.02789521,0.
 01991979,0.00250577,-0.00024291,0.01249662,-0.04432327,0.02399309,-0.0
 1777782,0.00911966,-0.00113930,0.00107747,0.00064735,0.03249594,0.0300
 5655,-0.05599578,-0.23629042,0.01036261,0.56389245,0.00015076,0.000154
 50,-0.00014764,0.00006389,-0.00029078,0.00002398,-0.00001329,-0.000045
 35,0.00000641,0.00003929,0.00007830,0.00004077,-0.00002182,0.00000564,
 -0.00007736,-0.00002347,-0.00002223,0.00001353,0.00000597,0.00000213,0
 .00001496,-0.00021529,0.00021721,0.00054129,-0.00140413,-0.00168350,0.
 00026057,0.00015119,0.00055548,-0.00010026,-0.00097050,-0.00094412,-0.
 00083719,-0.00018847,-0.00549898,0.01243263,-0.00312264,0.00295631,-0.
 00093073,0.00011207,0.00040328,-0.00009156,-0.00301624,0.00735891,0.01
 579301,-0.07447666,0.01258571,0.15452704,0.08292935,-0.00003263,0.0001
 1430,-0.00003461,0.00002937,-0.00007717,0.00000133,-0.00005267,0.00002
 021,-0.00001888,-0.00000599,-0.00001232,-0.00000496,0.00003411,-0.0000
 2540,0.00004456,-0.00000604,0.00000385,0.00000650,0.00000126,0.0000046
 0,0.00000064,-0.00003147,-0.00034005,-0.00005722,-0.00057810,0.0002909
 9,0.00096716,-0.00006517,-0.00076126,-0.00055301,-0.00464149,-0.004011
 71,-0.00012448,-0.00631171,0.00967709,-0.01681006,0.00668470,-0.005267
 26,0.00099892,-0.00004279,0.00024460,0.00004306,-0.00030570,0.01475111
 ,0.02482991,0.02115683,-0.05702743,-0.05573600,-0.01583250,0.04241584,
 -0.00019224,-0.00029809,-0.00002227,-0.00042424,0.00019129,-0.00014675
 ,0.00001055,0.00002104,-0.00000104,-0.00006960,-0.00001200,-0.00000877
 ,-0.00009989,0.00001666,-0.00005148,0.00001320,0.00000314,0.00001949,-
 0.00001546,0.00000186,0.00001071,0.00098627,0.00043416,0.00022036,0.00
 183916,0.00124655,0.00094476,-0.00045246,-0.00085517,-0.00043307,-0.00
 273286,-0.00186694,0.00106396,0.00352126,-0.00517025,-0.00134100,-0.00
 437187,0.00344275,0.00091421,-0.00010863,-0.00002618,-0.00008174,0.000
 71774,-0.00253671,-0.00788659,0.18284853,-0.04103929,-0.47216160,-0.18
 146946,0.04644716,0.47896080\\0.00000090,-0.00000129,0.00000244,-0.000
 00094,0.00000065,-0.00000397,-0.00000077,0.00000065,0.00000046,0.00000
 063,-0.00000126,0.00000015,0.00000232,-0.00000090,0.00000325,-0.000000
 13,0.00000054,-0.00000228,-0.00000003,0.00000052,0.00000103,0.00000121
 ,0.00000016,-0.00000228,-0.00000558,-0.00000172,-0.00000164,-0.0000006
 2,0.00000012,-0.00000351,0.00000267,0.00000043,0.00000209,0.00000079,0
 .00000096,-0.00000491,-0.00000654,0.00000403,0.00000807,-0.00000010,0.
 00000079,0.00000230,-0.00000174,-0.00000165,-0.00000284,0.00000823,-0.
 00000272,0.00000158,-0.00000028,0.00000067,0.00000007\\\@


 Boundary, n.  In political geography, an imaginary
 line between two nations, separating the imaginary
 rights of one from the imaginary rights of another.
                               -- Ambrose Bierce
 Job cpu time:       0 days  0 hours 30 minutes 42.3 seconds.
 Elapsed time:       0 days  0 hours  1 minutes 17.3 seconds.
 File lengths (MBytes):  RWF=     98 Int=      0 D2E=      0 Chk=      5 Scr=      1
 Normal termination of Gaussian 16 at Mon Jun  5 07:58:58 2023.
