 Entering Gaussian System, Link 0=/home/gau/soft/g16/g16
 Initial command:
 /home/gau/soft/g16/l1.exe "/home/gau/soft/scratch/Gau-76169.inp" -scrdir="/home/gau/soft/scratch/"
 Entering Link 1 = /home/gau/soft/g16/l1.exe PID=     76170.
  
 Copyright (c) 1988-2019, Gaussian, Inc.  All Rights Reserved.
  
 This is part of the Gaussian(R) 16 program.  It is based on
 the Gaussian(R) 09 system (copyright 2009, Gaussian, Inc.),
 the Gaussian(R) 03 system (copyright 2003, Gaussian, Inc.),
 the Gaussian(R) 98 system (copyright 1998, Gaussian, Inc.),
 the Gaussian(R) 94 system (copyright 1995, Gaussian, Inc.),
 the Gaussian 92(TM) system (copyright 1992, Gaussian, Inc.),
 the Gaussian 90(TM) system (copyright 1990, Gaussian, Inc.),
 the Gaussian 88(TM) system (copyright 1988, Gaussian, Inc.),
 the Gaussian 86(TM) system (copyright 1986, Carnegie Mellon
 University), and the Gaussian 82(TM) system (copyright 1983,
 Carnegie Mellon University). Gaussian is a federally registered
 trademark of Gaussian, Inc.
  
 This software contains proprietary and confidential information,
 including trade secrets, belonging to Gaussian, Inc.
  
 This software is provided under written license and may be
 used, copied, transmitted, or stored only in accord with that
 written license.
  
 The following legend is applicable only to US Government
 contracts under FAR:
  
                    RESTRICTED RIGHTS LEGEND
  
 Use, reproduction and disclosure by the US Government is
 subject to restrictions as set forth in subparagraphs (a)
 and (c) of the Commercial Computer Software - Restricted
 Rights clause in FAR 52.227-19.
  
 Gaussian, Inc.
 340 Quinnipiac St., Bldg. 40, Wallingford CT 06492
  
  
 ---------------------------------------------------------------
 Warning -- This program may not be used in any manner that
 competes with the business of Gaussian, Inc. or will provide
 assistance to any competitor of Gaussian, Inc.  The licensee
 of this program is prohibited from giving any competitor of
 Gaussian, Inc. access to this program.  By using this program,
 the user acknowledges that Gaussian, Inc. is engaged in the
 business of creating and licensing software in the field of
 computational chemistry and represents and warrants to the
 licensee that it is not a competitor of Gaussian, Inc. and that
 it will not use this program in any manner prohibited above.
 ---------------------------------------------------------------
  

 Cite this work as:
 Gaussian 16, Revision C.01,
 M. J. Frisch, G. W. Trucks, H. B. Schlegel, G. E. Scuseria, 
 M. A. Robb, J. R. Cheeseman, G. Scalmani, V. Barone, 
 G. A. Petersson, H. Nakatsuji, X. Li, M. Caricato, A. V. Marenich, 
 J. Bloino, B. G. Janesko, R. Gomperts, B. Mennucci, H. P. Hratchian, 
 J. V. Ortiz, A. F. Izmaylov, J. L. Sonnenberg, D. Williams-Young, 
 F. Ding, F. Lipparini, F. Egidi, J. Goings, B. Peng, A. Petrone, 
 T. Henderson, D. Ranasinghe, V. G. Zakrzewski, J. Gao, N. Rega, 
 G. Zheng, W. Liang, M. Hada, M. Ehara, K. Toyota, R. Fukuda, 
 J. Hasegawa, M. Ishida, T. Nakajima, Y. Honda, O. Kitao, H. Nakai, 
 T. Vreven, K. Throssell, J. A. Montgomery, Jr., J. E. Peralta, 
 F. Ogliaro, M. J. Bearpark, J. J. Heyd, E. N. Brothers, K. N. Kudin, 
 V. N. Staroverov, T. A. Keith, R. Kobayashi, J. Normand, 
 K. Raghavachari, A. P. Rendell, J. C. Burant, S. S. Iyengar, 
 J. Tomasi, M. Cossi, J. M. Millam, M. Klene, C. Adamo, R. Cammi, 
 J. W. Ochterski, R. L. Martin, K. Morokuma, O. Farkas, 
 J. B. Foresman, and D. J. Fox, Gaussian, Inc., Wallingford CT, 2019.
 
 ******************************************
 Gaussian 16:  ES64L-G16RevC.01  3-Jul-2019
                 7-Dec-2023 
 ******************************************
 %mem=10GB
 %nprocshared=48
 Will use up to   48 processors via shared memory.
 ----------------------------
 # opt freq 6-31+g(d,p) m062x
 ----------------------------
 1/18=20,19=15,26=3,38=1/1,3;
 2/9=110,12=2,17=6,18=5,40=1/2;
 3/5=1,6=6,7=111,11=2,25=1,30=1,71=1,74=-55/1,2,3;
 4//1;
 5/5=2,38=5/2;
 6/7=2,8=2,9=2,10=2,28=1/1;
 7//1,2,3,16;
 1/18=20,19=15,26=3/3(2);
 2/9=110/2;
 99//99;
 2/9=110/2;
 3/5=1,6=6,7=111,11=2,25=1,30=1,71=1,74=-55/1,2,3;
 4/5=5,16=3,69=1/1;
 5/5=2,38=5/2;
 7//1,2,3,16;
 1/18=20,19=15,26=3/3(-5);
 2/9=110/2;
 6/7=2,8=2,9=2,10=2,19=2,28=1/1;
 99/9=1/99;
 ----
 test
 ----
 Symbolic Z-matrix:
 Charge =  0 Multiplicity = 1
 N                     1.2512    0.77781   0.00072 
 N                     0.44758  -0.26726   0.00903 
 C                     1.27904  -1.30937   0.00892 
 C                     2.59212  -0.81525   0.001 
 N                     2.53881   0.51707  -0.00428 
 H                     0.90307  -2.32097   0.01412 
 H                     3.53678  -1.33577  -0.00124 
 H                     0.85852   1.71872  -0.00355 
 C                    -2.20493  -0.86348  -0.00033 
 O                    -1.9181   -1.98719  -0.00399 
 O                    -2.5662    0.24605   0.00419 
 H                    -1.51369   1.9896    0.03439 
 O                    -0.78487   2.5842   -0.19045 
 H                    -1.17158   3.35539  -0.61504 
 
 Add virtual bond connecting atoms O13        and H8         Dist= 3.53D+00.
 Add virtual bond connecting atoms H12        and O11        Dist= 3.85D+00.

 GradGradGradGradGradGradGradGradGradGradGradGradGradGradGradGradGradGrad
 Berny optimization.
 Initialization pass.
                           ----------------------------
                           !    Initial Parameters    !
                           ! (Angstroms and Degrees)  !
 --------------------------                            --------------------------
 ! Name  Definition              Value          Derivative Info.                !
 --------------------------------------------------------------------------------
 ! R1    R(1,2)                  1.3183         estimate D2E/DX2                !
 ! R2    R(1,5)                  1.3138         estimate D2E/DX2                !
 ! R3    R(1,8)                  1.0196         estimate D2E/DX2                !
 ! R4    R(2,3)                  1.3332         estimate D2E/DX2                !
 ! R5    R(3,4)                  1.403          estimate D2E/DX2                !
 ! R6    R(3,6)                  1.0792         estimate D2E/DX2                !
 ! R7    R(4,5)                  1.3334         estimate D2E/DX2                !
 ! R8    R(4,7)                  1.0786         estimate D2E/DX2                !
 ! R9    R(8,13)                 1.8667         estimate D2E/DX2                !
 ! R10   R(9,10)                 1.1597         estimate D2E/DX2                !
 ! R11   R(9,11)                 1.1669         estimate D2E/DX2                !
 ! R12   R(11,12)                2.0368         estimate D2E/DX2                !
 ! R13   R(12,13)                0.9671         estimate D2E/DX2                !
 ! R14   R(13,14)                0.9615         estimate D2E/DX2                !
 ! A1    A(2,1,5)              116.1119         estimate D2E/DX2                !
 ! A2    A(2,1,8)              119.7892         estimate D2E/DX2                !
 ! A3    A(5,1,8)              124.0987         estimate D2E/DX2                !
 ! A4    A(1,2,3)              103.8561         estimate D2E/DX2                !
 ! A5    A(2,3,4)              107.9631         estimate D2E/DX2                !
 ! A6    A(2,3,6)              121.0272         estimate D2E/DX2                !
 ! A7    A(4,3,6)              131.0097         estimate D2E/DX2                !
 ! A8    A(3,4,5)              108.3307         estimate D2E/DX2                !
 ! A9    A(3,4,7)              130.5233         estimate D2E/DX2                !
 ! A10   A(5,4,7)              121.146          estimate D2E/DX2                !
 ! A11   A(1,5,4)              103.7381         estimate D2E/DX2                !
 ! A12   A(1,8,13)             140.1162         estimate D2E/DX2                !
 ! A13   A(9,11,12)            130.8456         estimate D2E/DX2                !
 ! A14   A(11,12,13)           155.8221         estimate D2E/DX2                !
 ! A15   A(8,13,12)            110.8004         estimate D2E/DX2                !
 ! A16   A(8,13,14)            140.365          estimate D2E/DX2                !
 ! A17   A(12,13,14)           107.0185         estimate D2E/DX2                !
 ! A18   L(10,9,11,1,-1)       183.7164         estimate D2E/DX2                !
 ! A19   L(10,9,11,1,-2)       180.0404         estimate D2E/DX2                !
 ! D1    D(5,1,2,3)             -0.0279         estimate D2E/DX2                !
 ! D2    D(8,1,2,3)            179.8356         estimate D2E/DX2                !
 ! D3    D(2,1,5,4)              0.008          estimate D2E/DX2                !
 ! D4    D(8,1,5,4)           -179.8489         estimate D2E/DX2                !
 ! D5    D(2,1,8,13)            -8.97           estimate D2E/DX2                !
 ! D6    D(5,1,8,13)           170.882          estimate D2E/DX2                !
 ! D7    D(1,2,3,4)              0.0347         estimate D2E/DX2                !
 ! D8    D(1,2,3,6)           -179.9525         estimate D2E/DX2                !
 ! D9    D(2,3,4,5)             -0.0322         estimate D2E/DX2                !
 ! D10   D(2,3,4,7)            179.9796         estimate D2E/DX2                !
 ! D11   D(6,3,4,5)            179.9532         estimate D2E/DX2                !
 ! D12   D(6,3,4,7)             -0.035          estimate D2E/DX2                !
 ! D13   D(3,4,5,1)              0.0148         estimate D2E/DX2                !
 ! D14   D(7,4,5,1)           -179.9957         estimate D2E/DX2                !
 ! D15   D(1,8,13,12)           23.2853         estimate D2E/DX2                !
 ! D16   D(1,8,13,14)         -138.4156         estimate D2E/DX2                !
 ! D17   D(9,11,12,13)          37.3626         estimate D2E/DX2                !
 ! D18   D(11,12,13,8)         -46.3159         estimate D2E/DX2                !
 ! D19   D(11,12,13,14)        121.5936         estimate D2E/DX2                !
 --------------------------------------------------------------------------------
 Trust Radius=3.00D-01 FncErr=1.00D-07 GrdErr=1.00D-06 EigMax=2.50D+02 EigMin=1.00D-04
 Number of steps in this run=     62 maximum allowed number of steps=    100.
 GradGradGradGradGradGradGradGradGradGradGradGradGradGradGradGradGradGrad

                          Input orientation:                          
 ---------------------------------------------------------------------
 Center     Atomic      Atomic             Coordinates (Angstroms)
 Number     Number       Type             X           Y           Z
 ---------------------------------------------------------------------
      1          7           0        1.251198    0.777812    0.000724
      2          7           0        0.447584   -0.267256    0.009031
      3          6           0        1.279036   -1.309366    0.008917
      4          6           0        2.592121   -0.815250    0.000998
      5          7           0        2.538805    0.517071   -0.004283
      6          1           0        0.903072   -2.320972    0.014124
      7          1           0        3.536783   -1.335771   -0.001239
      8          1           0        0.858519    1.718716   -0.003553
      9          6           0       -2.204929   -0.863483   -0.000327
     10          8           0       -1.918101   -1.987193   -0.003986
     11          8           0       -2.566196    0.246046    0.004189
     12          1           0       -1.513692    1.989602    0.034387
     13          8           0       -0.784870    2.584204   -0.190448
     14          1           0       -1.171585    3.355388   -0.615043
 ---------------------------------------------------------------------
                    Distance matrix (angstroms):
                    1          2          3          4          5
     1  N    0.000000
     2  N    1.318344   0.000000
     3  C    2.087380   1.333156   0.000000
     4  C    2.082287   2.213459   1.402999   0.000000
     5  N    1.313751   2.233507   2.218798   1.333398   0.000000
     6  H    3.118306   2.103627   1.079223   2.262799   3.275736
     7  H    3.113059   3.268789   2.257924   1.078579   2.104517
     8  H    1.019566   2.028081   3.057167   3.070241   2.065747
     9  C    3.826051   2.718713   3.512394   4.797293   4.940542
    10  O    4.205916   2.924862   3.268226   4.659998   5.112274
    11  O    3.854255   3.057184   4.147908   5.266364   5.112197
    12  H    3.018970   2.990092   4.322403   4.972525   4.311910
    13  O    2.728584   3.112805   4.411274   4.795519   3.918483
    14  H    3.590674   4.016805   5.306109   5.651478   4.711270
                    6          7          8          9         10
     6  H    0.000000
     7  H    2.811991   0.000000
     8  H    4.039972   4.062388   0.000000
     9  C    3.432805   5.761103   4.006554   0.000000
    10  O    2.840907   5.493643   4.630700   1.159745   0.000000
    11  O    4.315727   6.304643   3.727934   1.166871   2.325393
    12  H    4.941883   6.047038   2.387928   2.935831   3.997489
    13  O    5.191507   5.837695   1.866742   3.733532   4.713454
    14  H    6.076274   6.674762   2.678421   4.386860   5.428982
                   11         12         13         14
    11  O    0.000000
    12  H    2.036827   0.000000
    13  O    2.945843   0.967101   0.000000
    14  H    3.463581   1.550538   0.961537   0.000000
 Stoichiometry    C3H5N3O3
 Framework group  C1[X(C3H5N3O3)]
 Deg. of freedom    36
 Full point group                 C1      NOp   1
 Largest Abelian subgroup         C1      NOp   1
 Largest concise Abelian subgroup C1      NOp   1
                         Standard orientation:                         
 ---------------------------------------------------------------------
 Center     Atomic      Atomic             Coordinates (Angstroms)
 Number     Number       Type             X           Y           Z
 ---------------------------------------------------------------------
      1          7           0       -1.255138    0.775896   -0.054909
      2          7           0       -0.444263   -0.263102   -0.023346
      3          6           0       -1.268321   -1.309732    0.029568
      4          6           0       -2.584758   -0.824563    0.026091
      5          7           0       -2.540798    0.507009   -0.028067
      6          1           0       -0.885285   -2.318031    0.066164
      7          1           0       -3.525681   -1.350793    0.058931
      8          1           0       -0.869081    1.718675   -0.095448
      9          6           0        2.212381   -0.840534   -0.008794
     10          8           0        1.933520   -1.964874    0.046922
     11          8           0        2.565771    0.270100   -0.065334
     12          1           0        1.500799    2.003507   -0.164309
     13          8           0        0.769553    2.602596    0.039790
     14          1           0        1.154074    3.394424    0.426708
 ---------------------------------------------------------------------
 Rotational constants (GHZ):           2.0456506           1.0827794           0.7088818
 Standard basis: 6-31+G(d,p) (6D, 7F)
 There are   196 symmetry adapted cartesian basis functions of A   symmetry.
 There are   196 symmetry adapted basis functions of A   symmetry.
   196 basis functions,   323 primitive gaussians,   196 cartesian basis functions
    34 alpha electrons       34 beta electrons
       nuclear repulsion energy       424.3460556040 Hartrees.
 NAtoms=   14 NActive=   14 NUniq=   14 SFac= 1.00D+00 NAtFMM=   60 NAOKFM=F Big=F
 Integral buffers will be    131072 words long.
 Raffenetti 2 integral format.
 Two-electron integral symmetry is turned on.
 One-electron integrals computed using PRISM.
 NBasis=   196 RedAO= T EigKep=  2.57D-05  NBF=   196
 NBsUse=   196 1.00D-06 EigRej= -1.00D+00 NBFU=   196
 ExpMin= 4.38D-02 ExpMax= 5.48D+03 ExpMxC= 8.25D+02 IAcc=3 IRadAn=         5 AccDes= 0.00D+00
 Harris functional with IExCor= 1009 and IRadAn=       5 diagonalized for initial guess.
 HarFok:  IExCor= 1009 AccDes= 0.00D+00 IRadAn=         5 IDoV= 1 UseB2=F ITyADJ=14
 ICtDFT=  3500011 ScaDFX=  1.000000  1.000000  1.000000  1.000000
 FoFCou: FMM=F IPFlag=           0 FMFlag=      100000 FMFlg1=           0
         NFxFlg=           0 DoJE=T BraDBF=F KetDBF=T FulRan=T
         wScrn=  0.000000 ICntrl=       500 IOpCl=  0 I1Cent=   200000004 NGrid=           0
         NMat0=    1 NMatS0=      1 NMatT0=    0 NMatD0=    1 NMtDS0=    0 NMtDT0=    0
 Petite list used in FoFCou.
 Requested convergence on RMS density matrix=1.00D-08 within 128 cycles.
 Requested convergence on MAX density matrix=1.00D-06.
 Requested convergence on             energy=1.00D-06.
 No special actions if energy rises.
 SCF Done:  E(RM062X) =  -507.081650286     A.U. after   14 cycles
            NFock= 14  Conv=0.41D-08     -V/T= 2.0082

 **********************************************************************

            Population analysis using the SCF Density.

 **********************************************************************

 Orbital symmetries:
       Occupied  (A) (A) (A) (A) (A) (A) (A) (A) (A) (A) (A) (A)
                 (A) (A) (A) (A) (A) (A) (A) (A) (A) (A) (A) (A)
                 (A) (A) (A) (A) (A) (A) (A) (A) (A) (A)
       Virtual   (A) (A) (A) (A) (A) (A) (A) (A) (A) (A) (A) (A)
                 (A) (A) (A) (A) (A) (A) (A) (A) (A) (A) (A) (A)
                 (A) (A) (A) (A) (A) (A) (A) (A) (A) (A) (A) (A)
                 (A) (A) (A) (A) (A) (A) (A) (A) (A) (A) (A) (A)
                 (A) (A) (A) (A) (A) (A) (A) (A) (A) (A) (A) (A)
                 (A) (A) (A) (A) (A) (A) (A) (A) (A) (A) (A) (A)
                 (A) (A) (A) (A) (A) (A) (A) (A) (A) (A) (A) (A)
                 (A) (A) (A) (A) (A) (A) (A) (A) (A) (A) (A) (A)
                 (A) (A) (A) (A) (A) (A) (A) (A) (A) (A) (A) (A)
                 (A) (A) (A) (A) (A) (A) (A) (A) (A) (A) (A) (A)
                 (A) (A) (A) (A) (A) (A) (A) (A) (A) (A) (A) (A)
                 (A) (A) (A) (A) (A) (A) (A) (A) (A) (A) (A) (A)
                 (A) (A) (A) (A) (A) (A) (A) (A) (A) (A) (A) (A)
                 (A) (A) (A) (A) (A) (A)
 The electronic state is 1-A.
 Alpha  occ. eigenvalues --  -19.73679 -19.73538 -19.66818 -14.86827 -14.80700
 Alpha  occ. eigenvalues --  -14.80302 -10.75981 -10.57985 -10.57736  -1.29826
 Alpha  occ. eigenvalues --   -1.24820  -1.23076  -1.15314  -1.00144  -0.92478
 Alpha  occ. eigenvalues --   -0.71809  -0.71237  -0.67167  -0.63939  -0.62699
 Alpha  occ. eigenvalues --   -0.60907  -0.60791  -0.60086  -0.55429  -0.53098
 Alpha  occ. eigenvalues --   -0.51525  -0.48354  -0.45046  -0.45023  -0.41791
 Alpha  occ. eigenvalues --   -0.40119  -0.37288  -0.35289  -0.32874
 Alpha virt. eigenvalues --    0.00459   0.03285   0.03296   0.03548   0.04437
 Alpha virt. eigenvalues --    0.05161   0.05831   0.06962   0.07258   0.07923
 Alpha virt. eigenvalues --    0.08198   0.08864   0.09212   0.10206   0.12079
 Alpha virt. eigenvalues --    0.13815   0.14421   0.14917   0.16539   0.17071
 Alpha virt. eigenvalues --    0.18887   0.19745   0.20023   0.21227   0.22089
 Alpha virt. eigenvalues --    0.23414   0.24183   0.24675   0.24733   0.25337
 Alpha virt. eigenvalues --    0.26014   0.26719   0.27615   0.28248   0.29011
 Alpha virt. eigenvalues --    0.29274   0.30081   0.32607   0.33673   0.34357
 Alpha virt. eigenvalues --    0.35026   0.35269   0.36887   0.37437   0.39964
 Alpha virt. eigenvalues --    0.42125   0.42922   0.43989   0.45005   0.51900
 Alpha virt. eigenvalues --    0.56536   0.71768   0.73217   0.73857   0.76788
 Alpha virt. eigenvalues --    0.77176   0.79409   0.87211   0.91543   0.92307
 Alpha virt. eigenvalues --    0.93049   0.93649   0.95191   0.95535   0.97631
 Alpha virt. eigenvalues --    1.00233   1.02115   1.02853   1.04605   1.06453
 Alpha virt. eigenvalues --    1.07910   1.11705   1.11803   1.17748   1.18197
 Alpha virt. eigenvalues --    1.18565   1.19604   1.21641   1.23528   1.24842
 Alpha virt. eigenvalues --    1.26091   1.28771   1.30732   1.32252   1.33137
 Alpha virt. eigenvalues --    1.35725   1.37278   1.39625   1.39745   1.43186
 Alpha virt. eigenvalues --    1.44416   1.45109   1.47882   1.49714   1.50404
 Alpha virt. eigenvalues --    1.51935   1.53499   1.57712   1.59006   1.62076
 Alpha virt. eigenvalues --    1.65784   1.68113   1.68644   1.77533   1.79989
 Alpha virt. eigenvalues --    1.83759   1.84592   1.92545   1.96201   2.02612
 Alpha virt. eigenvalues --    2.07505   2.09542   2.09728   2.13193   2.17979
 Alpha virt. eigenvalues --    2.18797   2.19915   2.20707   2.24194   2.27814
 Alpha virt. eigenvalues --    2.28145   2.29535   2.32641   2.35041   2.43662
 Alpha virt. eigenvalues --    2.45595   2.52982   2.54859   2.57024   2.63840
 Alpha virt. eigenvalues --    2.65619   2.67946   2.68834   2.69338   2.73442
 Alpha virt. eigenvalues --    2.73615   2.74967   2.83145   2.83940   2.90997
 Alpha virt. eigenvalues --    3.02640   3.02902   3.05333   3.07753   3.14336
 Alpha virt. eigenvalues --    3.18691   3.30349   3.34136   3.36992   3.47579
 Alpha virt. eigenvalues --    3.56861   3.60840   3.73550   4.03959   4.15632
 Alpha virt. eigenvalues --    4.23851   4.28114   4.34099   4.45053   4.66273
 Alpha virt. eigenvalues --    4.67064   4.94862
          Condensed to atoms (all electrons):
               1          2          3          4          5          6
     1  N    7.591852  -0.203163  -0.247393   0.155718  -0.423038   0.023713
     2  N   -0.203163   7.135920   0.278642  -0.038611   0.138544  -0.061696
     3  C   -0.247393   0.278642   5.746727  -0.167302   0.070580   0.399043
     4  C    0.155718  -0.038611  -0.167302   5.714724   0.230531  -0.018835
     5  N   -0.423038   0.138544   0.070580   0.230531   7.167572  -0.010348
     6  H    0.023713  -0.061696   0.399043  -0.018835  -0.010348   0.486376
     7  H    0.027648  -0.018295  -0.008487   0.383129  -0.058756   0.000474
     8  H    0.304623  -0.033535   0.013841   0.004564  -0.016653  -0.000040
     9  C    0.008759  -0.015531  -0.016700  -0.004560  -0.003902   0.000074
    10  O    0.008717   0.007614  -0.036845   0.035074  -0.004124  -0.000453
    11  O   -0.019393   0.022265   0.009904  -0.011688   0.004865  -0.000214
    12  H    0.005866  -0.001836  -0.002741   0.001685  -0.000578  -0.000001
    13  O   -0.020979   0.028575   0.007281  -0.002498  -0.043443   0.000040
    14  H    0.006080  -0.001216  -0.000354  -0.000047   0.001859  -0.000000
               7          8          9         10         11         12
     1  N    0.027648   0.304623   0.008759   0.008717  -0.019393   0.005866
     2  N   -0.018295  -0.033535  -0.015531   0.007614   0.022265  -0.001836
     3  C   -0.008487   0.013841  -0.016700  -0.036845   0.009904  -0.002741
     4  C    0.383129   0.004564  -0.004560   0.035074  -0.011688   0.001685
     5  N   -0.058756  -0.016653  -0.003902  -0.004124   0.004865  -0.000578
     6  H    0.000474  -0.000040   0.000074  -0.000453  -0.000214  -0.000001
     7  H    0.498013  -0.000012   0.000095  -0.000020  -0.000001  -0.000000
     8  H   -0.000012   0.312307   0.000961   0.000090  -0.000253   0.000469
     9  C    0.000095   0.000961   4.366193   0.431163   0.425891   0.001214
    10  O   -0.000020   0.000090   0.431163   8.015066  -0.113012   0.000136
    11  O   -0.000001  -0.000253   0.425891  -0.113012   8.117442   0.003182
    12  H   -0.000000   0.000469   0.001214   0.000136   0.003182   0.313954
    13  O    0.000004  -0.012528  -0.006429   0.000233  -0.004099   0.280839
    14  H   -0.000000   0.000112   0.000529   0.000004   0.000117  -0.016919
              13         14
     1  N   -0.020979   0.006080
     2  N    0.028575  -0.001216
     3  C    0.007281  -0.000354
     4  C   -0.002498  -0.000047
     5  N   -0.043443   0.001859
     6  H    0.000040  -0.000000
     7  H    0.000004  -0.000000
     8  H   -0.012528   0.000112
     9  C   -0.006429   0.000529
    10  O    0.000233   0.000004
    11  O   -0.004099   0.000117
    12  H    0.280839  -0.016919
    13  O    8.292733   0.280400
    14  H    0.280400   0.323885
 Mulliken charges:
               1
     1  N   -0.219010
     2  N   -0.237678
     3  C   -0.046196
     4  C   -0.281884
     5  N   -0.053108
     6  H    0.181867
     7  H    0.176208
     8  H    0.426056
     9  C    0.812244
    10  O   -0.343643
    11  O   -0.435005
    12  H    0.414728
    13  O   -0.800129
    14  H    0.405551
 Sum of Mulliken charges =  -0.00000
 Mulliken charges with hydrogens summed into heavy atoms:
               1
     1  N    0.207045
     2  N   -0.237678
     3  C    0.135671
     4  C   -0.105677
     5  N   -0.053108
     9  C    0.812244
    10  O   -0.343643
    11  O   -0.435005
    13  O    0.020150
 Electronic spatial extent (au):  <R**2>=           1460.9654
 Charge=             -0.0000 electrons
 Dipole moment (field-independent basis, Debye):
    X=              1.9800    Y=              0.5330    Z=              0.4085  Tot=              2.0908
 Quadrupole moment (field-independent basis, Debye-Ang):
   XX=            -51.1078   YY=            -43.8238   ZZ=            -52.8050
   XY=              8.3114   XZ=              0.3122   YZ=              2.0619
 Traceless Quadrupole moment (field-independent basis, Debye-Ang):
   XX=             -1.8623   YY=              5.4217   ZZ=             -3.5595
   XY=              8.3114   XZ=              0.3122   YZ=              2.0619
 Octapole moment (field-independent basis, Debye-Ang**2):
  XXX=             32.3781  YYY=             41.6221  ZZZ=              0.2224  XYY=             12.4635
  XXY=            -10.0349  XXZ=              1.5753  XZZ=             11.1938  YZZ=              2.9254
  YYZ=              9.3003  XYZ=              3.1985
 Hexadecapole moment (field-independent basis, Debye-Ang**3):
 XXXX=          -1150.9112 YYYY=           -489.0335 ZZZZ=            -52.5449 XXXY=             56.0687
 XXXZ=             -1.2882 YYYX=             77.5988 YYYZ=             36.9977 ZZZX=              0.6051
 ZZZY=              2.0636 XXYY=           -270.7746 XXZZ=           -205.0317 YYZZ=           -115.2073
 XXYZ=              3.1747 YYXZ=              9.4396 ZZXY=             -4.6833
 N-N= 4.243460556040D+02 E-N=-2.035217435686D+03  KE= 5.029334383530D+02
 Calling FoFJK, ICntrl=      2127 FMM=F ISym2X=0 I1Cent= 0 IOpClX= 0 NMat=1 NMatS=1 NMatT=0.
 ***** Axes restored to original set *****
 -------------------------------------------------------------------
 Center     Atomic                   Forces (Hartrees/Bohr)
 Number     Number              X              Y              Z
 -------------------------------------------------------------------
      1        7           0.000507979   -0.000409297    0.000902013
      2        7           0.000202327    0.000104510   -0.000061495
      3        6           0.000169296    0.000065277    0.000177513
      4        6           0.000103413   -0.000219824   -0.000109548
      5        7          -0.000098836   -0.000059934    0.000337582
      6        1           0.000000119   -0.000008736    0.000027145
      7        1           0.000013939   -0.000017178   -0.000095561
      8        1           0.000545805   -0.001045040   -0.001661365
      9        6           0.000086212    0.000747929    0.000063757
     10        8           0.000029603   -0.000267062   -0.000101370
     11        8          -0.000440974   -0.000601403    0.000423027
     12        1           0.001168513   -0.000732741   -0.001653676
     13        8          -0.002796258    0.002329678    0.001717800
     14        1           0.000508863    0.000113821    0.000034179
 -------------------------------------------------------------------
 Cartesian Forces:  Max     0.002796258 RMS     0.000819611

 GradGradGradGradGradGradGradGradGradGradGradGradGradGradGradGradGradGrad
 Berny optimization.
 FormGI is forming the generalized inverse of G from B-inverse, IUseBI=4.
 Internal  Forces:  Max     0.002004411 RMS     0.000514394
 Search for a local minimum.
 Step number   1 out of a maximum of   62
 All quantities printed in internal units (Hartrees-Bohrs-Radians)
 Mixed Optimization -- En-DIIS/RFO-DIIS
 Second derivative matrix not updated -- first step.
 ITU=  0
     Eigenvalues ---    0.00230   0.00230   0.00770   0.00886   0.01464
     Eigenvalues ---    0.01886   0.02153   0.02256   0.02317   0.02452
     Eigenvalues ---    0.04055   0.04776   0.04776   0.05415   0.15696
     Eigenvalues ---    0.16000   0.16000   0.16000   0.16000   0.16000
     Eigenvalues ---    0.22616   0.23227   0.25000   0.25000   0.36088
     Eigenvalues ---    0.36167   0.41817   0.44407   0.53286   0.53974
     Eigenvalues ---    0.55144   0.56430   0.59717   0.62314   1.23400
     Eigenvalues ---    1.27961
 RFO step:  Lambda=-5.24864890D-04 EMin= 2.30000000D-03
 Linear search not attempted -- first point.
 Iteration  1 RMS(Cart)=  0.16137297 RMS(Int)=  0.01781964
 Iteration  2 RMS(Cart)=  0.06476963 RMS(Int)=  0.00174576
 Iteration  3 RMS(Cart)=  0.00273757 RMS(Int)=  0.00024531
 Iteration  4 RMS(Cart)=  0.00000346 RMS(Int)=  0.00024530
 Iteration  5 RMS(Cart)=  0.00000000 RMS(Int)=  0.00024530
 Variable       Old X    -DE/DX   Delta X   Delta X   Delta X     New X
                                 (Linear)    (Quad)   (Total)
    R1        2.49131  -0.00017   0.00000  -0.00028  -0.00028   2.49103
    R2        2.48263   0.00011   0.00000   0.00019   0.00019   2.48282
    R3        1.92670   0.00086   0.00000   0.00192   0.00192   1.92862
    R4        2.51930   0.00015   0.00000   0.00024   0.00024   2.51954
    R5        2.65128  -0.00013   0.00000  -0.00028  -0.00029   2.65100
    R6        2.03944   0.00001   0.00000   0.00002   0.00002   2.03946
    R7        2.51976   0.00007   0.00000   0.00014   0.00014   2.51989
    R8        2.03822   0.00002   0.00000   0.00006   0.00006   2.03828
    R9        3.52763   0.00196   0.00000   0.03587   0.03587   3.56350
   R10        2.19160   0.00027   0.00000   0.00021   0.00021   2.19181
   R11        2.20507  -0.00042   0.00000  -0.00034  -0.00034   2.20473
   R12        3.84905   0.00026   0.00000   0.00644   0.00644   3.85549
   R13        1.82756  -0.00041   0.00000  -0.00075  -0.00075   1.82680
   R14        1.81704  -0.00013   0.00000  -0.00023  -0.00023   1.81681
    A1        2.02654  -0.00019   0.00000  -0.00084  -0.00084   2.02569
    A2        2.09072   0.00032   0.00000   0.00182   0.00181   2.09253
    A3        2.16593  -0.00013   0.00000  -0.00097  -0.00098   2.16496
    A4        1.81263   0.00009   0.00000   0.00034   0.00034   1.81297
    A5        1.88431   0.00007   0.00000   0.00030   0.00030   1.88461
    A6        2.11232  -0.00003   0.00000  -0.00013  -0.00013   2.11219
    A7        2.28655  -0.00004   0.00000  -0.00017  -0.00017   2.28638
    A8        1.89073  -0.00017   0.00000  -0.00073  -0.00073   1.88999
    A9        2.27806   0.00008   0.00000   0.00031   0.00031   2.27837
   A10        2.11440   0.00009   0.00000   0.00042   0.00042   2.11482
   A11        1.81057   0.00020   0.00000   0.00092   0.00092   1.81149
   A12        2.44549   0.00200   0.00000   0.00800   0.00800   2.45349
   A13        2.28369  -0.00048   0.00000  -0.00301  -0.00301   2.28068
   A14        2.71961   0.00105   0.00000   0.00419   0.00419   2.72380
   A15        1.93383  -0.00084   0.00000  -0.01138  -0.01238   1.92146
   A16        2.44983  -0.00008   0.00000  -0.00618  -0.00717   2.44266
   A17        1.86783   0.00073   0.00000  -0.00179  -0.00282   1.86501
   A18        3.20646   0.00008   0.00000   0.00171   0.00171   3.20816
   A19        3.14230  -0.00022   0.00000  -0.00449  -0.00449   3.13781
    D1       -0.00049  -0.00004   0.00000  -0.00195  -0.00195  -0.00243
    D2        3.13872   0.00011   0.00000   0.00544   0.00545  -3.13902
    D3        0.00014   0.00011   0.00000   0.00514   0.00514   0.00528
    D4       -3.13896  -0.00004   0.00000  -0.00260  -0.00259  -3.14155
    D5       -0.15656  -0.00002   0.00000   0.00341   0.00341  -0.15314
    D6        2.98245   0.00014   0.00000   0.01142   0.01143   2.99388
    D7        0.00061  -0.00005   0.00000  -0.00203  -0.00203  -0.00142
    D8       -3.14076   0.00001   0.00000   0.00040   0.00040  -3.14037
    D9       -0.00056   0.00012   0.00000   0.00521   0.00521   0.00465
   D10        3.14124   0.00007   0.00000   0.00275   0.00275  -3.13920
   D11        3.14078   0.00005   0.00000   0.00246   0.00246  -3.13995
   D12       -0.00061  -0.00000   0.00000  -0.00000  -0.00000  -0.00061
   D13        0.00026  -0.00014   0.00000  -0.00599  -0.00599  -0.00573
   D14       -3.14152  -0.00009   0.00000  -0.00380  -0.00380   3.13787
   D15        0.40640  -0.00112   0.00000  -0.28927  -0.28907   0.11734
   D16       -2.41581  -0.00024   0.00000  -0.19327  -0.19346  -2.60927
   D17        0.65210  -0.00024   0.00000  -0.08549  -0.08549   0.56661
   D18       -0.80836   0.00037   0.00000   0.03553   0.03543  -0.77293
   D19        2.12221  -0.00026   0.00000  -0.02813  -0.02803   2.09418
         Item               Value     Threshold  Converged?
 Maximum Force            0.002004     0.000450     NO 
 RMS     Force            0.000514     0.000300     NO 
 Maximum Displacement     0.923812     0.001800     NO 
 RMS     Displacement     0.221183     0.001200     NO 
 Predicted change in Energy=-2.938978D-04
 GradGradGradGradGradGradGradGradGradGradGradGradGradGradGradGradGradGrad

                          Input orientation:                          
 ---------------------------------------------------------------------
 Center     Atomic      Atomic             Coordinates (Angstroms)
 Number     Number       Type             X           Y           Z
 ---------------------------------------------------------------------
      1          7           0        1.250045    0.768574   -0.058585
      2          7           0        0.469880   -0.242912    0.266802
      3          6           0        1.291607   -1.292869    0.268497
      4          6           0        2.574726   -0.839111   -0.071637
      5          7           0        2.514085    0.478320   -0.268722
      6          1           0        0.929494   -2.282131    0.502984
      7          1           0        3.503393   -1.377328   -0.177925
      8          1           0        0.860465    1.709234   -0.129139
      9          6           0       -2.181047   -0.862919   -0.189699
     10          8           0       -1.889383   -1.970458   -0.372868
     11          8           0       -2.548998    0.229642   -0.010563
     12          1           0       -1.509655    1.982022    0.096677
     13          8           0       -0.800017    2.602873   -0.116557
     14          1           0       -1.216852    3.386611   -0.485774
 ---------------------------------------------------------------------
                    Distance matrix (angstroms):
                    1          2          3          4          5
     1  N    0.000000
     2  N    1.318195   0.000000
     3  C    2.087644   1.333284   0.000000
     4  C    2.083170   2.213677   1.402848   0.000000
     5  N    1.313850   2.232876   2.218145   1.333470   0.000000
     6  H    3.118480   2.103673   1.079236   2.262584   3.275141
     7  H    3.113955   3.269080   2.257969   1.078610   2.104853
     8  H    1.020584   2.029828   3.058860   3.071817   2.066178
     9  C    3.801493   2.760473   3.529040   4.757297   4.883588
    10  O    4.178167   2.993278   3.314992   4.615079   5.039632
    11  O    3.837379   3.068202   4.140792   5.234358   5.075756
    12  H    3.018694   2.982924   4.312946   4.966819   4.311047
    13  O    2.751503   3.139760   4.438464   4.820597   3.939562
    14  H    3.622456   4.072453   5.362725   5.692476   4.735521
                    6          7          8          9         10
     6  H    0.000000
     7  H    2.811985   0.000000
     8  H    4.041701   4.063781   0.000000
     9  C    3.488472   5.707680   3.983771   0.000000
    10  O    2.968219   5.428797   4.600131   1.159855   0.000000
    11  O    4.321185   6.264327   3.718560   1.166690   2.325252
    12  H    4.929253   6.040803   2.396430   2.937085   3.998346
    13  O    5.219033   5.862176   1.885722   3.731529   4.708266
    14  H    6.141586   6.713464   2.693701   4.367589   5.400299
                   11         12         13         14
    11  O    0.000000
    12  H    2.040237   0.000000
    13  O    2.949982   0.966702   0.000000
    14  H    3.459319   1.548500   0.961414   0.000000
 Stoichiometry    C3H5N3O3
 Framework group  C1[X(C3H5N3O3)]
 Deg. of freedom    36
 Full point group                 C1      NOp   1
 Largest Abelian subgroup         C1      NOp   1
 Largest concise Abelian subgroup C1      NOp   1
                         Standard orientation:                         
 ---------------------------------------------------------------------
 Center     Atomic      Atomic             Coordinates (Angstroms)
 Number     Number       Type             X           Y           Z
 ---------------------------------------------------------------------
      1          7           0       -1.232118    0.796453    0.013270
      2          7           0       -0.475542   -0.230397   -0.319614
      3          6           0       -1.312609   -1.267699   -0.288486
      4          6           0       -2.579866   -0.790668    0.078235
      5          7           0       -2.494661    0.527840    0.258288
      6          1           0       -0.971291   -2.264945   -0.520328
      7          1           0       -3.513486   -1.313474    0.213976
      8          1           0       -0.826910    1.731825    0.063045
      9          6           0        2.176488   -0.885390    0.077797
     10          8           0        1.873046   -1.986221    0.281161
     11          8           0        2.556062    0.199351   -0.123264
     12          1           0        1.540587    1.965991   -0.225056
     13          8           0        0.845865    2.599931   -0.001464
     14          1           0        1.283485    3.381384    0.348019
 ---------------------------------------------------------------------
 Rotational constants (GHZ):           2.0086051           1.0860040           0.7158776
 Standard basis: 6-31+G(d,p) (6D, 7F)
 There are   196 symmetry adapted cartesian basis functions of A   symmetry.
 There are   196 symmetry adapted basis functions of A   symmetry.
   196 basis functions,   323 primitive gaussians,   196 cartesian basis functions
    34 alpha electrons       34 beta electrons
       nuclear repulsion energy       423.8529998799 Hartrees.
 NAtoms=   14 NActive=   14 NUniq=   14 SFac= 1.00D+00 NAtFMM=   60 NAOKFM=F Big=F
 Integral buffers will be    131072 words long.
 Raffenetti 2 integral format.
 Two-electron integral symmetry is turned on.
 One-electron integrals computed using PRISM.
 NBasis=   196 RedAO= T EigKep=  3.42D-05  NBF=   196
 NBsUse=   196 1.00D-06 EigRej= -1.00D+00 NBFU=   196
 Initial guess from the checkpoint file:  "/home/gau/soft/scratch/Gau-76170.chk"
 B after Tr=     0.000000   -0.000000    0.000000
         Rot=    0.999939   -0.000275   -0.000423    0.011029 Ang=  -1.27 deg.
 ExpMin= 4.38D-02 ExpMax= 5.48D+03 ExpMxC= 8.25D+02 IAcc=3 IRadAn=         5 AccDes= 0.00D+00
 Harris functional with IExCor= 1009 and IRadAn=       5 diagonalized for initial guess.
 HarFok:  IExCor= 1009 AccDes= 0.00D+00 IRadAn=         5 IDoV= 1 UseB2=F ITyADJ=14
 ICtDFT=  3500011 ScaDFX=  1.000000  1.000000  1.000000  1.000000
 FoFCou: FMM=F IPFlag=           0 FMFlag=      100000 FMFlg1=           0
         NFxFlg=           0 DoJE=T BraDBF=F KetDBF=T FulRan=T
         wScrn=  0.000000 ICntrl=       500 IOpCl=  0 I1Cent=   200000004 NGrid=           0
         NMat0=    1 NMatS0=      1 NMatT0=    0 NMatD0=    1 NMtDS0=    0 NMtDT0=    0
 Petite list used in FoFCou.
 Requested convergence on RMS density matrix=1.00D-08 within 128 cycles.
 Requested convergence on MAX density matrix=1.00D-06.
 Requested convergence on             energy=1.00D-06.
 No special actions if energy rises.
 SCF Done:  E(RM062X) =  -507.081142540     A.U. after   15 cycles
            NFock= 15  Conv=0.31D-08     -V/T= 2.0083
 Calling FoFJK, ICntrl=      2127 FMM=F ISym2X=0 I1Cent= 0 IOpClX= 0 NMat=1 NMatS=1 NMatT=0.
 ***** Axes restored to original set *****
 -------------------------------------------------------------------
 Center     Atomic                   Forces (Hartrees/Bohr)
 Number     Number              X              Y              Z
 -------------------------------------------------------------------
      1        7           0.000631701    0.000275439    0.001192075
      2        7          -0.000945453   -0.000598699   -0.000747821
      3        6           0.000065940    0.000403122   -0.000367014
      4        6           0.000070846    0.000121844    0.000875170
      5        7           0.000150125    0.000219732   -0.000533247
      6        1           0.000104965   -0.000076496   -0.000560188
      7        1           0.000025713    0.000059431    0.000109652
      8        1           0.000401458   -0.001784021   -0.000893839
      9        6          -0.001104155    0.000168956    0.001309753
     10        8           0.000967632    0.000388685    0.000097212
     11        8          -0.000089562   -0.000206018   -0.000635981
     12        1           0.000971134   -0.000965559   -0.000572372
     13        8          -0.001822894    0.001609654    0.000832763
     14        1           0.000572551    0.000383932   -0.000106164
 -------------------------------------------------------------------
 Cartesian Forces:  Max     0.001822894 RMS     0.000747243

 GradGradGradGradGradGradGradGradGradGradGradGradGradGradGradGradGradGrad
 Berny optimization.
 Using GEDIIS/GDIIS optimizer.
 FormGI is forming the generalized inverse of G from B-inverse, IUseBI=4.
 Internal  Forces:  Max     0.003185388 RMS     0.001128721
 Search for a local minimum.
 Step number   2 out of a maximum of   62
 All quantities printed in internal units (Hartrees-Bohrs-Radians)
 Mixed Optimization -- RFO/linear search
 Update second derivatives using D2CorX and points    2    1
 DE=  5.08D-04 DEPred=-2.94D-04 R=-1.73D+00
 Trust test=-1.73D+00 RLast= 3.64D-01 DXMaxT set to 1.50D-01
 ITU= -1  0
 Use linear search instead of GDIIS.
     Eigenvalues ---    0.00201   0.00466   0.00898   0.01197   0.01809
     Eigenvalues ---    0.02149   0.02232   0.02254   0.02451   0.03044
     Eigenvalues ---    0.04035   0.04579   0.04803   0.05405   0.15522
     Eigenvalues ---    0.15740   0.16000   0.16000   0.16000   0.16214
     Eigenvalues ---    0.22601   0.23242   0.24051   0.25092   0.36089
     Eigenvalues ---    0.36167   0.41819   0.44345   0.53294   0.53945
     Eigenvalues ---    0.55144   0.56443   0.59718   0.62314   1.23370
     Eigenvalues ---    1.27955
 RFO step:  Lambda=-3.10332379D-04 EMin= 2.01000069D-03
 Quartic linear search produced a step of -0.77552.
 Iteration  1 RMS(Cart)=  0.15405708 RMS(Int)=  0.01100271
 Iteration  2 RMS(Cart)=  0.02706530 RMS(Int)=  0.00030783
 Iteration  3 RMS(Cart)=  0.00050249 RMS(Int)=  0.00018477
 Iteration  4 RMS(Cart)=  0.00000022 RMS(Int)=  0.00018477
 Variable       Old X    -DE/DX   Delta X   Delta X   Delta X     New X
                                 (Linear)    (Quad)   (Total)
    R1        2.49103   0.00047   0.00022  -0.00025  -0.00003   2.49100
    R2        2.48282   0.00000  -0.00014   0.00028   0.00014   2.48296
    R3        1.92862  -0.00034  -0.00149   0.00271   0.00121   1.92984
    R4        2.51954   0.00008  -0.00019   0.00039   0.00021   2.51975
    R5        2.65100  -0.00008   0.00022  -0.00048  -0.00026   2.65074
    R6        2.03946  -0.00009  -0.00002  -0.00002  -0.00004   2.03942
    R7        2.51989  -0.00031  -0.00011   0.00008  -0.00003   2.51987
    R8        2.03828  -0.00002  -0.00004   0.00007   0.00003   2.03831
    R9        3.56350   0.00110  -0.02782   0.05742   0.02960   3.59310
   R10        2.19181  -0.00014  -0.00016   0.00029   0.00012   2.19193
   R11        2.20473  -0.00078   0.00027  -0.00065  -0.00038   2.20434
   R12        3.85549  -0.00023  -0.00500   0.00829   0.00330   3.85879
   R13        1.82680  -0.00011   0.00059  -0.00117  -0.00058   1.82622
   R14        1.81681   0.00011   0.00018  -0.00031  -0.00013   1.81668
    A1        2.02569   0.00037   0.00065  -0.00086  -0.00021   2.02549
    A2        2.09253   0.00066  -0.00140   0.00364   0.00224   2.09477
    A3        2.16496  -0.00102   0.00076  -0.00278  -0.00202   2.16293
    A4        1.81297  -0.00065  -0.00027  -0.00001  -0.00027   1.81270
    A5        1.88461   0.00038  -0.00023   0.00078   0.00055   1.88516
    A6        2.11219   0.00002   0.00010  -0.00010   0.00001   2.11220
    A7        2.28638  -0.00039   0.00013  -0.00070  -0.00057   2.28582
    A8        1.88999   0.00006   0.00057  -0.00111  -0.00054   1.88946
    A9        2.27837   0.00001  -0.00024   0.00053   0.00028   2.27866
   A10        2.11482  -0.00007  -0.00032   0.00058   0.00025   2.11507
   A11        1.81149  -0.00015  -0.00071   0.00119   0.00048   1.81197
   A12        2.45349   0.00189  -0.00620   0.01356   0.00735   2.46084
   A13        2.28068  -0.00218   0.00233  -0.00742  -0.00508   2.27560
   A14        2.72380   0.00231  -0.00325   0.00825   0.00500   2.72880
   A15        1.92146  -0.00070   0.00960  -0.01632  -0.00597   1.91549
   A16        2.44266  -0.00059   0.00556  -0.00870  -0.00240   2.44027
   A17        1.86501   0.00164   0.00219   0.00118   0.00414   1.86915
   A18        3.20816  -0.00227  -0.00132  -0.00770  -0.00903   3.19913
   A19        3.13781   0.00015   0.00348  -0.00594  -0.00246   3.13535
    D1       -0.00243   0.00020   0.00151  -0.00018   0.00132  -0.00111
    D2       -3.13902  -0.00071  -0.00422   0.00017  -0.00406   3.14011
    D3        0.00528  -0.00054  -0.00399   0.00166  -0.00233   0.00295
    D4       -3.14155   0.00042   0.00201   0.00131   0.00331  -3.13824
    D5       -0.15314   0.00275  -0.00265   0.07103   0.06839  -0.08475
    D6        2.99388   0.00176  -0.00886   0.07141   0.06255   3.05643
    D7       -0.00142   0.00023   0.00157  -0.00133   0.00024  -0.00118
    D8       -3.14037   0.00024  -0.00031   0.00273   0.00243  -3.13794
    D9        0.00465  -0.00056  -0.00404   0.00240  -0.00164   0.00301
   D10       -3.13920  -0.00002  -0.00213   0.00422   0.00209  -3.13711
   D11       -3.13995  -0.00058  -0.00191  -0.00221  -0.00412   3.13912
   D12       -0.00061  -0.00003   0.00000  -0.00039  -0.00039  -0.00100
   D13       -0.00573   0.00064   0.00464  -0.00236   0.00228  -0.00345
   D14        3.13787   0.00016   0.00295  -0.00398  -0.00103   3.13684
   D15        0.11734   0.00319   0.22418  -0.13120   0.09283   0.21016
   D16       -2.60927   0.00152   0.15004  -0.04275   0.10743  -2.50184
   D17        0.56661   0.00243   0.06630   0.10195   0.16825   0.73486
   D18       -0.77293   0.00160  -0.02748   0.06350   0.03611  -0.73682
   D19        2.09418   0.00232   0.02174   0.00395   0.02559   2.11977
         Item               Value     Threshold  Converged?
 Maximum Force            0.003185     0.000450     NO 
 RMS     Force            0.001129     0.000300     NO 
 Maximum Displacement     0.680463     0.001800     NO 
 RMS     Displacement     0.172612     0.001200     NO 
 Predicted change in Energy=-1.707213D-04
 GradGradGradGradGradGradGradGradGradGradGradGradGradGradGradGradGradGrad

                          Input orientation:                          
 ---------------------------------------------------------------------
 Center     Atomic      Atomic             Coordinates (Angstroms)
 Number     Number       Type             X           Y           Z
 ---------------------------------------------------------------------
      1          7           0        1.247132    0.765894   -0.033630
      2          7           0        0.443171   -0.274538    0.059903
      3          6           0        1.272388   -1.318622    0.074968
      4          6           0        2.584720   -0.831587   -0.015472
      5          7           0        2.532879    0.499287   -0.080200
      6          1           0        0.895183   -2.327488    0.142899
      7          1           0        3.527287   -1.355533   -0.037436
      8          1           0        0.859258    1.710039   -0.066005
      9          6           0       -2.170309   -0.862116   -0.050140
     10          8           0       -1.853126   -1.977595   -0.027397
     11          8           0       -2.553180    0.239324   -0.080734
     12          1           0       -1.527132    2.000501    0.042433
     13          8           0       -0.808311    2.620700   -0.138020
     14          1           0       -1.202216    3.401279   -0.537676
 ---------------------------------------------------------------------
                    Distance matrix (angstroms):
                    1          2          3          4          5
     1  N    0.000000
     2  N    1.318180   0.000000
     3  C    2.087495   1.333394   0.000000
     4  C    2.083607   2.214095   1.402711   0.000000
     5  N    1.313924   2.232782   2.217591   1.333456   0.000000
     6  H    3.118339   2.103760   1.079217   2.262153   3.274520
     7  H    3.114414   3.269525   2.258000   1.078626   2.105002
     8  H    1.021227   2.031632   3.059957   3.072399   2.065703
     9  C    3.785445   2.680977   3.475085   4.755254   4.896356
    10  O    4.139852   2.860246   3.195867   4.583444   5.037339
    11  O    3.836908   3.043346   4.133571   5.248726   5.092699
    12  H    3.037528   3.009684   4.342228   4.993135   4.330401
    13  O    2.770568   3.160345   4.460149   4.842103   3.958192
    14  H    3.632991   4.071367   5.364370   5.703573   4.752029
                    6          7          8          9         10
     6  H    0.000000
     7  H    2.811617   0.000000
     8  H    4.043087   4.064102   0.000000
     9  C    3.403207   5.718936   3.974231   0.000000
    10  O    2.775721   5.416263   4.577900   1.159921   0.000000
    11  O    4.304618   6.286296   3.715905   1.166488   2.325435
    12  H    4.960764   6.067659   2.406446   2.935442   3.992041
    13  O    5.240741   5.883702   1.901388   3.740691   4.716799
    14  H    6.138488   6.726492   2.707848   4.399027   5.442092
                   11         12         13         14
    11  O    0.000000
    12  H    2.041982   0.000000
    13  O    2.952762   0.966393   0.000000
    14  H    3.468698   1.550574   0.961348   0.000000
 Stoichiometry    C3H5N3O3
 Framework group  C1[X(C3H5N3O3)]
 Deg. of freedom    36
 Full point group                 C1      NOp   1
 Largest Abelian subgroup         C1      NOp   1
 Largest concise Abelian subgroup C1      NOp   1
                         Standard orientation:                         
 ---------------------------------------------------------------------
 Center     Atomic      Atomic             Coordinates (Angstroms)
 Number     Number       Type             X           Y           Z
 ---------------------------------------------------------------------
      1          7           0       -1.222353    0.801927   -0.023307
      2          7           0       -0.442458   -0.259041   -0.084212
      3          6           0       -1.294284   -1.284196   -0.046928
      4          6           0       -2.594449   -0.764864    0.039453
      5          7           0       -2.512880    0.566057    0.049502
      6          1           0       -0.939991   -2.303114   -0.078403
      7          1           0       -3.547812   -1.266419    0.093992
      8          1           0       -0.813677    1.737755   -0.033933
      9          6           0        2.158846   -0.899650    0.018140
     10          8           0        1.817241   -2.007814    0.044490
     11          8           0        2.565915    0.193345   -0.000587
     12          1           0        1.576860    1.970498   -0.182760
     13          8           0        0.874071    2.613289   -0.018987
     14          1           0        1.289968    3.400392    0.343903
 ---------------------------------------------------------------------
 Rotational constants (GHZ):           2.0184540           1.1015712           0.7134380
 Standard basis: 6-31+G(d,p) (6D, 7F)
 There are   196 symmetry adapted cartesian basis functions of A   symmetry.
 There are   196 symmetry adapted basis functions of A   symmetry.
   196 basis functions,   323 primitive gaussians,   196 cartesian basis functions
    34 alpha electrons       34 beta electrons
       nuclear repulsion energy       424.8869717810 Hartrees.
 NAtoms=   14 NActive=   14 NUniq=   14 SFac= 1.00D+00 NAtFMM=   60 NAOKFM=F Big=F
 Integral buffers will be    131072 words long.
 Raffenetti 2 integral format.
 Two-electron integral symmetry is turned on.
 One-electron integrals computed using PRISM.
 NBasis=   196 RedAO= T EigKep=  2.63D-05  NBF=   196
 NBsUse=   196 1.00D-06 EigRej= -1.00D+00 NBFU=   196
 Lowest energy guess from the checkpoint file:  "/home/gau/soft/scratch/Gau-76170.chk"
 B after Tr=    -0.000000   -0.000000    0.000000
         Rot=    0.999886    0.000169    0.000039    0.015131 Ang=   1.73 deg.
 B after Tr=    -0.000000   -0.000000   -0.000000
         Rot=    0.999991    0.000732    0.000817    0.004091 Ang=   0.49 deg.
 Requested convergence on RMS density matrix=1.00D-08 within 128 cycles.
 Requested convergence on MAX density matrix=1.00D-06.
 Requested convergence on             energy=1.00D-06.
 No special actions if energy rises.
 SCF Done:  E(RM062X) =  -507.081845304     A.U. after   12 cycles
            NFock= 12  Conv=0.58D-08     -V/T= 2.0083
 Calling FoFJK, ICntrl=      2127 FMM=F ISym2X=0 I1Cent= 0 IOpClX= 0 NMat=1 NMatS=1 NMatT=0.
 ***** Axes restored to original set *****
 -------------------------------------------------------------------
 Center     Atomic                   Forces (Hartrees/Bohr)
 Number     Number              X              Y              Z
 -------------------------------------------------------------------
      1        7           0.000362040    0.001019437    0.000836013
      2        7           0.000948090    0.000667837   -0.000178758
      3        6          -0.000246381   -0.000200025   -0.000351899
      4        6          -0.000431382    0.000414703    0.000329116
      5        7           0.000360701    0.000546004   -0.000376661
      6        1          -0.000122431    0.000059740   -0.000003331
      7        1          -0.000026772    0.000054613    0.000145425
      8        1           0.000405507   -0.002174846   -0.000866639
      9        6           0.001472225   -0.000518397   -0.000529658
     10        8          -0.001763309   -0.000511559    0.000271438
     11        8          -0.001111107    0.000045949    0.000722795
     12        1           0.000488355   -0.000791056   -0.001338259
     13        8          -0.000636966    0.001273347    0.001446825
     14        1           0.000301429    0.000114253   -0.000106406
 -------------------------------------------------------------------
 Cartesian Forces:  Max     0.002174846 RMS     0.000771629

 GradGradGradGradGradGradGradGradGradGradGradGradGradGradGradGradGradGrad
 Berny optimization.
 Using GEDIIS/GDIIS optimizer.
 FormGI is forming the generalized inverse of G from B-inverse, IUseBI=4.
 Internal  Forces:  Max     0.007722739 RMS     0.001799325
 Search for a local minimum.
 Step number   3 out of a maximum of   62
 All quantities printed in internal units (Hartrees-Bohrs-Radians)
 Mixed Optimization -- RFO/linear search
 Update second derivatives using D2CorX and points    2    1    3
 DE= -1.95D-04 DEPred=-1.71D-04 R= 1.14D+00
 TightC=F SS=  1.41D+00  RLast= 2.72D-01 DXNew= 2.5227D-01 8.1585D-01
 Trust test= 1.14D+00 RLast= 2.72D-01 DXMaxT set to 2.52D-01
 ITU=  1 -1  0
 Use linear search instead of GDIIS.
     Eigenvalues ---    0.00091   0.00406   0.00796   0.01342   0.01775
     Eigenvalues ---    0.02141   0.02187   0.02252   0.02447   0.02810
     Eigenvalues ---    0.03736   0.04219   0.04820   0.06763   0.15182
     Eigenvalues ---    0.15871   0.16000   0.16000   0.16114   0.19003
     Eigenvalues ---    0.22538   0.23286   0.24490   0.36089   0.36166
     Eigenvalues ---    0.41452   0.42209   0.51626   0.53373   0.55143
     Eigenvalues ---    0.56399   0.59076   0.62239   0.70917   1.24268
     Eigenvalues ---    1.27956
 RFO step:  Lambda=-9.29505989D-04 EMin= 9.14428684D-04
 Quartic linear search produced a step of -0.05442.
 Iteration  1 RMS(Cart)=  0.14103051 RMS(Int)=  0.01265576
 Iteration  2 RMS(Cart)=  0.03293604 RMS(Int)=  0.00080455
 Iteration  3 RMS(Cart)=  0.00128305 RMS(Int)=  0.00050714
 Iteration  4 RMS(Cart)=  0.00000238 RMS(Int)=  0.00050714
 Iteration  5 RMS(Cart)=  0.00000000 RMS(Int)=  0.00050714
 Variable       Old X    -DE/DX   Delta X   Delta X   Delta X     New X
                                 (Linear)    (Quad)   (Total)
    R1        2.49100  -0.00103   0.00002  -0.00195  -0.00193   2.48907
    R2        2.48296  -0.00015  -0.00002   0.00057   0.00055   2.48351
    R3        1.92984  -0.00204  -0.00017   0.00430   0.00413   1.93397
    R4        2.51975  -0.00046  -0.00002   0.00054   0.00052   2.52026
    R5        2.65074   0.00004   0.00003  -0.00115  -0.00112   2.64962
    R6        2.03942  -0.00001   0.00000  -0.00007  -0.00007   2.03936
    R7        2.51987  -0.00011  -0.00001   0.00016   0.00016   2.52002
    R8        2.03831  -0.00005  -0.00000   0.00010   0.00010   2.03841
    R9        3.59310   0.00089  -0.00356   0.16727   0.16371   3.75681
   R10        2.19193   0.00002  -0.00002   0.00080   0.00079   2.19272
   R11        2.20434   0.00087   0.00004  -0.00128  -0.00124   2.20310
   R12        3.85879   0.00153  -0.00053   0.04837   0.04784   3.90663
   R13        1.82622   0.00166   0.00007  -0.00108  -0.00101   1.82521
   R14        1.81668   0.00001   0.00002  -0.00083  -0.00081   1.81587
    A1        2.02549   0.00051   0.00006  -0.00113  -0.00107   2.02442
    A2        2.09477  -0.00001  -0.00022   0.01033   0.01011   2.10488
    A3        2.16293  -0.00050   0.00016  -0.00921  -0.00904   2.15389
    A4        1.81270   0.00015  -0.00000   0.00014   0.00014   1.81284
    A5        1.88516  -0.00032  -0.00005   0.00125   0.00120   1.88636
    A6        2.11220   0.00002   0.00001  -0.00045  -0.00045   2.11175
    A7        2.28582   0.00030   0.00004  -0.00084  -0.00081   2.28501
    A8        1.88946   0.00024   0.00007  -0.00196  -0.00190   1.88756
    A9        2.27866  -0.00009  -0.00003   0.00101   0.00097   2.27963
   A10        2.11507  -0.00015  -0.00004   0.00094   0.00089   2.11597
   A11        1.81197  -0.00058  -0.00008   0.00170   0.00163   1.81359
   A12        2.46084   0.00390  -0.00084   0.04811   0.04728   2.50812
   A13        2.27560   0.00535   0.00044   0.00316   0.00360   2.27920
   A14        2.72880   0.00772  -0.00050   0.04404   0.04354   2.77234
   A15        1.91549   0.00478   0.00100  -0.01544  -0.01643   1.89906
   A16        2.44027  -0.00234   0.00052  -0.02643  -0.02762   2.41264
   A17        1.86915  -0.00202  -0.00007   0.00332   0.00107   1.87022
   A18        3.19913   0.00402   0.00040   0.03807   0.03847   3.23760
   A19        3.13535   0.00062   0.00038  -0.00736  -0.00698   3.12836
    D1       -0.00111   0.00004   0.00003   0.00045   0.00048  -0.00062
    D2        3.14011  -0.00005  -0.00008  -0.00041  -0.00049   3.13962
    D3        0.00295  -0.00019  -0.00015  -0.00038  -0.00054   0.00242
    D4       -3.13824  -0.00010  -0.00004   0.00050   0.00046  -3.13778
    D5       -0.08475   0.00047  -0.00391   0.20301   0.19911   0.11435
    D6        3.05643   0.00037  -0.00403   0.20209   0.19806  -3.02869
    D7       -0.00118   0.00012   0.00010  -0.00031  -0.00022  -0.00140
    D8       -3.13794  -0.00003  -0.00015   0.00625   0.00610  -3.13184
    D9        0.00301  -0.00024  -0.00019   0.00010  -0.00009   0.00292
   D10       -3.13711  -0.00013  -0.00026   0.00755   0.00728  -3.12983
   D11        3.13912  -0.00007   0.00009  -0.00735  -0.00725   3.13187
   D12       -0.00100   0.00004   0.00002   0.00010   0.00012  -0.00088
   D13       -0.00345   0.00025   0.00020   0.00015   0.00035  -0.00309
   D14        3.13684   0.00015   0.00026  -0.00646  -0.00619   3.13064
   D15        0.21016   0.00090   0.01068  -0.25479  -0.24320  -0.03304
   D16       -2.50184  -0.00075   0.00468  -0.12024  -0.11647  -2.61831
   D17        0.73486   0.00041  -0.00450   0.26299   0.25848   0.99335
   D18       -0.73682  -0.00067  -0.00389   0.11138   0.10773  -0.62909
   D19        2.11977  -0.00025   0.00013   0.01587   0.01575   2.13553
         Item               Value     Threshold  Converged?
 Maximum Force            0.007723     0.000450     NO 
 RMS     Force            0.001799     0.000300     NO 
 Maximum Displacement     0.614438     0.001800     NO 
 RMS     Displacement     0.162054     0.001200     NO 
 Predicted change in Energy=-6.132837D-04
 GradGradGradGradGradGradGradGradGradGradGradGradGradGradGradGradGradGrad

                          Input orientation:                          
 ---------------------------------------------------------------------
 Center     Atomic      Atomic             Coordinates (Angstroms)
 Number     Number       Type             X           Y           Z
 ---------------------------------------------------------------------
      1          7           0        1.289164    0.725951   -0.077343
      2          7           0        0.526037   -0.347091   -0.043867
      3          6           0        1.395845   -1.356096    0.019462
      4          6           0        2.689727   -0.815907    0.018999
      5          7           0        2.585368    0.512193   -0.040879
      6          1           0        1.057473   -2.380397    0.050214
      7          1           0        3.652940   -1.300470    0.050135
      8          1           0        0.873275    1.659573   -0.129878
      9          6           0       -2.356692   -0.837959   -0.020210
     10          8           0       -2.178273   -1.965472    0.187788
     11          8           0       -2.644435    0.268890   -0.246594
     12          1           0       -1.571268    2.017075    0.010089
     13          8           0       -0.848693    2.651765   -0.078999
     14          1           0       -1.222724    3.457492   -0.445426
 ---------------------------------------------------------------------
                    Distance matrix (angstroms):
                    1          2          3          4          5
     1  N    0.000000
     2  N    1.317157   0.000000
     3  C    2.087024   1.333667   0.000000
     4  C    2.085230   2.214790   1.402118   0.000000
     5  N    1.314217   2.231417   2.215651   1.333539   0.000000
     6  H    3.117587   2.103712   1.079182   2.261162   3.272588
     7  H    3.116097   3.270365   2.257988   1.078679   2.105644
     8  H    1.023413   2.038302   3.064252   3.074031   2.062926
     9  C    3.967537   2.924319   3.788348   5.046620   5.123212
    10  O    4.397405   3.160081   3.629599   5.004739   5.374327
    11  O    3.963679   3.236113   4.362938   5.449827   5.239500
    12  H    3.139541   3.160836   4.492452   5.116830   4.420961
    13  O    2.877360   3.299130   4.594627   4.955278   4.046233
    14  H    3.729126   4.206455   5.499423   5.812478   4.831150
                    6          7          8          9         10
     6  H    0.000000
     7  H    2.811172   0.000000
     8  H    4.048175   4.064578   0.000000
     9  C    3.747079   6.027814   4.084408   0.000000
    10  O    3.265140   5.870623   4.749085   1.160337   0.000000
    11  O    4.561901   6.496758   3.784430   1.165830   2.323439
    12  H    5.123441   6.188703   2.474508   2.961254   4.032457
    13  O    5.382641   5.991789   1.988017   3.802064   4.812259
    14  H    6.286963   6.830510   2.779441   4.462913   5.542794
                   11         12         13         14
    11  O    0.000000
    12  H    2.067298   0.000000
    13  O    2.988456   0.965859   0.000000
    14  H    3.496852   1.550412   0.960918   0.000000
 Stoichiometry    C3H5N3O3
 Framework group  C1[X(C3H5N3O3)]
 Deg. of freedom    36
 Full point group                 C1      NOp   1
 Largest Abelian subgroup         C1      NOp   1
 Largest concise Abelian subgroup C1      NOp   1
                         Standard orientation:                         
 ---------------------------------------------------------------------
 Center     Atomic      Atomic             Coordinates (Angstroms)
 Number     Number       Type             X           Y           Z
 ---------------------------------------------------------------------
      1          7           0       -1.304388    0.747192    0.009203
      2          7           0       -0.548894   -0.331580    0.028788
      3          6           0       -1.426058   -1.336194    0.028404
      4          6           0       -2.716184   -0.787414    0.009630
      5          7           0       -2.602281    0.541173   -0.004784
      6          1           0       -1.094940   -2.363063    0.051495
      7          1           0       -3.682902   -1.265944    0.013191
      8          1           0       -0.881721    1.679244    0.006691
      9          6           0        2.330120   -0.843940    0.008668
     10          8           0        2.142255   -1.979884   -0.135277
     11          8           0        2.627318    0.271592    0.171217
     12          1           0        1.563907    2.010707   -0.172820
     13          8           0        0.846458    2.654579   -0.113004
     14          1           0        1.229091    3.476554    0.205292
 ---------------------------------------------------------------------
 Rotational constants (GHZ):           1.9886588           0.9765137           0.6567347
 Standard basis: 6-31+G(d,p) (6D, 7F)
 There are   196 symmetry adapted cartesian basis functions of A   symmetry.
 There are   196 symmetry adapted basis functions of A   symmetry.
   196 basis functions,   323 primitive gaussians,   196 cartesian basis functions
    34 alpha electrons       34 beta electrons
       nuclear repulsion energy       415.7245942907 Hartrees.
 NAtoms=   14 NActive=   14 NUniq=   14 SFac= 1.00D+00 NAtFMM=   60 NAOKFM=F Big=F
 Integral buffers will be    131072 words long.
 Raffenetti 2 integral format.
 Two-electron integral symmetry is turned on.
 One-electron integrals computed using PRISM.
 NBasis=   196 RedAO= T EigKep=  3.15D-05  NBF=   196
 NBsUse=   196 1.00D-06 EigRej= -1.00D+00 NBFU=   196
 Initial guess from the checkpoint file:  "/home/gau/soft/scratch/Gau-76170.chk"
 B after Tr=     0.000000    0.000000    0.000000
         Rot=    0.999907    0.000363    0.000261   -0.013644 Ang=   1.56 deg.
 ExpMin= 4.38D-02 ExpMax= 5.48D+03 ExpMxC= 8.25D+02 IAcc=3 IRadAn=         5 AccDes= 0.00D+00
 Harris functional with IExCor= 1009 and IRadAn=       5 diagonalized for initial guess.
 HarFok:  IExCor= 1009 AccDes= 0.00D+00 IRadAn=         5 IDoV= 1 UseB2=F ITyADJ=14
 ICtDFT=  3500011 ScaDFX=  1.000000  1.000000  1.000000  1.000000
 FoFCou: FMM=F IPFlag=           0 FMFlag=      100000 FMFlg1=           0
         NFxFlg=           0 DoJE=T BraDBF=F KetDBF=T FulRan=T
         wScrn=  0.000000 ICntrl=       500 IOpCl=  0 I1Cent=   200000004 NGrid=           0
         NMat0=    1 NMatS0=      1 NMatT0=    0 NMatD0=    1 NMtDS0=    0 NMtDT0=    0
 Petite list used in FoFCou.
 Requested convergence on RMS density matrix=1.00D-08 within 128 cycles.
 Requested convergence on MAX density matrix=1.00D-06.
 Requested convergence on             energy=1.00D-06.
 No special actions if energy rises.
 SCF Done:  E(RM062X) =  -507.080711932     A.U. after   14 cycles
            NFock= 14  Conv=0.78D-08     -V/T= 2.0083
 Calling FoFJK, ICntrl=      2127 FMM=F ISym2X=0 I1Cent= 0 IOpClX= 0 NMat=1 NMatS=1 NMatT=0.
 ***** Axes restored to original set *****
 -------------------------------------------------------------------
 Center     Atomic                   Forces (Hartrees/Bohr)
 Number     Number              X              Y              Z
 -------------------------------------------------------------------
      1        7          -0.000713076    0.003272626   -0.000042781
      2        7          -0.003969509   -0.001200633    0.000233277
      3        6          -0.001632291   -0.000021413   -0.000751929
      4        6          -0.000622738    0.001375575   -0.000258871
      5        7           0.001696142    0.001007828   -0.000566776
      6        1           0.000001594    0.000063029    0.000493701
      7        1          -0.000067099    0.000188867    0.000440383
      8        1           0.000173322   -0.003723324    0.000623919
      9        6          -0.004729220   -0.005323388   -0.001828321
     10        8           0.004251237    0.002194517    0.000681523
     11        8           0.003457001    0.003594539    0.001530422
     12        1           0.000047466   -0.000308159   -0.001493763
     13        8           0.002245679   -0.001359200    0.001314154
     14        1          -0.000138507    0.000239137   -0.000374938
 -------------------------------------------------------------------
 Cartesian Forces:  Max     0.005323388 RMS     0.002004790

 GradGradGradGradGradGradGradGradGradGradGradGradGradGradGradGradGradGrad
 Berny optimization.
 Using GEDIIS/GDIIS optimizer.
 FormGI is forming the generalized inverse of G from B-inverse, IUseBI=4.
 Internal  Forces:  Max     0.013550450 RMS     0.004133181
 Search for a local minimum.
 Step number   4 out of a maximum of   62
 All quantities printed in internal units (Hartrees-Bohrs-Radians)
 Mixed Optimization -- RFO/linear search
 Update second derivatives using D2CorX and points    2    1    4    3
 DE=  1.13D-03 DEPred=-6.13D-04 R=-1.85D+00
 Trust test=-1.85D+00 RLast= 5.16D-01 DXMaxT set to 1.26D-01
 ITU= -1  1 -1  0
 Use linear search instead of GDIIS.
     Eigenvalues ---    0.00258   0.00385   0.00998   0.01414   0.01830
     Eigenvalues ---    0.02151   0.02250   0.02283   0.02465   0.03375
     Eigenvalues ---    0.03804   0.04440   0.04981   0.06903   0.14845
     Eigenvalues ---    0.15819   0.15999   0.16000   0.16944   0.19092
     Eigenvalues ---    0.22706   0.23494   0.25655   0.36089   0.36167
     Eigenvalues ---    0.41856   0.46088   0.52164   0.53344   0.55148
     Eigenvalues ---    0.56325   0.59469   0.62148   0.80660   1.23867
     Eigenvalues ---    1.28014
 RFO step:  Lambda=-2.08011148D-04 EMin= 2.58462046D-03
 Quartic linear search produced a step of -0.78295.
 Iteration  1 RMS(Cart)=  0.12695817 RMS(Int)=  0.02139290
 Iteration  2 RMS(Cart)=  0.04592511 RMS(Int)=  0.00225283
 Iteration  3 RMS(Cart)=  0.00558373 RMS(Int)=  0.00018618
 Iteration  4 RMS(Cart)=  0.00003028 RMS(Int)=  0.00018557
 Iteration  5 RMS(Cart)=  0.00000000 RMS(Int)=  0.00018557
 Variable       Old X    -DE/DX   Delta X   Delta X   Delta X     New X
                                 (Linear)    (Quad)   (Total)
    R1        2.48907   0.00229   0.00151  -0.00038   0.00114   2.49021
    R2        2.48351  -0.00046  -0.00043  -0.00025  -0.00069   2.48282
    R3        1.93397  -0.00645  -0.00323  -0.00521  -0.00844   1.92553
    R4        2.52026  -0.00135  -0.00040  -0.00084  -0.00124   2.51902
    R5        2.64962   0.00172   0.00088   0.00079   0.00167   2.65129
    R6        2.03936  -0.00005   0.00005  -0.00007  -0.00002   2.03934
    R7        2.52002  -0.00029  -0.00012  -0.00020  -0.00032   2.51970
    R8        2.03841  -0.00013  -0.00008  -0.00015  -0.00023   2.03818
    R9        3.75681  -0.00493  -0.12817   0.01141  -0.11676   3.64004
   R10        2.19272  -0.00136  -0.00062  -0.00013  -0.00074   2.19198
   R11        2.20310   0.00263   0.00097   0.00065   0.00162   2.20472
   R12        3.90663  -0.00199  -0.03746   0.01568  -0.02178   3.88485
   R13        1.82521  -0.00247   0.00079   0.00056   0.00135   1.82656
   R14        1.81587   0.00040   0.00064   0.00007   0.00071   1.81658
    A1        2.02442   0.00258   0.00084   0.00351   0.00434   2.02875
    A2        2.10488  -0.00488  -0.00792  -0.00417  -0.01209   2.09279
    A3        2.15389   0.00229   0.00708   0.00067   0.00775   2.16164
    A4        1.81284  -0.00170  -0.00011  -0.00157  -0.00168   1.81117
    A5        1.88636   0.00002  -0.00094  -0.00047  -0.00143   1.88494
    A6        2.11175  -0.00001   0.00035  -0.00010   0.00023   2.11198
    A7        2.28501  -0.00000   0.00063   0.00065   0.00126   2.28627
    A8        1.88756   0.00155   0.00149   0.00199   0.00347   1.89103
    A9        2.27963  -0.00065  -0.00076  -0.00072  -0.00147   2.27816
   A10        2.11597  -0.00090  -0.00070  -0.00129  -0.00198   2.11399
   A11        1.81359  -0.00245  -0.00127  -0.00343  -0.00472   1.80887
   A12        2.50812  -0.01289  -0.03701   0.00420  -0.03281   2.47531
   A13        2.27920  -0.00619  -0.00282   0.00966   0.00684   2.28604
   A14        2.77234  -0.01263  -0.03409   0.01251  -0.02158   2.75075
   A15        1.89906  -0.01355   0.01286  -0.00413   0.00947   1.90853
   A16        2.41264   0.00544   0.02163  -0.00425   0.01801   2.43065
   A17        1.87022   0.00626  -0.00084   0.00246   0.00240   1.87262
   A18        3.23760  -0.01002  -0.03012   0.00264  -0.02748   3.21012
   A19        3.12836   0.00170   0.00547   0.01418   0.01965   3.14801
    D1       -0.00062   0.00007  -0.00038   0.00205   0.00168   0.00106
    D2        3.13962   0.00039   0.00038   0.00005   0.00045   3.14006
    D3        0.00242  -0.00014   0.00042  -0.00716  -0.00674  -0.00432
    D4       -3.13778  -0.00047  -0.00036  -0.00509  -0.00543   3.13997
    D5        0.11435  -0.00076  -0.15589   0.04812  -0.10777   0.00659
    D6       -3.02869  -0.00041  -0.15507   0.04597  -0.10910  -3.13780
    D7       -0.00140   0.00003   0.00017   0.00381   0.00398   0.00258
    D8       -3.13184  -0.00038  -0.00478  -0.00275  -0.00753  -3.13938
    D9        0.00292  -0.00011   0.00007  -0.00829  -0.00824  -0.00532
   D10       -3.12983  -0.00040  -0.00570  -0.00602  -0.01173  -3.14156
   D11        3.13187   0.00036   0.00568  -0.00085   0.00482   3.13669
   D12       -0.00088   0.00007  -0.00009   0.00143   0.00133   0.00045
   D13       -0.00309   0.00015  -0.00028   0.00896   0.00868   0.00559
   D14        3.13064   0.00041   0.00485   0.00694   0.01178  -3.14076
   D15       -0.03304  -0.00277   0.19041   0.03155   0.22166   0.18862
   D16       -2.61831   0.00213   0.09119   0.04592   0.13742  -2.48089
   D17        0.99335  -0.00317  -0.20238  -0.14247  -0.34486   0.64849
   D18       -0.62909   0.00094  -0.08435   0.00659  -0.07790  -0.70698
   D19        2.13553  -0.00053  -0.01233  -0.00474  -0.01694   2.11858
         Item               Value     Threshold  Converged?
 Maximum Force            0.013550     0.000450     NO 
 RMS     Force            0.004133     0.000300     NO 
 Maximum Displacement     0.455059     0.001800     NO 
 RMS     Displacement     0.135007     0.001200     NO 
 Predicted change in Energy=-1.342070D-04
 GradGradGradGradGradGradGradGradGradGradGradGradGradGradGradGradGradGrad

                          Input orientation:                          
 ---------------------------------------------------------------------
 Center     Atomic      Atomic             Coordinates (Angstroms)
 Number     Number       Type             X           Y           Z
 ---------------------------------------------------------------------
      1          7           0        1.263054    0.758028   -0.055109
      2          7           0        0.463907   -0.289240   -0.022159
      3          6           0        1.300830   -1.325680    0.025415
      4          6           0        2.611478   -0.825081    0.021654
      5          7           0        2.552305    0.505777   -0.034797
      6          1           0        0.930013   -2.338586    0.058931
      7          1           0        3.558591   -1.340240    0.051226
      8          1           0        0.868925    1.696763   -0.096205
      9          6           0       -2.222937   -0.860379   -0.016784
     10          8           0       -1.938425   -1.984886   -0.019487
     11          8           0       -2.585782    0.248397   -0.005787
     12          1           0       -1.530546    2.011749    0.051334
     13          8           0       -0.814654    2.631511   -0.142718
     14          1           0       -1.209013    3.401414   -0.562022
 ---------------------------------------------------------------------
                    Distance matrix (angstroms):
                    1          2          3          4          5
     1  N    0.000000
     2  N    1.317760   0.000000
     3  C    2.085605   1.333008   0.000000
     4  C    2.080955   2.213843   1.403000   0.000000
     5  N    1.313854   2.234640   2.219019   1.333368   0.000000
     6  H    3.116559   2.103248   1.079170   2.262612   3.275823
     7  H    3.111836   3.269105   2.257955   1.078557   2.104231
     8  H    1.018946   2.028233   3.055568   3.067585   2.063004
     9  C    3.843546   2.746882   3.554605   4.834696   4.966854
    10  O    4.215960   2.940481   3.305956   4.695579   5.135202
    11  O    3.882743   3.096761   4.193381   5.307035   5.144611
    12  H    3.063878   3.045948   4.376733   5.020443   4.352591
    13  O    2.799015   3.190617   4.490312   4.869643   3.983316
    14  H    3.654527   4.087914   5.384219   5.727136   4.776002
                    6          7          8          9         10
     6  H    0.000000
     7  H    2.811792   0.000000
     8  H    4.038793   4.059485   0.000000
     9  C    3.483091   5.801806   4.013091   0.000000
    10  O    2.891227   5.535138   4.630513   1.159944   0.000000
    11  O    4.365488   6.346679   3.747125   1.166688   2.325255
    12  H    4.997982   6.093861   2.424551   2.955193   4.018019
    13  O    5.271280   5.910811   1.926228   3.767282   4.752806
    14  H    6.156998   6.751992   2.727755   4.414545   5.462474
                   11         12         13         14
    11  O    0.000000
    12  H    2.055772   0.000000
    13  O    2.972352   0.966572   0.000000
    14  H    3.485170   1.552662   0.961294   0.000000
 Stoichiometry    C3H5N3O3
 Framework group  C1[X(C3H5N3O3)]
 Deg. of freedom    36
 Full point group                 C1      NOp   1
 Largest Abelian subgroup         C1      NOp   1
 Largest concise Abelian subgroup C1      NOp   1
                         Standard orientation:                         
 ---------------------------------------------------------------------
 Center     Atomic      Atomic             Coordinates (Angstroms)
 Number     Number       Type             X           Y           Z
 ---------------------------------------------------------------------
      1          7           0       -1.254184    0.782321   -0.002857
      2          7           0       -0.467141   -0.274582    0.000422
      3          6           0       -1.316005   -1.302367   -0.000425
      4          6           0       -2.620869   -0.786921   -0.007776
      5          7           0       -2.546307    0.544356   -0.004548
      6          1           0       -0.956870   -2.320017    0.003785
      7          1           0       -3.573912   -1.291884   -0.010574
      8          1           0       -0.849223    1.717337   -0.001655
      9          6           0        2.212992   -0.876451   -0.000221
[...]
 ! A11   A(1,5,4)              103.7393         -DE/DX =    0.0                 !
 ! A12   A(1,8,13)             142.077          -DE/DX =    0.0                 !
 ! A13   A(9,11,12)            130.0622         -DE/DX =    0.0                 !
 ! A14   A(11,12,13)           166.8156         -DE/DX =   -0.0001              !
 ! A15   A(8,13,12)            105.6822         -DE/DX =   -0.0001              !
 ! A16   A(8,13,14)            133.4201         -DE/DX =    0.0                 !
 ! A17   A(12,13,14)           107.0143         -DE/DX =    0.0                 !
 ! A18   L(10,9,11,1,-1)       183.7132         -DE/DX =    0.0                 !
 ! A19   L(10,9,11,1,-2)       179.9669         -DE/DX =    0.0                 !
 ! D1    D(5,1,2,3)              0.0124         -DE/DX =    0.0                 !
 ! D2    D(8,1,2,3)           -179.8496         -DE/DX =    0.0                 !
 ! D3    D(2,1,5,4)              0.0068         -DE/DX =    0.0                 !
 ! D4    D(8,1,5,4)            179.8622         -DE/DX =    0.0                 !
 ! D5    D(2,1,8,13)             2.6666         -DE/DX =    0.0                 !
 ! D6    D(5,1,8,13)          -177.1838         -DE/DX =    0.0                 !
 ! D7    D(1,2,3,4)             -0.0255         -DE/DX =    0.0                 !
 ! D8    D(1,2,3,6)            179.9584         -DE/DX =    0.0                 !
 ! D9    D(2,3,4,5)              0.0313         -DE/DX =    0.0                 !
 ! D10   D(2,3,4,7)           -179.9838         -DE/DX =    0.0                 !
 ! D11   D(6,3,4,5)           -179.9505         -DE/DX =    0.0                 !
 ! D12   D(6,3,4,7)              0.0345         -DE/DX =    0.0                 !
 ! D13   D(3,4,5,1)             -0.0225         -DE/DX =    0.0                 !
 ! D14   D(7,4,5,1)            179.9909         -DE/DX =    0.0                 !
 ! D15   D(1,8,13,12)           -2.7821         -DE/DX =    0.0                 !
 ! D16   D(1,8,13,14)         -135.9482         -DE/DX =    0.0                 !
 ! D17   D(9,11,12,13)           5.4346         -DE/DX =    0.0                 !
 ! D18   D(11,12,13,8)          -2.2674         -DE/DX =    0.0                 !
 ! D19   D(11,12,13,14)        144.0896         -DE/DX =    0.0                 !
 --------------------------------------------------------------------------------
 GradGradGradGradGradGradGradGradGradGradGradGradGradGradGradGradGradGrad


 ----------------------------------------------------------------------

 Electric dipole moment (input orientation):
 (Debye = 10**-18 statcoulomb cm , SI units = C m)
                  (au)            (Debye)         (10**-30 SI)
   Tot        0.792583D+00      0.201454D+01      0.671979D+01
   x         -0.704299D+00     -0.179015D+01     -0.597129D+01
   y          0.850431D-01      0.216158D+00      0.721025D+00
   z         -0.353438D+00     -0.898349D+00     -0.299657D+01

 Dipole polarizability, Alpha (input orientation).
 (esu units = cm**3 , SI units = C**2 m**2 J**-1)
 Alpha(0;0):
               (au)            (10**-24 esu)      (10**-40 SI)
   iso        0.642060D+02      0.951434D+01      0.105861D+02
   aniso      0.362671D+02      0.537423D+01      0.597964D+01
   xx         0.715044D+02      0.105959D+02      0.117895D+02
   yx        -0.537501D+01     -0.796494D+00     -0.886219D+00
   yy         0.796907D+02      0.118089D+02      0.131392D+02
   zx         0.502978D+00      0.745336D-01      0.829299D-01
   zy        -0.179774D+01     -0.266397D+00     -0.296407D+00
   zz         0.414228D+02      0.613823D+01      0.682970D+01

 ----------------------------------------------------------------------

 Dipole orientation:
     7          1.24373427         -1.59286557         -1.90051198
     7          0.38624769          0.46443385         -0.78753115
     6          0.90801163          2.30144914         -2.43068462
     6          2.10138327          1.20629442         -4.52972113
     7          2.28514625         -1.27499285         -4.13168540
     1          0.41572419          4.23990865         -2.03155401
     1          2.80911574          2.05448365         -6.24262730
     1          1.07069397         -3.29910560         -1.02260651
     6         -1.99463904          1.91289868          3.52955439
     8         -1.95718238          3.97355162          2.78425598
     8         -2.09667003         -0.11160428          4.39744757
     1         -0.95941694         -3.48518044          2.94769549
     8         -0.26685965         -4.84870741          1.94715899
     1          0.37928456         -6.08607089          3.11040036

 Electric dipole moment (dipole orientation):
 (Debye = 10**-18 statcoulomb cm , SI units = C m)
                  (au)            (Debye)         (10**-30 SI)
   Tot        0.792583D+00      0.201454D+01      0.671979D+01
   x          0.000000D+00      0.000000D+00      0.000000D+00
   y          0.000000D+00      0.000000D+00      0.000000D+00
   z          0.792583D+00      0.201454D+01      0.671979D+01

 Dipole polarizability, Alpha (dipole orientation).
 (esu units = cm**3 , SI units = C**2 m**2 J**-1)
 Alpha(0;0):
               (au)            (10**-24 esu)      (10**-40 SI)
   iso        0.642060D+02      0.951434D+01      0.105861D+02
   aniso      0.362671D+02      0.537423D+01      0.597964D+01
   xx         0.472698D+02      0.700466D+01      0.779374D+01
   yx        -0.252715D+01     -0.374485D+00     -0.416671D+00
   yy         0.781357D+02      0.115785D+02      0.128828D+02
   zx        -0.112894D+02     -0.167291D+01     -0.186137D+01
   zy        -0.772281D+01     -0.114440D+01     -0.127332D+01
   zz         0.672124D+02      0.995985D+01      0.110818D+02

 ----------------------------------------------------------------------
 Unable to Open any file for archive entry.
 1\1\GINC-NODE01\Freq\RM062X\6-31+G(d,p)\C3H5N3O3\GAU\07-Dec-2023\0\\#N
  Geom=AllCheck Guess=TCheck SCRF=Check GenChk RM062X/6-31+G(d,p) Freq\
 \test\\0,1\N,1.2479998753,0.7716853342,-0.045925578\N,0.4468901321,-0.
 2750489371,-0.0221579803\C,1.2807762863,-1.3145067716,0.0159316709\C,2
 .5926649134,-0.817131194,0.0122754512\N,2.536217206,0.5144674383,-0.02
 71757477\H,0.9072069776,-2.3266432904,0.043170318\H,3.5385238,-1.33496
 24564,0.0355220706\H,0.8531555932,1.7112087319,-0.0748413156\C,-2.2055
 576156,-0.8733966885,-0.0035617485\O,-1.9180026427,-1.996175735,0.0376
 941747\O,-2.5675323253,0.2351125575,-0.0454347956\H,-1.4949331242,1.96
 34848638,-0.046549513\O,-0.8105219087,2.6466431902,-0.0586885212\H,-1.
 1591417574,3.3848100271,-0.5667676754\\Version=ES64L-G16RevC.01\State=
 1-A\HF=-507.0823262\RMSD=5.446e-09\RMSF=1.356e-05\ZeroPoint=0.0983128\
 Thermal=0.1092668\ETot=-506.9730594\HTot=-506.9721152\GTot=-507.023247
 8\Dipole=-0.7042987,0.0850431,-0.3534377\DipoleDeriv=0.0785086,0.36517
 49,-0.0094259,0.4052766,-0.5432369,0.0206165,-0.0205478,0.0268889,-0.0
 797671,-0.6680587,0.0177913,-0.0043737,-0.1649531,0.1171428,-0.0109404
 ,0.0015474,-0.0109757,-0.1873951,0.0921385,0.2470613,-0.0067005,0.0600
 445,0.0435659,-0.003326,0.0005489,-0.0023325,-0.0841592,0.2285733,-0.1
 334706,0.0072259,0.0620646,-0.0985622,0.0017367,0.000685,-0.0012976,-0
 .09409,-0.3039617,-0.3955047,0.0112878,-0.2175894,-0.077194,-0.0050056
 ,0.0109041,-0.008638,-0.1922466,0.1013204,-0.0595544,0.0010914,-0.0217
 339,0.0379068,0.0035356,0.000047,0.003222,0.1644724,0.0169161,0.048574
 5,-0.0026256,0.0226032,0.0800222,0.0028296,-0.0018011,0.0030097,0.1674
 369,0.423489,-0.2733469,0.0130912,-0.2555711,0.547295,-0.0109954,0.009
 6751,-0.0070931,0.2868679,1.1157254,-0.4732562,0.0195463,-0.401448,2.3
 771806,-0.0711088,0.0151449,-0.0679757,0.557739,-0.4539672,0.1947178,-
 0.0080811,0.1411229,-1.2178721,0.0364818,-0.0051568,0.0343767,-0.26915
 3,-0.5647554,0.2525202,-0.0104046,0.2682421,-1.3208801,0.0421652,-0.01
 2586,0.0385805,-0.291466,0.3256142,0.0768611,-0.0382249,0.0015331,0.53
 93969,0.0000787,-0.0426361,0.0099662,0.3140965,-0.6562419,0.0807329,0.
 0784363,0.0907496,-0.8316495,-0.0415387,0.0967058,-0.0655146,-0.616698
 8,0.2646992,0.0516989,-0.0508424,0.0096588,0.3468847,0.0354708,-0.0525
 302,0.0477831,0.3243632\Polar=71.5043507,-5.3750104,79.6907378,0.50297
 8,-1.797737,41.4228072\Quadrupole=-1.1407858,3.3318877,-2.1911018,-5.7
 051649,0.9920611,-2.7880114\PG=C01 [X(C3H5N3O3)]\NImag=0\\0.73555264,-
 0.14832031,1.01313822,0.00936220,-0.02602082,0.12148689,-0.19587915,-0
 .07694064,0.00106074,0.60121614,-0.14325982,-0.25085572,0.00338784,-0.
 02922909,0.57842681,0.00316217,0.00442436,-0.07664470,0.00499378,-0.01
 407451,0.11225066,-0.01197735,0.04293576,-0.00170759,-0.23216576,0.139
 80151,-0.00541398,0.63044391,-0.01670460,-0.14413331,0.00462576,0.1309
 6859,-0.26878466,0.00691906,0.08419703,0.91272190,0.00022372,0.0049383
 4,0.01337401,-0.00516547,0.00704636,-0.07524367,0.00166400,-0.02236216
 ,0.14023429,-0.05520956,0.03564037,-0.00150163,-0.07075510,0.08499808,
 -0.00328432,-0.29007883,-0.08738526,0.00076519,0.83821013,0.09812131,-
 0.09932231,0.00438349,-0.01555144,0.03497967,-0.00063251,-0.04265875,-
 0.14078635,0.00170578,-0.15396163,0.70438309,-0.00344804,0.00363006,0.
 01321908,-0.00034864,0.00027385,0.01936684,-0.00055853,0.00130166,-0.0
 7165244,0.01043301,-0.01796265,0.13980665,-0.33954840,0.00844589,-0.00
 225452,-0.11223076,-0.04686891,0.00010687,0.01395288,-0.00752393,0.000
 15506,-0.11393520,0.00340574,-0.00047589,0.55544991,0.07591116,-0.1182
 0930,0.00159771,-0.00215363,-0.05113524,0.00245693,-0.10716874,-0.0453
 3213,0.00099497,-0.00450441,-0.38396866,0.00908108,0.01210668,0.604158
 67,-0.00458266,0.00113349,-0.07497095,-0.00111752,0.00222629,0.0322712
 3,0.00316538,0.00182648,0.02022638,-0.00022708,0.00899244,-0.07515001,
 0.00344031,-0.01430169,0.11096152,-0.00383784,0.00736273,-0.00031578,0
 .01264684,0.02118771,-0.00046140,-0.09955423,-0.11150211,0.00273832,0.
 00439315,-0.02056661,0.00065699,-0.00523875,-0.00453625,0.00004090,0.0
 9022154,0.00293536,-0.00276241,0.00033639,-0.00945249,-0.01799914,0.00
 023588,-0.10193388,-0.32649871,0.00800524,0.00205951,0.00181535,-0.000
 06986,0.00101402,0.00051543,0.00019177,0.10677356,0.34575655,-0.000184
 68,0.00036360,0.00765507,0.00045995,0.00048642,-0.00732751,0.00246440,
 0.00796034,-0.03122886,-0.00002334,-0.00026611,-0.00106379,-0.00012948
 ,0.00013392,0.00644971,-0.00262311,-0.00872035,0.02536390,0.00190578,-
 0.00317471,0.00004522,-0.00466244,-0.00008976,-0.00008884,-0.00649299,
 0.01417020,-0.00046130,-0.30463181,0.13162377,-0.00618986,0.00541346,-
 0.00112636,0.00014520,-0.00035745,-0.00042034,0.00002131,0.30831284,0.
 00145569,-0.00842396,0.00046903,-0.00543959,-0.00040343,0.00016421,-0.
 00932048,0.01212368,-0.00047121,0.12285369,-0.12290915,0.00375542,0.02
 956591,-0.01071838,0.00034925,0.00048865,-0.00038810,-0.00002527,-0.14
 110393,0.13005130,-0.00010873,0.00047465,0.00779371,0.00005752,0.00020
 012,0.00664886,0.00022181,-0.00027888,-0.00125171,-0.00593859,0.003855
 05,-0.03074602,-0.00072879,0.00006017,-0.00776249,-0.00000727,-0.00003
 442,-0.00137783,0.00655028,-0.00429333,0.02487287,-0.11916318,0.129152
 09,-0.00426265,0.01516494,-0.02389121,0.00083444,-0.00142901,-0.008881
 03,0.00021622,-0.00832545,-0.00222748,-0.00006272,-0.00693410,0.029906
 16,-0.00074216,0.00137918,-0.00100070,0.00002972,0.00038103,0.00114826
 ,-0.00005605,0.12048590,0.12249760,-0.38669347,0.01115193,0.00986712,-
 0.02051195,0.00039855,-0.00810722,0.00051151,0.00007565,-0.00101611,0.
 00722803,-0.00007562,0.00127555,0.00703049,-0.00047393,0.00051892,-0.0
 0019339,0.00005907,0.00007197,0.00086611,0.00002480,-0.12174736,0.3960
 8679,-0.00378528,0.01082123,-0.01385736,-0.00008536,0.00029361,-0.0106
 3923,0.00022322,0.00006943,0.00556783,-0.00012038,-0.00007796,0.006100
 75,-0.00008058,-0.00024579,-0.01275381,-0.00002166,0.00005489,0.001790
 36,-0.00001763,0.00003784,0.00191966,0.00303417,-0.01129809,0.02540144
 ,0.00032721,-0.00335630,0.00002380,-0.00582957,0.00352706,-0.00017566,
 -0.00159702,0.00166255,-0.00005811,0.00039193,0.00108582,-0.00002298,0
 .00505824,0.00129033,0.00003129,-0.00041402,0.00064569,-0.00002335,0.0
 0026572,0.00017579,-0.00000127,0.00226028,-0.00227906,0.00008723,0.279
 04157,-0.00427060,-0.00485101,0.00015587,0.00293772,-0.00572953,0.0001
 3382,0.00405045,0.00467555,-0.00012848,0.00297281,-0.00174616,0.000106
 56,-0.00128939,-0.00266303,0.00004153,0.00264487,-0.00140042,0.0000269
 6,0.00023738,0.00010186,0.00000138,-0.00436813,0.00240157,-0.00012436,
 -0.49431556,1.85973288,0.00013958,0.00016910,-0.00071778,-0.00009689,0
 .00010544,-0.00266525,-0.00015110,-0.00016360,-0.00002516,-0.00010856,
 0.00007036,0.00015549,0.00003401,0.00010292,0.00046850,-0.00009608,0.0
 0005298,0.00010437,-0.00000988,-0.00000079,0.00009164,0.00016817,-0.00
 009015,0.00027237,0.01850174,-0.06356552,0.15263116,-0.00149891,0.0010
 0084,0.00000182,-0.00287802,-0.00641606,0.00022794,0.00054096,0.000284
 27,-0.00000335,0.00063331,-0.00068580,0.00003458,-0.00205891,-0.001258
 12,0.00000122,0.00071082,-0.00058576,0.00001165,-0.00005922,-0.0000293
 0,-0.00000001,-0.00111146,0.00096928,-0.00004017,-0.12865468,0.2308627
 6,-0.00849207,0.11241479,0.00074917,0.00316630,-0.00009753,-0.00267415
 ,-0.00211771,0.00009860,-0.00132904,-0.00218360,0.00005866,-0.00126188
 ,0.00075385,-0.00004060,0.00013018,0.00085869,-0.00001553,-0.00126171,
 0.00056649,-0.00002201,-0.00011625,-0.00003917,-0.00000007,0.00200271,
 -0.00115187,0.00006531,0.23287817,-0.95583107,0.03241817,-0.26319142,1
 .04703305,-0.00002759,-0.00010024,0.00059222,0.00007706,0.00010773,0.0
 0087768,0.00004735,0.00006711,-0.00002868,0.00004410,-0.00002137,0.000
 13051,0.00000075,-0.00003622,-0.00026452,0.00004415,-0.00003107,-0.000
 38590,0.00000451,0.00000053,-0.00003230,-0.00007579,0.00004075,-0.0000
 7161,-0.00856846,0.03245951,-0.07551325,0.00971407,-0.03721172,0.03870
 566,0.00039100,0.00136071,0.00000044,-0.00393553,0.00187411,-0.0000463
 4,-0.00087210,-0.00109908,0.00003121,-0.00051226,-0.00010376,-0.000002
 50,-0.00175702,-0.00029016,-0.00001725,0.00013656,-0.00013579,0.000004
 42,-0.00015570,-0.00011104,0.00000004,-0.00045525,0.00060363,-0.000010
 92,-0.15168043,0.26028567,-0.00994122,0.02217092,0.03327098,-0.0012073
 0,0.14029102,0.00154478,0.00179117,-0.00008447,-0.00240856,0.00195125,
 -0.00004353,-0.00152998,-0.00166536,0.00004854,-0.00108296,0.00114671,
 -0.00005511,0.00161550,0.00130947,-0.00000657,-0.00124801,0.00069636,-
 0.00000859,-0.00004878,0.00001389,-0.00000156,0.00297580,-0.00205516,0
 .00010568,0.25523163,-0.88565777,0.03055877,0.04084496,-0.09502061,0.0
 0487606,-0.29111938,0.97863039,-0.00004699,-0.00004315,0.00018540,0.00
 007063,-0.00001807,0.00139576,0.00005259,0.00006134,0.00008853,0.00003
 754,-0.00004505,-0.00011622,-0.00005543,-0.00005499,-0.00011158,0.0000
 4708,-0.00002340,0.00007441,0.00000173,-0.00000216,-0.00004699,-0.0001
 0705,0.00007157,-0.00024073,-0.00974329,0.03051388,-0.07481822,-0.0014
 8732,0.00488900,0.03576812,0.01108582,-0.03527369,0.03850083,-0.001423
 17,0.00029183,0.00007518,0.00012564,-0.00013347,0.00005824,0.00063374,
 0.00035213,-0.00001290,0.00031955,-0.00058500,0.00001596,-0.00047089,-
 0.00017853,0.00000979,0.00011057,-0.00007787,-0.00000195,0.00005152,-0
 .00001041,-0.00000434,-0.00293324,-0.00194276,-0.00023453,0.00491834,-
 0.00521495,0.00026835,-0.00180397,0.00373314,-0.00017509,-0.00476971,0
 .00100672,-0.00001522,0.28349376,0.00210892,-0.00027760,0.00018836,-0.
 00067217,0.00093262,-0.00003075,0.00026071,-0.00110832,0.00005474,-0.0
 0037883,-0.00044790,0.00000053,-0.00162892,-0.00025255,-0.00000483,0.0
 0017929,-0.00009064,0.00000017,-0.00009719,-0.00009103,-0.00000577,-0.
 00173490,0.00443767,-0.00025524,0.00478364,-0.01409404,0.00054721,-0.0
 0239003,0.00625072,-0.00025885,-0.00281730,0.00447604,-0.00009510,0.25
 034693,0.29582100,-0.00008447,0.00002937,0.00000902,-0.00001817,-0.000
 05441,-0.00081105,-0.00010585,0.00005612,-0.00015919,-0.00002008,0.000
 13022,0.00012668,0.00015092,0.00005893,-0.00010976,-0.00001458,0.00001
 159,0.00000063,-0.00000339,0.00001492,0.00006816,0.00075482,-0.0003458
 4,0.00103175,-0.00025322,0.00059195,0.00048677,0.00009350,-0.00020403,
 0.00024930,0.00005020,-0.00042777,-0.00203915,0.00475344,-0.02419261,0
 .01858102,-0.00789621,0.00477457,-0.00095244,-0.00070601,-0.00098492,0
 .00003786,-0.00125932,0.00137343,-0.00005737,-0.00028177,0.00181637,0.
 00001446,0.00217853,0.00157025,-0.00029225,-0.00018596,0.00016675,0.00
 000576,0.00002573,0.00026394,0.00003982,-0.00218956,-0.00068033,0.0027
 7126,-0.00398574,0.00512548,-0.00014942,0.00150575,-0.00281954,0.00008
 099,0.00188975,-0.00491862,0.00034209,-0.28931232,-0.22031026,-0.02358
 597,0.41069756,0.00735933,-0.00339915,-0.00009246,0.00097015,0.0015431
 7,0.00006799,0.00091214,0.00037901,0.00004609,0.00099640,-0.00132752,0
 .00005616,-0.00033980,-0.00145620,0.00001303,-0.00004641,-0.00001343,0
 .00000767,0.00008212,-0.00019181,-0.00000833,-0.00250307,-0.00662162,0
 .00038043,-0.00167116,0.00626297,-0.00032152,0.00078303,-0.00294640,0.
 00012306,-0.00129293,-0.00606474,0.00028491,-0.26664614,-0.27442614,0.
 00542675,0.10349312,0.62016005,-0.00156375,0.00068880,0.00171177,0.000
 11704,0.00011958,0.00066205,0.00007485,-0.00012758,0.00007747,-0.00017
 429,-0.00008562,-0.00018002,-0.00026082,0.00041090,0.00077793,0.000016
 81,-0.00000538,-0.00006999,-0.00001106,0.00002681,-0.00017518,0.001650
 40,0.00011683,-0.00461330,0.00042281,-0.00073817,-0.00058845,-0.000186
 16,0.00038645,-0.00001604,0.00015347,0.00078990,0.00151159,-0.00047882
 ,0.02643551,-0.01668342,0.12208870,-0.23625303,0.17223326,-0.00174286,
 0.00082718,0.00042522,-0.00011121,-0.00051523,0.00004925,-0.00014488,0
 .00008782,-0.00003521,-0.00021809,0.00028747,-0.00004585,0.00012101,0.
 00043163,0.00014484,-0.00001040,0.00001193,-0.00001130,0.00000354,0.00
 006282,-0.00002441,0.00286993,-0.00003122,-0.00171937,-0.00010183,0.00
 034149,-0.00006662,0.00008861,-0.00011038,0.00004125,-0.00074126,-0.00
 086309,-0.00018217,0.01106019,-0.02764989,0.01828285,-0.11048044,0.157
 90323,-0.12184918,0.09940772,-0.00012799,0.00083255,-0.00000110,-0.000
 22181,-0.00029613,-0.00011810,-0.00010952,0.00008079,-0.00001252,0.000
 07021,0.00020135,-0.00000148,0.00009147,-0.00013725,0.00002827,0.00000
 538,-0.00000392,0.00000417,-0.00000810,0.00000819,0.00000620,0.0011688
 8,-0.00133472,0.00017300,0.00034140,-0.00120180,0.00011664,-0.00018865
 ,0.00066133,-0.00001528,-0.00042568,0.00044837,-0.00026509,0.01905839,
 -0.02112983,0.01890481,0.11112976,-0.33189818,0.20823500,-0.13078375,0
 .35376924,0.00094452,-0.00050881,0.00016360,-0.00000468,-0.00010025,-0
 .00014165,0.00002347,0.00004492,0.00002120,0.00011844,-0.00004607,0.00
 000249,0.00009759,-0.00025885,-0.00003215,-0.00000436,-0.00000426,0.00
 001544,0.00001372,-0.00002527,-0.00000239,-0.00138152,0.00034447,0.000
 09186,-0.00022052,0.00052508,0.00011780,0.00012431,-0.00032469,-0.0000
 1118,-0.00010006,-0.00047767,-0.00015175,-0.00425811,-0.00238335,-0.00
 075077,-0.10034350,0.23026925,-0.15464769,0.10499069,-0.22705451,0.155
 32520\\-0.00001159,0.00000113,-0.00000152,0.00000920,0.00001737,-0.000
 00564,-0.00000307,-0.00000653,0.00000384,-0.00000561,0.00002826,-0.000
 00450,0.00002713,-0.00000620,-0.00000129,-0.00000285,0.00000308,0.0000
 0169,-0.00000033,-0.00000016,-0.00000066,0.00000887,-0.00003771,0.0000
 1083,0.00001179,0.00000184,0.00001357,-0.00000919,-0.00001019,-0.00000
 812,-0.00002329,-0.00001635,-0.00000610,-0.00000403,0.00003567,-0.0000
 0490,0.00002349,0.00000044,0.00000300,-0.00002051,-0.00001066,-0.00000
 019\\\@
 The archive entry for this job was punched.


 SUPPORT THE RIGHT TO ARM BEARS!
 (ADD A CLAWS TO THE BILL OF RIGHTS)
 Job cpu time:       0 days  0 hours 25 minutes 44.4 seconds.
 Elapsed time:       0 days  0 hours  0 minutes 32.5 seconds.
 File lengths (MBytes):  RWF=     66 Int=      0 D2E=      0 Chk=      4 Scr=      1
 Normal termination of Gaussian 16 at Thu Dec  7 07:56:55 2023.
