 Entering Gaussian System, Link 0=/opt/soft/g16b/g16/g16
 Initial command:
 /opt/soft/g16b/g16/l1.exe "/scratch/gongke2021/TZ-/Gau-2840.inp" -scrdir="/scratch/gongke2021/TZ-/"
 Entering Link 1 = /opt/soft/g16b/g16/l1.exe PID=      2841.
  
 Copyright (c) 1988,1990,1992,1993,1995,1998,2003,2009,2016,
            Gaussian, Inc.  All Rights Reserved.
  
 This is part of the Gaussian(R) 16 program.  It is based on
 the Gaussian(R) 09 system (copyright 2009, Gaussian, Inc.),
 the Gaussian(R) 03 system (copyright 2003, Gaussian, Inc.),
 the Gaussian(R) 98 system (copyright 1998, Gaussian, Inc.),
 the Gaussian(R) 94 system (copyright 1995, Gaussian, Inc.),
 the Gaussian 92(TM) system (copyright 1992, Gaussian, Inc.),
 the Gaussian 90(TM) system (copyright 1990, Gaussian, Inc.),
 the Gaussian 88(TM) system (copyright 1988, Gaussian, Inc.),
 the Gaussian 86(TM) system (copyright 1986, Carnegie Mellon
 University), and the Gaussian 82(TM) system (copyright 1983,
 Carnegie Mellon University). Gaussian is a federally registered
 trademark of Gaussian, Inc.
  
 This software contains proprietary and confidential information,
 including trade secrets, belonging to Gaussian, Inc.
  
 This software is provided under written license and may be
 used, copied, transmitted, or stored only in accord with that
 written license.
  
 The following legend is applicable only to US Government
 contracts under FAR:
  
                    RESTRICTED RIGHTS LEGEND
  
 Use, reproduction and disclosure by the US Government is
 subject to restrictions as set forth in subparagraphs (a)
 and (c) of the Commercial Computer Software - Restricted
 Rights clause in FAR 52.227-19.
  
 Gaussian, Inc.
 340 Quinnipiac St., Bldg. 40, Wallingford CT 06492
  
  
 ---------------------------------------------------------------
 Warning -- This program may not be used in any manner that
 competes with the business of Gaussian, Inc. or will provide
 assistance to any competitor of Gaussian, Inc.  The licensee
 of this program is prohibited from giving any competitor of
 Gaussian, Inc. access to this program.  By using this program,
 the user acknowledges that Gaussian, Inc. is engaged in the
 business of creating and licensing software in the field of
 computational chemistry and represents and warrants to the
 licensee that it is not a competitor of Gaussian, Inc. and that
 it will not use this program in any manner prohibited above.
 ---------------------------------------------------------------
  

 Cite this work as:
 Gaussian 16, Revision A.03,
 M. J. Frisch, G. W. Trucks, H. B. Schlegel, G. E. Scuseria, 
 M. A. Robb, J. R. Cheeseman, G. Scalmani, V. Barone, 
 G. A. Petersson, H. Nakatsuji, X. Li, M. Caricato, A. V. Marenich, 
 J. Bloino, B. G. Janesko, R. Gomperts, B. Mennucci, H. P. Hratchian, 
 J. V. Ortiz, A. F. Izmaylov, J. L. Sonnenberg, D. Williams-Young, 
 F. Ding, F. Lipparini, F. Egidi, J. Goings, B. Peng, A. Petrone, 
 T. Henderson, D. Ranasinghe, V. G. Zakrzewski, J. Gao, N. Rega, 
 G. Zheng, W. Liang, M. Hada, M. Ehara, K. Toyota, R. Fukuda, 
 J. Hasegawa, M. Ishida, T. Nakajima, Y. Honda, O. Kitao, H. Nakai, 
 T. Vreven, K. Throssell, J. A. Montgomery, Jr., J. E. Peralta, 
 F. Ogliaro, M. J. Bearpark, J. J. Heyd, E. N. Brothers, K. N. Kudin, 
 V. N. Staroverov, T. A. Keith, R. Kobayashi, J. Normand, 
 K. Raghavachari, A. P. Rendell, J. C. Burant, S. S. Iyengar, 
 J. Tomasi, M. Cossi, J. M. Millam, M. Klene, C. Adamo, R. Cammi, 
 J. W. Ochterski, R. L. Martin, K. Morokuma, O. Farkas, 
 J. B. Foresman, and D. J. Fox, Gaussian, Inc., Wallingford CT, 2016.
 
 ******************************************
 Gaussian 16:  ES64L-G16RevA.03 25-Dec-2016
                 6-May-2023 
 ******************************************
 %mem=10GB
 %nprocshared=20
 Will use up to   20 processors via shared memory.
 ----------------------------
 # opt freq 6-31+g(d,p) m062x
 ----------------------------
 1/18=20,19=15,26=3,38=1/1,3;
 2/9=110,12=2,17=6,18=5,40=1/2;
 3/5=1,6=6,7=111,11=2,25=1,30=1,71=1,74=-55/1,2,3;
 4//1;
 5/5=2,38=5/2;
 6/7=2,8=2,9=2,10=2,28=1/1;
 7//1,2,3,16;
 1/18=20,19=15,26=3/3(2);
 2/9=110/2;
 99//99;
 2/9=110/2;
 3/5=1,6=6,7=111,11=2,25=1,30=1,71=1,74=-55/1,2,3;
 4/5=5,16=3,69=1/1;
 5/5=2,38=5/2;
 7//1,2,3,16;
 1/18=20,19=15,26=3/3(-5);
 2/9=110/2;
 6/7=2,8=2,9=2,10=2,19=2,28=1/1;
 99/9=1/99;
 ----------
 "Sketch 2"
 ----------
 Symbolic Z-matrix:
 Charge = -1 Multiplicity = 1
 N                     0.01604  -0.09918   0.00023 
 N                     0.68662   1.12137   0.00025 
 C                     1.98733   0.72473   0.00008 
 C                     2.05938  -0.65874   0.00004 
 N                     0.82382  -1.21446   0.00007 
 H                     2.78225   1.45722   0.00004 
 H                     2.93533  -1.29333  -0.00006 
 

 GradGradGradGradGradGradGradGradGradGradGradGradGradGradGradGradGradGrad
 Berny optimization.
 Initialization pass.
                           ----------------------------
                           !    Initial Parameters    !
                           ! (Angstroms and Degrees)  !
 --------------------------                            --------------------------
 ! Name  Definition              Value          Derivative Info.                !
 --------------------------------------------------------------------------------
 ! R1    R(1,2)                  1.3926         estimate D2E/DX2                !
 ! R2    R(1,5)                  1.3771         estimate D2E/DX2                !
 ! R3    R(2,3)                  1.3598         estimate D2E/DX2                !
 ! R4    R(3,4)                  1.3853         estimate D2E/DX2                !
 ! R5    R(3,6)                  1.0809         estimate D2E/DX2                !
 ! R6    R(4,5)                  1.3548         estimate D2E/DX2                !
 ! R7    R(4,7)                  1.0817         estimate D2E/DX2                !
 ! A1    A(2,1,5)              115.3003         estimate D2E/DX2                !
 ! A2    A(1,2,3)              101.8259         estimate D2E/DX2                !
 ! A3    A(2,3,4)              109.94           estimate D2E/DX2                !
 ! A4    A(2,3,6)              120.3813         estimate D2E/DX2                !
 ! A5    A(4,3,6)              129.6786         estimate D2E/DX2                !
 ! A6    A(3,4,5)              111.236          estimate D2E/DX2                !
 ! A7    A(3,4,7)              128.9034         estimate D2E/DX2                !
 ! A8    A(5,4,7)              119.8606         estimate D2E/DX2                !
 ! A9    A(1,5,4)              101.6978         estimate D2E/DX2                !
 ! D1    D(5,1,2,3)              0.0002         estimate D2E/DX2                !
 ! D2    D(2,1,5,4)              0.0027         estimate D2E/DX2                !
 ! D3    D(1,2,3,4)             -0.0032         estimate D2E/DX2                !
 ! D4    D(1,2,3,6)            179.9996         estimate D2E/DX2                !
 ! D5    D(2,3,4,5)              0.0053         estimate D2E/DX2                !
 ! D6    D(2,3,4,7)           -179.9982         estimate D2E/DX2                !
 ! D7    D(6,3,4,5)           -179.9978         estimate D2E/DX2                !
 ! D8    D(6,3,4,7)             -0.0013         estimate D2E/DX2                !
 ! D9    D(3,4,5,1)             -0.0047         estimate D2E/DX2                !
 ! D10   D(7,4,5,1)            179.9984         estimate D2E/DX2                !
 --------------------------------------------------------------------------------
 Trust Radius=3.00D-01 FncErr=1.00D-07 GrdErr=1.00D-06 EigMax=2.50D+02 EigMin=1.00D-04
 Number of steps in this run=     36 maximum allowed number of steps=    100.
 GradGradGradGradGradGradGradGradGradGradGradGradGradGradGradGradGradGrad

                          Input orientation:                          
 ---------------------------------------------------------------------
 Center     Atomic      Atomic             Coordinates (Angstroms)
 Number     Number       Type             X           Y           Z
 ---------------------------------------------------------------------
      1          7           0        0.016044   -0.099175    0.000229
      2          7           0        0.686621    1.121372    0.000247
      3          6           0        1.987333    0.724726    0.000078
      4          6           0        2.059382   -0.658735    0.000040
      5          7           0        0.823824   -1.214463    0.000065
      6          1           0        2.782247    1.457220    0.000040
      7          1           0        2.935325   -1.293329   -0.000055
 ---------------------------------------------------------------------
                    Distance matrix (angstroms):
                    1          2          3          4          5
     1  N    0.000000
     2  N    1.392626   0.000000
     3  C    2.136538   1.359846   0.000000
     4  C    2.118570   2.247944   1.385336   0.000000
     5  N    1.377090   2.339861   2.261461   1.354783   0.000000
     6  H    3.173995   2.122367   1.080942   2.236023   3.312599
     7  H    3.154078   3.299614   2.229627   1.081659   2.112973
                    6          7
     6  H    0.000000
     7  H    2.754805   0.000000
 Stoichiometry    C2H2N3(1-)
 Framework group  C1[X(C2H2N3)]
 Deg. of freedom    15
 Full point group                 C1      NOp   1
 Largest Abelian subgroup         C1      NOp   1
 Largest concise Abelian subgroup C1      NOp   1
                         Standard orientation:                         
 ---------------------------------------------------------------------
 Center     Atomic      Atomic             Coordinates (Angstroms)
 Number     Number       Type             X           Y           Z
 ---------------------------------------------------------------------
      1          7           0       -0.099384   -1.144593   -0.000101
      2          7           0        1.134192   -0.498298   -0.000119
      3          6           0        0.763361    0.810008    0.000050
      4          6           0       -0.618404    0.909417    0.000088
      5          7           0       -1.198471   -0.314904    0.000063
      6          1           0        1.511440    1.590273    0.000088
      7          1           0       -1.235542    1.797745    0.000183
 ---------------------------------------------------------------------
 Rotational constants (GHZ):          10.8351460           9.4126187           5.0369559
 Standard basis: 6-31+G(d,p) (6D, 7F)
 There are   105 symmetry adapted cartesian basis functions of A   symmetry.
 There are   105 symmetry adapted basis functions of A   symmetry.
   105 basis functions,   174 primitive gaussians,   105 cartesian basis functions
    18 alpha electrons       18 beta electrons
       nuclear repulsion energy       152.6288186785 Hartrees.
 NAtoms=    7 NActive=    7 NUniq=    7 SFac= 1.00D+00 NAtFMM=   60 NAOKFM=F Big=F
 Integral buffers will be    131072 words long.
 Raffenetti 2 integral format.
 Two-electron integral symmetry is turned on.
 One-electron integrals computed using PRISM.
 NBasis=   105 RedAO= T EigKep=  7.43D-05  NBF=   105
 NBsUse=   105 1.00D-06 EigRej= -1.00D+00 NBFU=   105
 ExpMin= 4.38D-02 ExpMax= 4.17D+03 ExpMxC= 6.27D+02 IAcc=3 IRadAn=         5 AccDes= 0.00D+00
 Harris functional with IExCor= 1009 and IRadAn=       5 diagonalized for initial guess.
 HarFok:  IExCor= 1009 AccDes= 0.00D+00 IRadAn=         5 IDoV= 1 UseB2=F ITyADJ=14
 ICtDFT=  3500011 ScaDFX=  1.000000  1.000000  1.000000  1.000000
 FoFCou: FMM=F IPFlag=           0 FMFlag=      100000 FMFlg1=           0
         NFxFlg=           0 DoJE=T BraDBF=F KetDBF=T FulRan=T
         wScrn=  0.000000 ICntrl=       500 IOpCl=  0 I1Cent=   200000004 NGrid=           0
         NMat0=    1 NMatS0=      1 NMatT0=    0 NMatD0=    1 NMtDS0=    0 NMtDT0=    0
 Petite list used in FoFCou.
 Keep R1 ints in memory in canonical form, NReq=34090264.
 Requested convergence on RMS density matrix=1.00D-08 within 128 cycles.
 Requested convergence on MAX density matrix=1.00D-06.
 Requested convergence on             energy=1.00D-06.
 No special actions if energy rises.
 SCF Done:  E(RM062X) =  -241.573902491     A.U. after   13 cycles
            NFock= 13  Conv=0.72D-08     -V/T= 2.0091

 **********************************************************************

            Population analysis using the SCF density.

 **********************************************************************

 Orbital symmetries:
       Occupied  (A) (A) (A) (A) (A) (A) (A) (A) (A) (A) (A) (A)
                 (A) (A) (A) (A) (A) (A)
       Virtual   (A) (A) (A) (A) (A) (A) (A) (A) (A) (A) (A) (A)
                 (A) (A) (A) (A) (A) (A) (A) (A) (A) (A) (A) (A)
                 (A) (A) (A) (A) (A) (A) (A) (A) (A) (A) (A) (A)
                 (A) (A) (A) (A) (A) (A) (A) (A) (A) (A) (A) (A)
                 (A) (A) (A) (A) (A) (A) (A) (A) (A) (A) (A) (A)
                 (A) (A) (A) (A) (A) (A) (A) (A) (A) (A) (A) (A)
                 (A) (A) (A) (A) (A) (A) (A) (A) (A) (A) (A) (A)
                 (A) (A) (A)
 The electronic state is 1-A.
 Alpha  occ. eigenvalues --  -14.59300 -14.58206 -14.58146 -10.37210 -10.37076
 Alpha  occ. eigenvalues --   -0.94192  -0.75245  -0.65796  -0.46687  -0.45631
 Alpha  occ. eigenvalues --   -0.37744  -0.29533  -0.29214  -0.20032  -0.15456
 Alpha  occ. eigenvalues --   -0.12895  -0.12343  -0.09373
 Alpha virt. eigenvalues --    0.15845   0.16112   0.19412   0.21235   0.21246
 Alpha virt. eigenvalues --    0.22142   0.24001   0.26089   0.28439   0.28761
 Alpha virt. eigenvalues --    0.31170   0.33041   0.33510   0.34481   0.38718
 Alpha virt. eigenvalues --    0.39075   0.39469   0.39510   0.41526   0.41707
 Alpha virt. eigenvalues --    0.43963   0.45710   0.47002   0.51596   0.52372
 Alpha virt. eigenvalues --    0.55357   0.57105   0.70510   0.75020   0.89456
 Alpha virt. eigenvalues --    0.90882   0.94598   1.04621   1.04921   1.11795
 Alpha virt. eigenvalues --    1.12508   1.14306   1.17089   1.18186   1.19410
 Alpha virt. eigenvalues --    1.22852   1.23650   1.26590   1.29838   1.30089
 Alpha virt. eigenvalues --    1.33044   1.37496   1.50478   1.52538   1.56222
 Alpha virt. eigenvalues --    1.63266   1.63732   1.75092   1.77494   1.80090
 Alpha virt. eigenvalues --    1.82821   1.83602   2.10862   2.13707   2.16190
 Alpha virt. eigenvalues --    2.22385   2.29085   2.39514   2.46171   2.46583
 Alpha virt. eigenvalues --    2.55677   2.57587   2.57636   2.71309   2.71630
 Alpha virt. eigenvalues --    2.73233   2.80663   2.87344   2.91773   2.92157
 Alpha virt. eigenvalues --    2.95654   2.99600   3.19765   3.22910   3.32645
 Alpha virt. eigenvalues --    3.46232   3.88592   4.14711   4.38993   4.39701
 Alpha virt. eigenvalues --    4.57965   4.81438
          Condensed to atoms (all electrons):
               1          2          3          4          5          6
     1  N    6.805724   0.229454  -0.058278  -0.060258   0.231219   0.014143
     2  N    0.229454   6.868618   0.314212  -0.140104   0.048346  -0.051075
     3  C   -0.058278   0.314212   5.777436  -0.011312  -0.129981   0.372449
     4  C   -0.060258  -0.140104  -0.011312   5.795033   0.313859  -0.026994
     5  N    0.231219   0.048346  -0.129981   0.313859   6.852730  -0.004990
     6  H    0.014143  -0.051075   0.372449  -0.026994  -0.004990   0.603855
     7  H    0.014278  -0.004251  -0.027544   0.371918  -0.053666   0.001827
               7
     1  N    0.014278
     2  N   -0.004251
     3  C   -0.027544
     4  C    0.371918
     5  N   -0.053666
     6  H    0.001827
     7  H    0.610102
 Mulliken charges:
               1
     1  N   -0.176282
     2  N   -0.265199
     3  C   -0.236982
     4  C   -0.242142
     5  N   -0.257516
     6  H    0.090786
     7  H    0.087336
 Sum of Mulliken charges =  -1.00000
 Mulliken charges with hydrogens summed into heavy atoms:
               1
     1  N   -0.176282
     2  N   -0.265199
     3  C   -0.146196
     4  C   -0.154807
     5  N   -0.257516
 Electronic spatial extent (au):  <R**2>=            279.4880
 Charge=             -1.0000 electrons
 Dipole moment (field-independent basis, Debye):
    X=              0.2916    Y=              3.8182    Z=              0.0003  Tot=              3.8293
 Quadrupole moment (field-independent basis, Debye-Ang):
   XX=            -40.1091   YY=            -37.7854   ZZ=            -33.8850
   XY=              0.2993   XZ=              0.0005   YZ=             -0.0004
 Traceless Quadrupole moment (field-independent basis, Debye-Ang):
   XX=             -2.8492   YY=             -0.5256   ZZ=              3.3748
   XY=              0.2993   XZ=              0.0005   YZ=             -0.0004
 Octapole moment (field-independent basis, Debye-Ang**2):
  XXX=              1.6325  YYY=              9.0654  ZZZ=             -0.0005  XYY=             -0.3124
  XXY=              7.0928  XXZ=              0.0005  XZZ=             -0.2063  YZZ=             -1.8881
  YYZ=              0.0011  XYZ=             -0.0004
 Hexadecapole moment (field-independent basis, Debye-Ang**3):
 XXXX=           -223.8471 YYYY=           -201.9640 ZZZZ=            -44.6436 XXXY=              2.5996
 XXXZ=              0.0060 YYYX=             -1.0125 YYYZ=             -0.0067 ZZZX=              0.0048
 ZZZY=             -0.0072 XXYY=            -63.7313 XXZZ=            -43.4153 YYZZ=            -42.2748
 XXYZ=             -0.0019 YYXZ=              0.0013 ZZXY=              0.0042
 N-N= 1.526288186785D+02 E-N=-8.760071362358D+02  KE= 2.393978496476D+02
 Calling FoFJK, ICntrl=      2127 FMM=F ISym2X=0 I1Cent= 0 IOpClX= 0 NMat=1 NMatS=1 NMatT=0.
 ***** Axes restored to original set *****
 -------------------------------------------------------------------
 Center     Atomic                   Forces (Hartrees/Bohr)
 Number     Number              X              Y              Z
 -------------------------------------------------------------------
      1        7          -0.011712925    0.005811999   -0.000002769
      2        7           0.001769365   -0.075742347   -0.000009831
      3        6          -0.003609811    0.012995200    0.000009788
      4        6           0.011621467   -0.016534048   -0.000012377
      5        7          -0.006280656    0.073212685    0.000016229
      6        1           0.004012608   -0.000001970    0.000000588
      7        1           0.004199953    0.000258482   -0.000001627
 -------------------------------------------------------------------
 Cartesian Forces:  Max     0.075742347 RMS     0.023839440

 GradGradGradGradGradGradGradGradGradGradGradGradGradGradGradGradGradGrad
 Berny optimization.
 FormGI is forming the generalized inverse of G from B-inverse, IUseBI=4.
 Internal  Forces:  Max     0.040896477 RMS     0.018519384
 Search for a local minimum.
 Step number   1 out of a maximum of   36
 All quantities printed in internal units (Hartrees-Bohrs-Radians)
 Mixed Optimization -- RFO/linear search
 Second derivative matrix not updated -- first step.
 ITU=  0
     Eigenvalues ---    0.01750   0.02226   0.02264   0.02285   0.16000
     Eigenvalues ---    0.16000   0.22559   0.24688   0.35795   0.35881
     Eigenvalues ---    0.42451   0.46239   0.48386   0.50953   0.53250
 RFO step:  Lambda=-2.77204443D-02 EMin= 1.75031605D-02
 Linear search not attempted -- first point.
 Maximum step size (   0.300) exceeded in Quadratic search.
    -- Step size scaled by   0.992
 Iteration  1 RMS(Cart)=  0.05711185 RMS(Int)=  0.00283721
 Iteration  2 RMS(Cart)=  0.00271519 RMS(Int)=  0.00012965
 Iteration  3 RMS(Cart)=  0.00000270 RMS(Int)=  0.00012962
 Iteration  4 RMS(Cart)=  0.00000000 RMS(Int)=  0.00012962
 Variable       Old X    -DE/DX   Delta X   Delta X   Delta X     New X
                                 (Linear)    (Quad)   (Total)
    R1        2.63168  -0.04065   0.00000  -0.08635  -0.08621   2.54548
    R2        2.60232  -0.03224   0.00000  -0.06527  -0.06511   2.53721
    R3        2.56974  -0.00348   0.00000  -0.00492  -0.00498   2.56475
    R4        2.61791  -0.01281   0.00000  -0.01945  -0.01964   2.59826
    R5        2.04268   0.00295   0.00000   0.00757   0.00757   2.05026
    R6        2.56017  -0.00114   0.00000   0.00022   0.00018   2.56035
    R7        2.04404   0.00325   0.00000   0.00836   0.00836   2.05240
    A1        2.01237  -0.03802   0.00000  -0.15088  -0.15051   1.86186
    A2        1.77720   0.03897   0.00000   0.13612   0.13617   1.91336
    A3        1.91882  -0.01696   0.00000  -0.05137  -0.05164   1.86717
    A4        2.10105   0.01126   0.00000   0.04038   0.04052   2.14157
    A5        2.26332   0.00570   0.00000   0.01099   0.01113   2.27444
    A6        1.94143  -0.02489   0.00000  -0.08131  -0.08156   1.85988
    A7        2.24979   0.00971   0.00000   0.02622   0.02635   2.27613
    A8        2.09196   0.01518   0.00000   0.05509   0.05521   2.14717
    A9        1.77496   0.04090   0.00000   0.14744   0.14754   1.92250
    D1        0.00000   0.00000   0.00000   0.00000   0.00000   0.00000
    D2        0.00005  -0.00000   0.00000  -0.00007  -0.00007  -0.00002
    D3       -0.00006   0.00000   0.00000   0.00007   0.00007   0.00002
    D4        3.14159  -0.00000   0.00000   0.00000   0.00001  -3.14159
    D5        0.00009  -0.00001   0.00000  -0.00013  -0.00012  -0.00003
    D6       -3.14156  -0.00000   0.00000  -0.00005  -0.00004   3.14158
    D7       -3.14155  -0.00000   0.00000  -0.00006  -0.00005   3.14158
    D8       -0.00002   0.00000   0.00000   0.00003   0.00003   0.00001
    D9       -0.00008   0.00000   0.00000   0.00011   0.00012   0.00003
   D10        3.14157   0.00000   0.00000   0.00003   0.00004  -3.14158
         Item               Value     Threshold  Converged?
 Maximum Force            0.040896     0.000450     NO 
 RMS     Force            0.018519     0.000300     NO 
 Maximum Displacement     0.177946     0.001800     NO 
 RMS     Displacement     0.056498     0.001200     NO 
 Predicted change in Energy=-1.511296D-02
 GradGradGradGradGradGradGradGradGradGradGradGradGradGradGradGradGradGrad

                          Input orientation:                          
 ---------------------------------------------------------------------
 Center     Atomic      Atomic             Coordinates (Angstroms)
 Number     Number       Type             X           Y           Z
 ---------------------------------------------------------------------
      1          7           0       -0.050515   -0.094715    0.000222
      2          7           0        0.685662    1.033326    0.000206
      3          6           0        2.005362    0.716460    0.000095
      4          6           0        2.088817   -0.655947    0.000017
      5          7           0        0.815997   -1.120298    0.000125
      6          1           0        2.788490    1.467343    0.000065
      7          1           0        2.956964   -1.308553   -0.000086
 ---------------------------------------------------------------------
                    Distance matrix (angstroms):
                    1          2          3          4          5
     1  N    0.000000
     2  N    1.347008   0.000000
     3  C    2.210121   1.357208   0.000000
     4  C    2.211723   2.196016   1.374942   0.000000
     5  N    1.342633   2.157564   2.188212   1.354877   0.000000
     6  H    3.240366   2.147151   1.084949   2.235599   3.253708
     7  H    3.243198   3.262393   2.237460   1.086082   2.149228
                    6          7
     6  H    0.000000
     7  H    2.781005   0.000000
 Stoichiometry    C2H2N3(1-)
 Framework group  C1[X(C2H2N3)]
 Deg. of freedom    15
 Full point group                 C1      NOp   1
 Largest Abelian subgroup         C1      NOp   1
 Largest concise Abelian subgroup C1      NOp   1
                         Standard orientation:                         
 ---------------------------------------------------------------------
 Center     Atomic      Atomic             Coordinates (Angstroms)
 Number     Number       Type             X           Y           Z
 ---------------------------------------------------------------------
      1          7           0       -1.208676    0.027188   -0.000093
      2          7           0       -0.429993   -1.071941   -0.000077
      3          6           0        0.876656   -0.704949    0.000034
      4          6           0        0.907682    0.669642    0.000112
      5          7           0       -0.381930    1.085088    0.000004
      6          1           0        1.687865   -1.425404    0.000064
      7          1           0        1.750295    1.354900    0.000216
 ---------------------------------------------------------------------
 Rotational constants (GHZ):          10.5662235          10.1105383           5.1666798
 Standard basis: 6-31+G(d,p) (6D, 7F)
 There are   105 symmetry adapted cartesian basis functions of A   symmetry.
 There are   105 symmetry adapted basis functions of A   symmetry.
   105 basis functions,   174 primitive gaussians,   105 cartesian basis functions
    18 alpha electrons       18 beta electrons
       nuclear repulsion energy       154.4859273806 Hartrees.
 NAtoms=    7 NActive=    7 NUniq=    7 SFac= 1.00D+00 NAtFMM=   60 NAOKFM=F Big=F
 Integral buffers will be    131072 words long.
 Raffenetti 2 integral format.
 Two-electron integral symmetry is turned on.
 One-electron integrals computed using PRISM.
 NBasis=   105 RedAO= T EigKep=  7.70D-05  NBF=   105
 NBsUse=   105 1.00D-06 EigRej= -1.00D+00 NBFU=   105
 Initial guess from the checkpoint file:  "/scratch/gongke2021/TZ-/Gau-2841.chk"
 B after Tr=    -0.000000   -0.000000    0.000000
         Rot=    0.727586    0.000007    0.000005    0.686016 Ang=  86.63 deg.
 ExpMin= 4.38D-02 ExpMax= 4.17D+03 ExpMxC= 6.27D+02 IAcc=2 IRadAn=         4 AccDes= 0.00D+00
 Harris functional with IExCor= 1009 and IRadAn=       4 diagonalized for initial guess.
 HarFok:  IExCor= 1009 AccDes= 0.00D+00 IRadAn=         4 IDoV= 1 UseB2=F ITyADJ=14
 ICtDFT=  3500011 ScaDFX=  1.000000  1.000000  1.000000  1.000000
 FoFCou: FMM=F IPFlag=           0 FMFlag=      100000 FMFlg1=           0
         NFxFlg=           0 DoJE=T BraDBF=F KetDBF=T FulRan=T
         wScrn=  0.000000 ICntrl=       500 IOpCl=  0 I1Cent=   200000004 NGrid=           0
         NMat0=    1 NMatS0=      1 NMatT0=    0 NMatD0=    1 NMtDS0=    0 NMtDT0=    0
 Petite list used in FoFCou.
 Keep R1 ints in memory in canonical form, NReq=34090264.
 Requested convergence on RMS density matrix=1.00D-08 within 128 cycles.
 Requested convergence on MAX density matrix=1.00D-06.
 Requested convergence on             energy=1.00D-06.
 No special actions if energy rises.
 SCF Done:  E(RM062X) =  -241.581196081     A.U. after   12 cycles
            NFock= 12  Conv=0.73D-08     -V/T= 2.0085
 Calling FoFJK, ICntrl=      2127 FMM=F ISym2X=0 I1Cent= 0 IOpClX= 0 NMat=1 NMatS=1 NMatT=0.
 ***** Axes restored to original set *****
 -------------------------------------------------------------------
 Center     Atomic                   Forces (Hartrees/Bohr)
 Number     Number              X              Y              Z
 -------------------------------------------------------------------
      1        7           0.054556523    0.005050063   -0.000001660
      2        7          -0.010399124    0.014790079    0.000002253
      3        6          -0.013973574    0.010106911   -0.000001312
      4        6          -0.012251273   -0.009064498    0.000004684
      5        7          -0.010408033   -0.020951899   -0.000004774
      6        1          -0.003378793    0.000913608   -0.000000118
      7        1          -0.004145726   -0.000844264    0.000000927
 -------------------------------------------------------------------
 Cartesian Forces:  Max     0.054556523 RMS     0.014533926

 GradGradGradGradGradGradGradGradGradGradGradGradGradGradGradGradGradGrad
 Berny optimization.
 Using GEDIIS/GDIIS optimizer.
 FormGI is forming the generalized inverse of G from B-inverse, IUseBI=4.
 Internal  Forces:  Max     0.040280567 RMS     0.012710130
 Search for a local minimum.
 Step number   2 out of a maximum of   36
 All quantities printed in internal units (Hartrees-Bohrs-Radians)
 Mixed Optimization -- RFO/linear search
 Update second derivatives using D2CorX and points    1    2
 DE= -7.29D-03 DEPred=-1.51D-02 R= 4.83D-01
 Trust test= 4.83D-01 RLast= 3.00D-01 DXMaxT set to 3.00D-01
 ITU=  0  0
 Use linear search instead of GDIIS.
     Eigenvalues ---    0.01780   0.02217   0.02263   0.02285   0.16000
     Eigenvalues ---    0.16053   0.22612   0.34820   0.35832   0.35871
     Eigenvalues ---    0.42725   0.45965   0.49722   0.51025   0.60685
 RFO step:  Lambda=-3.12212218D-03 EMin= 1.78048820D-02
 Quartic linear search produced a step of -0.32009.
 Iteration  1 RMS(Cart)=  0.02431854 RMS(Int)=  0.00052889
 Iteration  2 RMS(Cart)=  0.00041809 RMS(Int)=  0.00017674
 Iteration  3 RMS(Cart)=  0.00000006 RMS(Int)=  0.00017674
 Variable       Old X    -DE/DX   Delta X   Delta X   Delta X     New X
                                 (Linear)    (Quad)   (Total)
    R1        2.54548  -0.01122   0.02759  -0.05797  -0.03017   2.51531
    R2        2.53721  -0.01007   0.02084  -0.04521  -0.02414   2.51307
    R3        2.56475  -0.01430   0.00160  -0.02041  -0.01891   2.54584
    R4        2.59826   0.02120   0.00629   0.02198   0.02800   2.62626
    R5        2.05026  -0.00181  -0.00242   0.00024  -0.00219   2.04807
    R6        2.56035  -0.01170  -0.00006  -0.01417  -0.01429   2.54606
    R7        2.05240  -0.00281  -0.00268  -0.00127  -0.00395   2.04845
    A1        1.86186   0.04028   0.04818   0.02684   0.07550   1.93736
    A2        1.91336  -0.02485  -0.04359  -0.00180  -0.04531   1.86805
    A3        1.86717   0.00519   0.01653  -0.00682   0.00934   1.87652
    A4        2.14157  -0.00568  -0.01297  -0.00170  -0.01448   2.12708
    A5        2.27444   0.00049  -0.00356   0.00852   0.00514   2.27958
    A6        1.85988   0.00718   0.02610  -0.01520   0.01057   1.87045
    A7        2.27613  -0.00035  -0.00843   0.01351   0.00525   2.28138
    A8        2.14717  -0.00683  -0.01767   0.00169  -0.01581   2.13136
    A9        1.92250  -0.02780  -0.04723  -0.00302  -0.05009   1.87241
    D1        0.00000  -0.00000  -0.00000  -0.00001  -0.00001  -0.00001
    D2       -0.00002   0.00000   0.00002  -0.00002   0.00000  -0.00002
    D3        0.00002  -0.00000  -0.00002   0.00004   0.00002   0.00003
    D4       -3.14159  -0.00000  -0.00000   0.00001   0.00001  -3.14158
    D5       -0.00003   0.00000   0.00004  -0.00005  -0.00002  -0.00005
    D6        3.14158   0.00000   0.00001  -0.00002  -0.00001   3.14157
    D7        3.14158   0.00000   0.00002  -0.00002  -0.00000   3.14157
    D8        0.00001  -0.00000  -0.00001   0.00001   0.00000   0.00001
    D9        0.00003  -0.00000  -0.00004   0.00005   0.00001   0.00004
   D10       -3.14158  -0.00000  -0.00001   0.00002   0.00000  -3.14157
         Item               Value     Threshold  Converged?
 Maximum Force            0.040281     0.000450     NO 
 RMS     Force            0.012710     0.000300     NO 
 Maximum Displacement     0.095704     0.001800     NO 
 RMS     Displacement     0.024291     0.001200     NO 
 Predicted change in Energy=-3.841353D-03
 GradGradGradGradGradGradGradGradGradGradGradGradGradGradGradGradGradGrad

                          Input orientation:                          
 ---------------------------------------------------------------------
 Center     Atomic      Atomic             Coordinates (Angstroms)
 Number     Number       Type             X           Y           Z
 ---------------------------------------------------------------------
      1          7           0        0.000130   -0.090445    0.000220
      2          7           0        0.686787    1.049807    0.000198
      3          6           0        1.993830    0.723323    0.000100
      4          6           0        2.078471   -0.663856    0.000017
      5          7           0        0.817801   -1.139226    0.000129
      6          1           0        2.772100    1.477578    0.000071
      7          1           0        2.941656   -1.319565   -0.000090
 ---------------------------------------------------------------------
                    Distance matrix (angstroms):
                    1          2          3          4          5
     1  N    0.000000
     2  N    1.331042   0.000000
     3  C    2.153383   1.347202   0.000000
     4  C    2.155993   2.207584   1.389759   0.000000
     5  N    1.329860   2.192950   2.202755   1.347318   0.000000
     6  H    3.184731   2.128736   1.083792   2.250968   3.266029
     7  H    3.187995   3.270835   2.252058   1.083994   2.131498
                    6          7
     6  H    0.000000
     7  H    2.802277   0.000000
 Stoichiometry    C2H2N3(1-)
 Framework group  C1[X(C2H2N3)]
 Deg. of freedom    15
 Full point group                 C1      NOp   1
 Largest Abelian subgroup         C1      NOp   1
 Largest concise Abelian subgroup C1      NOp   1
                         Standard orientation:                         
 ---------------------------------------------------------------------
 Center     Atomic      Atomic             Coordinates (Angstroms)
 Number     Number       Type             X           Y           Z
 ---------------------------------------------------------------------
      1          7           0       -1.152889    0.162107   -0.000092
      2          7           0       -0.559832   -1.029512   -0.000069
      3          6           0        0.769173   -0.808838    0.000029
      4          6           0        0.964725    0.567093    0.000112
      5          7           0       -0.253788    1.141977    0.000000
      6          1           0        1.484485   -1.623045    0.000058
      7          1           0        1.877688    1.151508    0.000219
 ---------------------------------------------------------------------
 Rotational constants (GHZ):          10.5881439          10.2679039           5.2127827
 Standard basis: 6-31+G(d,p) (6D, 7F)
 There are   105 symmetry adapted cartesian basis functions of A   symmetry.
 There are   105 symmetry adapted basis functions of A   symmetry.
   105 basis functions,   174 primitive gaussians,   105 cartesian basis functions
    18 alpha electrons       18 beta electrons
       nuclear repulsion energy       155.2291598302 Hartrees.
 NAtoms=    7 NActive=    7 NUniq=    7 SFac= 1.00D+00 NAtFMM=   60 NAOKFM=F Big=F
 Integral buffers will be    131072 words long.
 Raffenetti 2 integral format.
 Two-electron integral symmetry is turned on.
 One-electron integrals computed using PRISM.
 NBasis=   105 RedAO= T EigKep=  7.85D-05  NBF=   105
 NBsUse=   105 1.00D-06 EigRej= -1.00D+00 NBFU=   105
 Initial guess from the checkpoint file:  "/scratch/gongke2021/TZ-/Gau-2841.chk"
 B after Tr=     0.000000   -0.000000   -0.000000
         Rot=    0.998253    0.000001   -0.000000    0.059076 Ang=   6.77 deg.
 ExpMin= 4.38D-02 ExpMax= 4.17D+03 ExpMxC= 6.27D+02 IAcc=2 IRadAn=         4 AccDes= 0.00D+00
 Harris functional with IExCor= 1009 and IRadAn=       4 diagonalized for initial guess.
 HarFok:  IExCor= 1009 AccDes= 0.00D+00 IRadAn=         4 IDoV= 1 UseB2=F ITyADJ=14
 ICtDFT=  3500011 ScaDFX=  1.000000  1.000000  1.000000  1.000000
 FoFCou: FMM=F IPFlag=           0 FMFlag=      100000 FMFlg1=           0
         NFxFlg=           0 DoJE=T BraDBF=F KetDBF=T FulRan=T
         wScrn=  0.000000 ICntrl=       500 IOpCl=  0 I1Cent=   200000004 NGrid=           0
         NMat0=    1 NMatS0=      1 NMatT0=    0 NMatD0=    1 NMtDS0=    0 NMtDT0=    0
 Petite list used in FoFCou.
 Keep R1 ints in memory in canonical form, NReq=34090264.
 Requested convergence on RMS density matrix=1.00D-08 within 128 cycles.
 Requested convergence on MAX density matrix=1.00D-06.
 Requested convergence on             energy=1.00D-06.
 No special actions if energy rises.
 SCF Done:  E(RM062X) =  -241.584989207     A.U. after   12 cycles
            NFock= 12  Conv=0.38D-08     -V/T= 2.0081
 Calling FoFJK, ICntrl=      2127 FMM=F ISym2X=0 I1Cent= 0 IOpClX= 0 NMat=1 NMatS=1 NMatT=0.
 ***** Axes restored to original set *****
 -------------------------------------------------------------------
 Center     Atomic                   Forces (Hartrees/Bohr)
 Number     Number              X              Y              Z
 -------------------------------------------------------------------
      1        7           0.000016773    0.000225656    0.000001150
      2        7          -0.002093060    0.001120319    0.000003785
      3        6           0.003684617    0.001183255   -0.000005434
      4        6           0.002125109    0.000793886    0.000005391
      5        7          -0.002345613   -0.003342054   -0.000005185
      6        1          -0.000500953   -0.000146894   -0.000000672
      7        1          -0.000886873    0.000165832    0.000000965
 -------------------------------------------------------------------
 Cartesian Forces:  Max     0.003684617 RMS     0.001440370

 GradGradGradGradGradGradGradGradGradGradGradGradGradGradGradGradGradGrad
 Berny optimization.
 Using GEDIIS/GDIIS optimizer.
 FormGI is forming the generalized inverse of G from B-inverse, IUseBI=4.
 Internal  Forces:  Max     0.002758680 RMS     0.000916788
 Search for a local minimum.
 Step number   3 out of a maximum of   36
 All quantities printed in internal units (Hartrees-Bohrs-Radians)
 Mixed Optimization -- En-DIIS/RFO-DIIS
 Update second derivatives using D2CorX and points    1    2    3
 DE= -3.79D-03 DEPred=-3.84D-03 R= 9.87D-01
 TightC=F SS=  1.41D+00  RLast= 1.18D-01 DXNew= 5.0454D-01 3.5286D-01
 Trust test= 9.87D-01 RLast= 1.18D-01 DXMaxT set to 3.53D-01
 ITU=  1  0  0
 Use linear search instead of GDIIS.
     Eigenvalues ---    0.01764   0.02218   0.02264   0.02285   0.15995
     Eigenvalues ---    0.16015   0.22674   0.34561   0.35858   0.36068
     Eigenvalues ---    0.42593   0.46124   0.49464   0.50845   0.63286
 RFO step:  Lambda=-5.32560681D-05 EMin= 1.76363181D-02
 Quartic linear search produced a step of  0.00754.
 Iteration  1 RMS(Cart)=  0.00229845 RMS(Int)=  0.00000363
 Iteration  2 RMS(Cart)=  0.00000392 RMS(Int)=  0.00000161
 Iteration  3 RMS(Cart)=  0.00000000 RMS(Int)=  0.00000161
 Variable       Old X    -DE/DX   Delta X   Delta X   Delta X     New X
                                 (Linear)    (Quad)   (Total)
    R1        2.51531   0.00095  -0.00023   0.00237   0.00215   2.51745
    R2        2.51307   0.00084  -0.00018   0.00197   0.00179   2.51486
    R3        2.54584   0.00223  -0.00014   0.00455   0.00440   2.55024
    R4        2.62626   0.00110   0.00021   0.00182   0.00203   2.62830
    R5        2.04807  -0.00046  -0.00002  -0.00122  -0.00123   2.04683
    R6        2.54606   0.00276  -0.00011   0.00533   0.00522   2.55128
    R7        2.04845  -0.00081  -0.00003  -0.00213  -0.00216   2.04629
    A1        1.93736   0.00102   0.00057   0.00178   0.00235   1.93971
    A2        1.86805   0.00010  -0.00034   0.00150   0.00115   1.86920
    A3        1.87652  -0.00084   0.00007  -0.00372  -0.00366   1.87286
    A4        2.12708   0.00017  -0.00011   0.00054   0.00044   2.12752
    A5        2.27958   0.00067   0.00004   0.00318   0.00322   2.28280
    A6        1.87045   0.00097   0.00008   0.00427   0.00435   1.87479
    A7        2.28138  -0.00008   0.00004   0.00014   0.00018   2.28156
    A8        2.13136  -0.00090  -0.00012  -0.00441  -0.00453   2.12683
    A9        1.87241  -0.00126  -0.00038  -0.00382  -0.00420   1.86821
    D1       -0.00001   0.00000  -0.00000   0.00003   0.00003   0.00002
    D2       -0.00002   0.00000   0.00000   0.00007   0.00007   0.00005
    D3        0.00003  -0.00000   0.00000  -0.00011  -0.00011  -0.00008
    D4       -3.14158  -0.00000   0.00000  -0.00003  -0.00003   3.14157
    D5       -0.00005   0.00000  -0.00000   0.00016   0.00016   0.00011
    D6        3.14157   0.00000  -0.00000   0.00005   0.00005  -3.14156
    D7        3.14157   0.00000  -0.00000   0.00006   0.00006  -3.14155
    D8        0.00001  -0.00000   0.00000  -0.00004  -0.00004  -0.00003
    D9        0.00004  -0.00000   0.00000  -0.00014  -0.00014  -0.00010
   D10       -3.14157  -0.00000   0.00000  -0.00005  -0.00005   3.14156
         Item               Value     Threshold  Converged?
 Maximum Force            0.002759     0.000450     NO 
 RMS     Force            0.000917     0.000300     NO 
 Maximum Displacement     0.006461     0.001800     NO 
 RMS     Displacement     0.002299     0.001200     NO 
 Predicted change in Energy=-2.685230D-05
 GradGradGradGradGradGradGradGradGradGradGradGradGradGradGradGradGradGrad

                          Input orientation:                          
 ---------------------------------------------------------------------
 Center     Atomic      Atomic             Coordinates (Angstroms)
 Number     Number       Type             X           Y           Z
 ---------------------------------------------------------------------
      1          7           0        0.000032   -0.091689    0.000229
      2          7           0        0.686588    1.049950    0.000252
      3          6           0        1.996463    0.725201    0.000075
      4          6           0        2.078533   -0.663210    0.000042
      5          7           0        0.816449   -1.142645    0.000063
      6          1           0        2.773268    1.480027    0.000037
      7          1           0        2.939443   -1.320018   -0.000054
 ---------------------------------------------------------------------
                    Distance matrix (angstroms):
                    1          2          3          4          5
     1  N    0.000000
     2  N    1.332179   0.000000
     3  C    2.157092   1.349531   0.000000
     4  C    2.155644   2.207358   1.390835   0.000000
     5  N    1.330805   2.196437   2.209362   1.350079   0.000000
     6  H    3.187652   2.130539   1.083138   2.253025   3.272239
     7  H    3.185738   3.269878   2.252139   1.082849   2.130391
                    6          7
     6  H    0.000000
     7  H    2.804972   0.000000
 Stoichiometry    C2H2N3(1-)
 Framework group  C1[X(C2H2N3)]
 Deg. of freedom    15
 Full point group                 C1      NOp   1
 Largest Abelian subgroup         C1      NOp   1
 Largest concise Abelian subgroup C1      NOp   1
                         Standard orientation:                         
 ---------------------------------------------------------------------
 Center     Atomic      Atomic             Coordinates (Angstroms)
 Number     Number       Type             X           Y           Z
 ---------------------------------------------------------------------
      1          7           0       -1.157558   -0.126768   -0.000100
      2          7           0       -0.288524   -1.136461   -0.000124
      3          6           0        0.947940   -0.595728    0.000053
      4          6           0        0.794986    0.786671    0.000086
      5          7           0       -0.529819    1.046682    0.000066
      6          1           0        1.840783   -1.208932    0.000091
      7          1           0        1.532970    1.579099    0.000182
 ---------------------------------------------------------------------
 Rotational constants (GHZ):          10.5694575          10.2406198           5.2012203
 Standard basis: 6-31+G(d,p) (6D, 7F)
 There are   105 symmetry adapted cartesian basis functions of A   symmetry.
 There are   105 symmetry adapted basis functions of A   symmetry.
   105 basis functions,   174 primitive gaussians,   105 cartesian basis functions
    18 alpha electrons       18 beta electrons
       nuclear repulsion energy       155.0625971603 Hartrees.
 NAtoms=    7 NActive=    7 NUniq=    7 SFac= 1.00D+00 NAtFMM=   60 NAOKFM=F Big=F
 Integral buffers will be    131072 words long.
 Raffenetti 2 integral format.
 Two-electron integral symmetry is turned on.
 One-electron integrals computed using PRISM.
 NBasis=   105 RedAO= T EigKep=  7.89D-05  NBF=   105
 NBsUse=   105 1.00D-06 EigRej= -1.00D+00 NBFU=   105
 Initial guess from the checkpoint file:  "/scratch/gongke2021/TZ-/Gau-2841.chk"
 B after Tr=    -0.000000    0.000000    0.000000
         Rot=    0.992240   -0.000012    0.000001   -0.124333 Ang= -14.28 deg.
 Keep R1 ints in memory in canonical form, NReq=34090264.
 Requested convergence on RMS density matrix=1.00D-08 within 128 cycles.
 Requested convergence on MAX density matrix=1.00D-06.
 Requested convergence on             energy=1.00D-06.
 No special actions if energy rises.
 SCF Done:  E(RM062X) =  -241.585011738     A.U. after   10 cycles
            NFock= 10  Conv=0.65D-08     -V/T= 2.0082
 Calling FoFJK, ICntrl=      2127 FMM=F ISym2X=0 I1Cent= 0 IOpClX= 0 NMat=1 NMatS=1 NMatT=0.
 ***** Axes restored to original set *****
 -------------------------------------------------------------------
 Center     Atomic                   Forces (Hartrees/Bohr)
 Number     Number              X              Y              Z
 -------------------------------------------------------------------
      1        7           0.000564725    0.000808538   -0.000003101
      2        7          -0.001246187   -0.000218371   -0.000007302
      3        6           0.000358089   -0.001091383    0.000011453
      4        6           0.000613627    0.000438467   -0.000013160
      5        7          -0.000042070    0.000275591    0.000012252
      6        1          -0.000216525   -0.000020348    0.000001531
      7        1          -0.000031660   -0.000192494   -0.000001672
 -------------------------------------------------------------------
 Cartesian Forces:  Max     0.001246187 RMS     0.000469298

 GradGradGradGradGradGradGradGradGradGradGradGradGradGradGradGradGradGrad
 Berny optimization.
 Using GEDIIS/GDIIS optimizer.
 FormGI is forming the generalized inverse of G from B-inverse, IUseBI=4.
 Internal  Forces:  Max     0.001002315 RMS     0.000319698
 Search for a local minimum.
 Step number   4 out of a maximum of   36
 All quantities printed in internal units (Hartrees-Bohrs-Radians)
 Mixed Optimization -- En-DIIS/RFO-DIIS
 Swapping is turned off.
 Update second derivatives using D2CorX and points    1    2    3    4
 DE= -2.25D-05 DEPred=-2.69D-05 R= 8.39D-01
 TightC=F SS=  1.41D+00  RLast= 1.24D-02 DXNew= 5.9343D-01 3.7059D-02
 Trust test= 8.39D-01 RLast= 1.24D-02 DXMaxT set to 3.53D-01
 ITU=  1  1  0  0
     Eigenvalues ---    0.01763   0.02219   0.02264   0.02285   0.15067
     Eigenvalues ---    0.16006   0.26223   0.34143   0.34614   0.36235
     Eigenvalues ---    0.37864   0.46272   0.48463   0.58877   0.63523
 En-DIIS/RFO-DIIS/Sim-DIIS IScMMF=       -3 using points:     4    3
 RFO step:  Lambda=-6.54893031D-06.
 DidBck=F Rises=F RFO-DIIS coefs:    0.98760    0.01240
 Iteration  1 RMS(Cart)=  0.00090152 RMS(Int)=  0.00000049
 Iteration  2 RMS(Cart)=  0.00000055 RMS(Int)=  0.00000010
 Variable       Old X    -DE/DX   Delta X   Delta X   Delta X     New X
                                 (Linear)    (Quad)   (Total)
    R1        2.51745  -0.00100  -0.00003  -0.00194  -0.00197   2.51548
    R2        2.51486   0.00008  -0.00002   0.00019   0.00017   2.51503
    R3        2.55024   0.00071  -0.00005   0.00174   0.00169   2.55193
    R4        2.62830  -0.00053  -0.00003  -0.00061  -0.00063   2.62767
    R5        2.04683  -0.00017   0.00002  -0.00060  -0.00059   2.04625
    R6        2.55128   0.00002  -0.00006   0.00070   0.00064   2.55192
    R7        2.04629   0.00009   0.00003  -0.00006  -0.00003   2.04626
    A1        1.93971   0.00013  -0.00003   0.00076   0.00073   1.94044
    A2        1.86920  -0.00029  -0.00001  -0.00101  -0.00102   1.86818
    A3        1.87286   0.00037   0.00005   0.00113   0.00118   1.87404
    A4        2.12752  -0.00034  -0.00001  -0.00163  -0.00164   2.12588
    A5        2.28280  -0.00004  -0.00004   0.00050   0.00046   2.28327
    A6        1.87479  -0.00048  -0.00005  -0.00133  -0.00138   1.87341
    A7        2.28156   0.00041  -0.00000   0.00196   0.00196   2.28352
    A8        2.12683   0.00007   0.00006  -0.00064  -0.00058   2.12626
    A9        1.86821   0.00027   0.00005   0.00045   0.00050   1.86871
    D1        0.00002  -0.00000  -0.00000  -0.00003  -0.00003  -0.00002
    D2        0.00005  -0.00000  -0.00000  -0.00016  -0.00016  -0.00011
    D3       -0.00008   0.00001   0.00000   0.00021   0.00021   0.00013
    D4        3.14157   0.00000   0.00000   0.00005   0.00005  -3.14156
    D5        0.00011  -0.00001  -0.00000  -0.00031  -0.00031  -0.00020
    D6       -3.14156  -0.00000  -0.00000  -0.00009  -0.00010   3.14153
    D7       -3.14155  -0.00000  -0.00000  -0.00013  -0.00013   3.14151
    D8       -0.00003   0.00000   0.00000   0.00008   0.00008   0.00005
    D9       -0.00010   0.00001   0.00000   0.00028   0.00029   0.00019
   D10        3.14156   0.00000   0.00000   0.00009   0.00010  -3.14153
         Item               Value     Threshold  Converged?
 Maximum Force            0.001002     0.000450     NO 
 RMS     Force            0.000320     0.000300     NO 
 Maximum Displacement     0.002256     0.001800     NO 
 RMS     Displacement     0.000901     0.001200     YES
 Predicted change in Energy=-3.274529D-06
 GradGradGradGradGradGradGradGradGradGradGradGradGradGradGradGradGradGrad

                          Input orientation:                          
 ---------------------------------------------------------------------
 Center     Atomic      Atomic             Coordinates (Angstroms)
 Number     Number       Type             X           Y           Z
 ---------------------------------------------------------------------
      1          7           0        0.000482   -0.090893    0.000207
      2          7           0        0.685857    1.050242    0.000150
      3          6           0        1.996451    0.724676    0.000122
      4          6           0        2.079496   -0.663343   -0.000012
      5          7           0        0.816776   -1.142056    0.000197
      6          1           0        2.772141    1.480201    0.000103
      7          1           0        2.939573   -1.321212   -0.000124
 ---------------------------------------------------------------------
                    Distance matrix (angstroms):
                    1          2          3          4          5
     1  N    0.000000
     2  N    1.331137   0.000000
     3  C    2.156164   1.350425   0.000000
     4  C    2.156385   2.208755   1.390501   0.000000
     5  N    1.330894   2.196203   2.208239   1.350417   0.000000
     6  H    3.185974   2.130128   1.082827   2.252673   3.271037
     7  H    3.186211   3.271548   2.252806   1.082832   2.130344
                    6          7
     6  H    0.000000
     7  H    2.806412   0.000000
 Stoichiometry    C2H2N3(1-)
 Framework group  C1[X(C2H2N3)]
 Deg. of freedom    15
 Full point group                 C1      NOp   1
 Largest Abelian subgroup         C1      NOp   1
 Largest concise Abelian subgroup C1      NOp   1
                         Standard orientation:                         
 ---------------------------------------------------------------------
 Center     Atomic      Atomic             Coordinates (Angstroms)
 Number     Number       Type             X           Y           Z
 ---------------------------------------------------------------------
      1          7           0       -1.164011    0.017169   -0.000078
      2          7           0       -0.428097   -1.092046   -0.000020
      3          6           0        0.866559   -0.707971    0.000007
      4          6           0        0.887207    0.682376    0.000141
      5          7           0       -0.395731    1.103918   -0.000068
      6          1           0        1.675386   -1.427910    0.000026
      7          1           0        1.716883    1.378195    0.000253
 ---------------------------------------------------------------------
 Rotational constants (GHZ):          10.5681436          10.2427184           5.2014433
 Standard basis: 6-31+G(d,p) (6D, 7F)
 There are   105 symmetry adapted cartesian basis functions of A   symmetry.
 There are   105 symmetry adapted basis functions of A   symmetry.
   105 basis functions,   174 primitive gaussians,   105 cartesian basis functions
    18 alpha electrons       18 beta electrons
       nuclear repulsion energy       155.0669424777 Hartrees.
 NAtoms=    7 NActive=    7 NUniq=    7 SFac= 1.00D+00 NAtFMM=   60 NAOKFM=F Big=F
 Integral buffers will be    131072 words long.
 Raffenetti 2 integral format.
 Two-electron integral symmetry is turned on.
 One-electron integrals computed using PRISM.
 NBasis=   105 RedAO= T EigKep=  7.88D-05  NBF=   105
 NBsUse=   105 1.00D-06 EigRej= -1.00D+00 NBFU=   105
 Initial guess from the checkpoint file:  "/scratch/gongke2021/TZ-/Gau-2841.chk"
 B after Tr=     0.000000   -0.000000   -0.000000
         Rot=    0.998069    0.000023    0.000000    0.062123 Ang=   7.12 deg.
 Keep R1 ints in memory in canonical form, NReq=34090264.
 Requested convergence on RMS density matrix=1.00D-08 within 128 cycles.
 Requested convergence on MAX density matrix=1.00D-06.
 Requested convergence on             energy=1.00D-06.
 No special actions if energy rises.
 SCF Done:  E(RM062X) =  -241.585017925     A.U. after    9 cycles
            NFock=  9  Conv=0.91D-08     -V/T= 2.0082
 Calling FoFJK, ICntrl=      2127 FMM=F ISym2X=0 I1Cent= 0 IOpClX= 0 NMat=1 NMatS=1 NMatT=0.
 ***** Axes restored to original set *****
 -------------------------------------------------------------------
 Center     Atomic                   Forces (Hartrees/Bohr)
 Number     Number              X              Y              Z
 -------------------------------------------------------------------
      1        7           0.000035152    0.000099309    0.000008187
      2        7          -0.000040875   -0.000296276    0.000012058
      3        6           0.000146715   -0.000402909   -0.000020935
      4        6          -0.000118031    0.000539870    0.000025013
      5        7          -0.000058793    0.000052862   -0.000024753
      6        1           0.000026591    0.000080369   -0.000002839
      7        1           0.000009242   -0.000073225    0.000003269
 -------------------------------------------------------------------
 Cartesian Forces:  Max     0.000539870 RMS     0.000170513

 GradGradGradGradGradGradGradGradGradGradGradGradGradGradGradGradGradGrad
 Berny optimization.
 Using GEDIIS/GDIIS optimizer.
 FormGI is forming the generalized inverse of G from B-inverse, IUseBI=4.
 Internal  Forces:  Max     0.000406978 RMS     0.000106164
 Search for a local minimum.
 Step number   5 out of a maximum of   36
 All quantities printed in internal units (Hartrees-Bohrs-Radians)
 Mixed Optimization -- En-DIIS/RFO-DIIS
 Swapping is turned off.
 Update second derivatives using D2CorX and points    1    2    3    4    5
 DE= -6.19D-06 DEPred=-3.27D-06 R= 1.89D+00
 TightC=F SS=  1.41D+00  RLast= 4.52D-03 DXNew= 5.9343D-01 1.3556D-02
 Trust test= 1.89D+00 RLast= 4.52D-03 DXMaxT set to 3.53D-01
 ITU=  1  1  1  0  0
     Eigenvalues ---    0.01763   0.02227   0.02264   0.02285   0.13153
     Eigenvalues ---    0.16005   0.28075   0.34103   0.35336   0.36288
     Eigenvalues ---    0.38221   0.46248   0.52997   0.56095   0.61197
 En-DIIS/RFO-DIIS/Sim-DIIS IScMMF=       -3 using points:     5    4    3
 RFO step:  Lambda=-7.98242773D-07.
 DidBck=F Rises=F RFO-DIIS coefs:    1.12778   -0.07371   -0.05406
 Iteration  1 RMS(Cart)=  0.00032369 RMS(Int)=  0.00000014
 Iteration  2 RMS(Cart)=  0.00000010 RMS(Int)=  0.00000009
 Variable       Old X    -DE/DX   Delta X   Delta X   Delta X     New X
                                 (Linear)    (Quad)   (Total)
    R1        2.51548  -0.00019  -0.00014  -0.00055  -0.00068   2.51480
    R2        2.51503  -0.00012   0.00012  -0.00035  -0.00023   2.51479
    R3        2.55193   0.00002   0.00045  -0.00018   0.00028   2.55221
    R4        2.62767  -0.00041   0.00003  -0.00088  -0.00085   2.62682
    R5        2.04625   0.00007  -0.00014   0.00025   0.00011   2.04635
    R6        2.55192   0.00005   0.00036  -0.00014   0.00022   2.55214
    R7        2.04626   0.00005  -0.00012   0.00022   0.00010   2.04635
    A1        1.94044  -0.00013   0.00022  -0.00029  -0.00007   1.94037
    A2        1.86818   0.00014  -0.00007   0.00039   0.00032   1.86850
    A3        1.87404  -0.00009  -0.00005  -0.00030  -0.00035   1.87369
    A4        2.12588  -0.00000  -0.00019  -0.00015  -0.00033   2.12555
    A5        2.28327   0.00010   0.00023   0.00045   0.00068   2.28395
    A6        1.87341   0.00008   0.00006   0.00023   0.00028   1.87369
    A7        2.28352   0.00001   0.00026   0.00013   0.00039   2.28391
    A8        2.12626  -0.00008  -0.00032  -0.00036  -0.00068   2.12558
    A9        1.86871   0.00000  -0.00016  -0.00002  -0.00018   1.86853
    D1       -0.00002   0.00000  -0.00000   0.00001   0.00001  -0.00001
    D2       -0.00011   0.00001  -0.00002   0.00042   0.00040   0.00029
    D3        0.00013  -0.00001   0.00002  -0.00043  -0.00041  -0.00027
    D4       -3.14156  -0.00000   0.00000  -0.00009  -0.00008   3.14154
    D5       -0.00020   0.00001  -0.00003   0.00068   0.00065   0.00045
    D6        3.14153   0.00000  -0.00001   0.00020   0.00019  -3.14147
    D7        3.14151   0.00001  -0.00001   0.00030   0.00029  -3.14139
    D8        0.00005  -0.00000   0.00001  -0.00018  -0.00017  -0.00012
    D9        0.00019  -0.00001   0.00003  -0.00067  -0.00064  -0.00045
   D10       -3.14153  -0.00000   0.00001  -0.00024  -0.00023   3.14143
         Item               Value     Threshold  Converged?
 Maximum Force            0.000407     0.000450     YES
 RMS     Force            0.000106     0.000300     YES
 Maximum Displacement     0.000700     0.001800     YES
 RMS     Displacement     0.000324     0.001200     YES
 Predicted change in Energy=-3.990886D-07
 Optimization completed.
    -- Stationary point found.
                           ----------------------------
                           !   Optimized Parameters   !
                           ! (Angstroms and Degrees)  !
 --------------------------                            --------------------------
 ! Name  Definition              Value          Derivative Info.                !
 --------------------------------------------------------------------------------
 ! R1    R(1,2)                  1.3311         -DE/DX =   -0.0002              !
 ! R2    R(1,5)                  1.3309         -DE/DX =   -0.0001              !
 ! R3    R(2,3)                  1.3504         -DE/DX =    0.0                 !
 ! R4    R(3,4)                  1.3905         -DE/DX =   -0.0004              !
 ! R5    R(3,6)                  1.0828         -DE/DX =    0.0001              !
 ! R6    R(4,5)                  1.3504         -DE/DX =    0.0                 !
 ! R7    R(4,7)                  1.0828         -DE/DX =    0.0001              !
 ! A1    A(2,1,5)              111.179          -DE/DX =   -0.0001              !
 ! A2    A(1,2,3)              107.0389         -DE/DX =    0.0001              !
 ! A3    A(2,3,4)              107.3744         -DE/DX =   -0.0001              !
 ! A4    A(2,3,6)              121.804          -DE/DX =    0.0                 !
 ! A5    A(4,3,6)              130.8216         -DE/DX =    0.0001              !
 ! A6    A(3,4,5)              107.3384         -DE/DX =    0.0001              !
 ! A7    A(3,4,7)              130.8361         -DE/DX =    0.0                 !
 ! A8    A(5,4,7)              121.8254         -DE/DX =   -0.0001              !
 ! A9    A(1,5,4)              107.0692         -DE/DX =    0.0                 !
 ! D1    D(5,1,2,3)             -0.001          -DE/DX =    0.0                 !
 ! D2    D(2,1,5,4)             -0.0063         -DE/DX =    0.0                 !
 ! D3    D(1,2,3,4)              0.0077         -DE/DX =    0.0                 !
 ! D4    D(1,2,3,6)            180.0018         -DE/DX =    0.0                 !
 ! D5    D(2,3,4,5)             -0.0115         -DE/DX =    0.0                 !
 ! D6    D(2,3,4,7)           -180.0036         -DE/DX =    0.0                 !
 ! D7    D(6,3,4,5)           -180.0049         -DE/DX =    0.0                 !
 ! D8    D(6,3,4,7)              0.003          -DE/DX =    0.0                 !
 ! D9    D(3,4,5,1)              0.0108         -DE/DX =    0.0                 !
 ! D10   D(7,4,5,1)            180.0037         -DE/DX =    0.0                 !
 --------------------------------------------------------------------------------
 GradGradGradGradGradGradGradGradGradGradGradGradGradGradGradGradGradGrad

                          Input orientation:                          
 ---------------------------------------------------------------------
 Center     Atomic      Atomic             Coordinates (Angstroms)
 Number     Number       Type             X           Y           Z
 ---------------------------------------------------------------------
      1          7           0        0.000482   -0.090893    0.000207
      2          7           0        0.685857    1.050242    0.000150
      3          6           0        1.996451    0.724676    0.000122
      4          6           0        2.079496   -0.663343   -0.000012
      5          7           0        0.816776   -1.142056    0.000197
      6          1           0        2.772141    1.480201    0.000103
      7          1           0        2.939573   -1.321212   -0.000124
 ---------------------------------------------------------------------
                    Distance matrix (angstroms):
                    1          2          3          4          5
     1  N    0.000000
     2  N    1.331137   0.000000
     3  C    2.156164   1.350425   0.000000
     4  C    2.156385   2.208755   1.390501   0.000000
     5  N    1.330894   2.196203   2.208239   1.350417   0.000000
     6  H    3.185974   2.130128   1.082827   2.252673   3.271037
     7  H    3.186211   3.271548   2.252806   1.082832   2.130344
                    6          7
     6  H    0.000000
     7  H    2.806412   0.000000
 Stoichiometry    C2H2N3(1-)
 Framework group  C1[X(C2H2N3)]
 Deg. of freedom    15
 Full point group                 C1      NOp   1
 Largest Abelian subgroup         C1      NOp   1
 Largest concise Abelian subgroup C1      NOp   1
                         Standard orientation:                         
 ---------------------------------------------------------------------
 Center     Atomic      Atomic             Coordinates (Angstroms)
 Number     Number       Type             X           Y           Z
 ---------------------------------------------------------------------
      1          7           0       -1.164011    0.017169   -0.000078
      2          7           0       -0.428097   -1.092046   -0.000020
      3          6           0        0.866559   -0.707971    0.000007
      4          6           0        0.887207    0.682376    0.000141
      5          7           0       -0.395731    1.103918   -0.000068
      6          1           0        1.675386   -1.427910    0.000026
      7          1           0        1.716883    1.378195    0.000253
 ---------------------------------------------------------------------
 Rotational constants (GHZ):          10.5681436          10.2427184           5.2014433

 **********************************************************************

            Population analysis using the SCF density.

 **********************************************************************

 Orbital symmetries:
       Occupied  (A) (A) (A) (A) (A) (A) (A) (A) (A) (A) (A) (A)
                 (A) (A) (A) (A) (A) (A)
       Virtual   (A) (A) (A) (A) (A) (A) (A) (A) (A) (A) (A) (A)
                 (A) (A) (A) (A) (A) (A) (A) (A) (A) (A) (A) (A)
                 (A) (A) (A) (A) (A) (A) (A) (A) (A) (A) (A) (A)
                 (A) (A) (A) (A) (A) (A) (A) (A) (A) (A) (A) (A)
                 (A) (A) (A) (A) (A) (A) (A) (A) (A) (A) (A) (A)
                 (A) (A) (A) (A) (A) (A) (A) (A) (A) (A) (A) (A)
                 (A) (A) (A) (A) (A) (A) (A) (A) (A) (A) (A) (A)
                 (A) (A) (A)
 The electronic state is 1-A.
 Alpha  occ. eigenvalues --  -14.58911 -14.56870 -14.56866 -10.36895 -10.36817
 Alpha  occ. eigenvalues --   -0.96712  -0.74844  -0.67049  -0.47757  -0.44923
 Alpha  occ. eigenvalues --   -0.37730  -0.30619  -0.30413  -0.20137  -0.13293
 Alpha  occ. eigenvalues --   -0.12423  -0.12383  -0.10000
 Alpha virt. eigenvalues --    0.15847   0.16173   0.19432   0.21211   0.21367
 Alpha virt. eigenvalues --    0.22127   0.23879   0.28002   0.28373   0.28456
 Alpha virt. eigenvalues --    0.31392   0.32786   0.34442   0.34490   0.38816
 Alpha virt. eigenvalues --    0.39463   0.40004   0.40107   0.41590   0.41800
 Alpha virt. eigenvalues --    0.44065   0.45761   0.47083   0.52609   0.53546
 Alpha virt. eigenvalues --    0.55759   0.62026   0.72478   0.76554   0.91206
 Alpha virt. eigenvalues --    0.91218   0.94590   1.05230   1.05622   1.11626
 Alpha virt. eigenvalues --    1.12419   1.13127   1.17037   1.17241   1.21209
 Alpha virt. eigenvalues --    1.23582   1.23822   1.26007   1.30519   1.31201
 Alpha virt. eigenvalues --    1.32485   1.38515   1.51192   1.51336   1.55469
 Alpha virt. eigenvalues --    1.63022   1.65185   1.77073   1.80039   1.80880
 Alpha virt. eigenvalues --    1.81651   1.81702   2.10092   2.17837   2.19338
 Alpha virt. eigenvalues --    2.26394   2.30046   2.41493   2.48132   2.54782
 Alpha virt. eigenvalues --    2.56736   2.58293   2.58430   2.71340   2.72365
 Alpha virt. eigenvalues --    2.76027   2.86345   2.87927   2.91424   2.92542
 Alpha virt. eigenvalues --    3.01638   3.02912   3.18771   3.26195   3.34229
 Alpha virt. eigenvalues --    3.47844   3.89283   4.17750   4.40131   4.41870
 Alpha virt. eigenvalues --    4.59311   4.84150
          Condensed to atoms (all electrons):
               1          2          3          4          5          6
     1  N    6.852166   0.149253  -0.030200  -0.029995   0.149250   0.013971
     2  N    0.149253   6.950533   0.319696  -0.141853   0.070724  -0.054138
     3  C   -0.030200   0.319696   5.687070   0.058690  -0.141672   0.380747
     4  C   -0.029995  -0.141853   0.058690   5.687237   0.319411  -0.028922
     5  N    0.149250   0.070724  -0.141672   0.319411   6.950586  -0.005926
     6  H    0.013971  -0.054138   0.380747  -0.028922  -0.005926   0.599654
     7  H    0.013934  -0.005923  -0.028891   0.380753  -0.054082   0.001789
               7
     1  N    0.013934
     2  N   -0.005923
     3  C   -0.028891
     4  C    0.380753
     5  N   -0.054082
     6  H    0.001789
     7  H    0.599523
 Mulliken charges:
               1
     1  N   -0.118378
     2  N   -0.288292
     3  C   -0.245440
     4  C   -0.245322
     5  N   -0.288291
     6  H    0.092826
     7  H    0.092897
 Sum of Mulliken charges =  -1.00000
 Mulliken charges with hydrogens summed into heavy atoms:
               1
     1  N   -0.118378
     2  N   -0.288292
     3  C   -0.152614
     4  C   -0.152425
     5  N   -0.288291
 Electronic spatial extent (au):  <R**2>=            273.4760
 Charge=             -1.0000 electrons
 Dipole moment (field-independent basis, Debye):
    X=              3.7647    Y=             -0.0545    Z=              0.0003  Tot=              3.7651
 Quadrupole moment (field-independent basis, Debye-Ang):
   XX=            -37.2159   YY=            -40.1368   ZZ=            -33.6715
   XY=             -0.0419   XZ=             -0.0002   YZ=              0.0003
 Traceless Quadrupole moment (field-independent basis, Debye-Ang):
   XX=             -0.2078   YY=             -3.1288   ZZ=              3.3366
   XY=             -0.0419   XZ=             -0.0002   YZ=              0.0003
 Octapole moment (field-independent basis, Debye-Ang**2):
  XXX=              8.7233  YYY=             -0.3235  ZZZ=             -0.0006  XYY=              7.4479
  XXY=              0.0929  XXZ=              0.0011  XZZ=             -2.2097  YZZ=              0.0327
  YYZ=              0.0006  XYZ=              0.0005
 Hexadecapole moment (field-independent basis, Debye-Ang**3):
 XXXX=           -201.6881 YYYY=           -214.2557 ZZZZ=            -44.2544 XXXY=              0.2455
 XXXZ=             -0.0057 YYYX=             -0.4380 YYYZ=             -0.0002 ZZZX=             -0.0066
 ZZZY=             -0.0013 XXYY=            -61.6305 XXZZ=            -42.2327 YYZZ=            -41.8135
 XXYZ=              0.0002 YYXZ=             -0.0017 ZZXY=              0.0023
 N-N= 1.550669424777D+02 E-N=-8.810889145728D+02  KE= 2.396182570115D+02
 1\1\GINC-NODE2\FOpt\RM062X\6-31+G(d,p)\C2H2N3(1-)\GONGKE2021\06-May-20
 23\0\\# opt freq 6-31+g(d,p) m062x\\"Sketch 2"\\-1,1\N,0.0004823568,-0
 .090892741,0.0002073066\N,0.6858569603,1.05024154,0.0001495959\C,1.996
 4505102,0.7246759731,0.0001220987\C,2.0794956653,-0.6633425052,-0.0000
 116677\N,0.8167762469,-1.1420555075,0.0001969869\H,2.7721411579,1.4802
 009961,0.0001032123\H,2.9395731025,-1.3212117555,-0.0001235328\\Versio
 n=ES64L-G16RevA.03\State=1-A\HF=-241.5850179\RMSD=9.060e-09\RMSF=1.705
 e-04\Dipole=1.4786911,0.0879286,-0.0001222\Quadrupole=-0.1616654,-2.31
 89848,2.4806502,0.1283967,0.0001688,0.0002418\PG=C01 [X(C2H2N3)]\\@


       THE DEATH-KNELL OF THE ATOM

 SO THE ATOMS IN TURN, WE NOW CLEARLY DISCERN,
 FLY TO BITS WITH THE UTMOST FACILITY;
 THEY WEND ON THEIR WAY, AND, IN SPLITTING, DISPLAY
 AN ABSOLUTE LACK OF STABILITY.

          SIR WM. RAMSAY, 1905
 Job cpu time:       0 days  0 hours  7 minutes 31.1 seconds.
 Elapsed time:       0 days  0 hours  0 minutes 25.2 seconds.
 File lengths (MBytes):  RWF=     10 Int=      0 D2E=      0 Chk=      2 Scr=      1
 Normal termination of Gaussian 16 at Sat May  6 04:44:36 2023.
 Link1:  Proceeding to internal job step number  2.
 ----------------------------------------------------------------------
 #N Geom=AllCheck Guess=TCheck SCRF=Check GenChk RM062X/6-31+G(d,p) Fre
 q
 ----------------------------------------------------------------------
 1/10=4,29=7,30=1,38=1,40=1/1,3;
 2/12=2,40=1/2;
 3/5=1,6=6,7=111,11=2,14=-4,25=1,30=1,70=2,71=2,74=-55,116=1,140=1/1,2,3;
 4/5=101/1;
 5/5=2,38=6,98=1/2;
 8/6=4,10=90,11=11/1;
 11/6=1,8=1,9=11,15=111,16=1/1,2,10;
 10/6=1/2;
 6/7=2,8=2,9=2,10=2,28=1/1;
 7/8=1,10=1,25=1/1,2,3,16;
 1/10=4,30=1/3;
 99//99;
 Structure from the checkpoint file:  "/scratch/gongke2021/TZ-/Gau-2841.chk"
 ----------
 "Sketch 2"
 ----------
 Charge = -1 Multiplicity = 1
 Redundant internal coordinates found in file.  (old form).
 N,0,0.0004823568,-0.090892741,0.0002073066
 N,0,0.6858569603,1.05024154,0.0001495959
 C,0,1.9964505102,0.7246759731,0.0001220987
 C,0,2.0794956653,-0.6633425052,-0.0000116677
 N,0,0.8167762469,-1.1420555075,0.0001969869
 H,0,2.7721411579,1.4802009961,0.0001032123
 H,0,2.9395731025,-1.3212117555,-0.0001235328
 Recover connectivity data from disk.

 GradGradGradGradGradGradGradGradGradGradGradGradGradGradGradGradGradGrad
 Berny optimization.
 Initialization pass.
                           ----------------------------
                           !    Initial Parameters    !
                           ! (Angstroms and Degrees)  !
 --------------------------                            --------------------------
 ! Name  Definition              Value          Derivative Info.                !
 --------------------------------------------------------------------------------
 ! R1    R(1,2)                  1.3311         calculate D2E/DX2 analytically  !
 ! R2    R(1,5)                  1.3309         calculate D2E/DX2 analytically  !
 ! R3    R(2,3)                  1.3504         calculate D2E/DX2 analytically  !
 ! R4    R(3,4)                  1.3905         calculate D2E/DX2 analytically  !
 ! R5    R(3,6)                  1.0828         calculate D2E/DX2 analytically  !
 ! R6    R(4,5)                  1.3504         calculate D2E/DX2 analytically  !
 ! R7    R(4,7)                  1.0828         calculate D2E/DX2 analytically  !
 ! A1    A(2,1,5)              111.179          calculate D2E/DX2 analytically  !
 ! A2    A(1,2,3)              107.0389         calculate D2E/DX2 analytically  !
 ! A3    A(2,3,4)              107.3744         calculate D2E/DX2 analytically  !
 ! A4    A(2,3,6)              121.804          calculate D2E/DX2 analytically  !
 ! A5    A(4,3,6)              130.8216         calculate D2E/DX2 analytically  !
 ! A6    A(3,4,5)              107.3384         calculate D2E/DX2 analytically  !
 ! A7    A(3,4,7)              130.8361         calculate D2E/DX2 analytically  !
 ! A8    A(5,4,7)              121.8254         calculate D2E/DX2 analytically  !
 ! A9    A(1,5,4)              107.0692         calculate D2E/DX2 analytically  !
 ! D1    D(5,1,2,3)             -0.001          calculate D2E/DX2 analytically  !
 ! D2    D(2,1,5,4)             -0.0063         calculate D2E/DX2 analytically  !
 ! D3    D(1,2,3,4)              0.0077         calculate D2E/DX2 analytically  !
 ! D4    D(1,2,3,6)           -179.9982         calculate D2E/DX2 analytically  !
 ! D5    D(2,3,4,5)             -0.0115         calculate D2E/DX2 analytically  !
 ! D6    D(2,3,4,7)            179.9964         calculate D2E/DX2 analytically  !
 ! D7    D(6,3,4,5)            179.9951         calculate D2E/DX2 analytically  !
 ! D8    D(6,3,4,7)              0.003          calculate D2E/DX2 analytically  !
 ! D9    D(3,4,5,1)              0.0108         calculate D2E/DX2 analytically  !
 ! D10   D(7,4,5,1)           -179.9963         calculate D2E/DX2 analytically  !
 --------------------------------------------------------------------------------
 Trust Radius=3.00D-01 FncErr=1.00D-07 GrdErr=1.00D-07 EigMax=2.50D+02 EigMin=1.00D-04
 Number of steps in this run=      2 maximum allowed number of steps=      2.
 GradGradGradGradGradGradGradGradGradGradGradGradGradGradGradGradGradGrad

                          Input orientation:                          
 ---------------------------------------------------------------------
 Center     Atomic      Atomic             Coordinates (Angstroms)
 Number     Number       Type             X           Y           Z
 ---------------------------------------------------------------------
      1          7           0        0.000482   -0.090893    0.000207
      2          7           0        0.685857    1.050242    0.000150
      3          6           0        1.996451    0.724676    0.000122
      4          6           0        2.079496   -0.663343   -0.000012
      5          7           0        0.816776   -1.142056    0.000197
      6          1           0        2.772141    1.480201    0.000103
      7          1           0        2.939573   -1.321212   -0.000124
 ---------------------------------------------------------------------
                    Distance matrix (angstroms):
                    1          2          3          4          5
     1  N    0.000000
     2  N    1.331137   0.000000
     3  C    2.156164   1.350425   0.000000
     4  C    2.156385   2.208755   1.390501   0.000000
     5  N    1.330894   2.196203   2.208239   1.350417   0.000000
     6  H    3.185974   2.130128   1.082827   2.252673   3.271037
     7  H    3.186211   3.271548   2.252806   1.082832   2.130344
                    6          7
     6  H    0.000000
     7  H    2.806412   0.000000
 Stoichiometry    C2H2N3(1-)
 Framework group  C1[X(C2H2N3)]
 Deg. of freedom    15
 Full point group                 C1      NOp   1
 Largest Abelian subgroup         C1      NOp   1
 Largest concise Abelian subgroup C1      NOp   1
                         Standard orientation:                         
 ---------------------------------------------------------------------
 Center     Atomic      Atomic             Coordinates (Angstroms)
 Number     Number       Type             X           Y           Z
 ---------------------------------------------------------------------
      1          7           0       -1.164011    0.017169   -0.000078
      2          7           0       -0.428097   -1.092046   -0.000020
      3          6           0        0.866559   -0.707971    0.000007
      4          6           0        0.887207    0.682376    0.000141
      5          7           0       -0.395731    1.103918   -0.000068
      6          1           0        1.675386   -1.427910    0.000026
      7          1           0        1.716883    1.378195    0.000253
 ---------------------------------------------------------------------
 Rotational constants (GHZ):          10.5681436          10.2427184           5.2014433
 Standard basis: 6-31+G(d,p) (6D, 7F)
 There are   105 symmetry adapted cartesian basis functions of A   symmetry.
 There are   105 symmetry adapted basis functions of A   symmetry.
   105 basis functions,   174 primitive gaussians,   105 cartesian basis functions
    18 alpha electrons       18 beta electrons
       nuclear repulsion energy       155.0669424777 Hartrees.
 NAtoms=    7 NActive=    7 NUniq=    7 SFac= 1.00D+00 NAtFMM=   60 NAOKFM=F Big=F
 Integral buffers will be    131072 words long.
 Raffenetti 2 integral format.
 Two-electron integral symmetry is turned on.
 One-electron integrals computed using PRISM.
 NBasis=   105 RedAO= T EigKep=  7.88D-05  NBF=   105
 NBsUse=   105 1.00D-06 EigRej= -1.00D+00 NBFU=   105
 Initial guess from the checkpoint file:  "/scratch/gongke2021/TZ-/Gau-2841.chk"
 B after Tr=     0.000000    0.000000    0.000000
         Rot=    1.000000   -0.000000   -0.000000   -0.000000 Ang=   0.00 deg.
 Keep R1 ints in memory in canonical form, NReq=34090264.
 Requested convergence on RMS density matrix=1.00D-08 within 128 cycles.
 Requested convergence on MAX density matrix=1.00D-06.
 Requested convergence on             energy=1.00D-06.
 No special actions if energy rises.
 SCF Done:  E(RM062X) =  -241.585017925     A.U. after    1 cycles
            NFock=  1  Conv=0.34D-08     -V/T= 2.0082
 DoSCS=F DFT=T ScalE2(SS,OS)=  1.000000  1.000000
 Range of M.O.s used for correlation:     1   105
 NBasis=   105 NAE=    18 NBE=    18 NFC=     0 NFV=     0
 NROrb=    105 NOA=    18 NOB=    18 NVA=    87 NVB=    87

 **** Warning!!: The largest alpha MO coefficient is  0.48520137D+02

 Symmetrizing basis deriv contribution to polar:
 IMax=3 JMax=2 DiffMx= 0.00D+00
 G2DrvN: will do     8 centers at a time, making    1 passes.
 Calling FoFCou, ICntrl=  3107 FMM=F I1Cent=   0 AccDes= 0.00D+00.
 End of G2Drv F.D. properties file   721 does not exist.
 End of G2Drv F.D. properties file   722 does not exist.
 End of G2Drv F.D. properties file   788 does not exist.
          IDoAtm=1111111
          Differentiating once with respect to electric field.
                with respect to dipole field.
          Differentiating once with respect to nuclear coordinates.
 Keep R1 ints in memory in canonical form, NReq=34026749.
          There are    24 degrees of freedom in the 1st order CPHF.  IDoFFX=6 NUNeed=     3.
     21 vectors produced by pass  0 Test12= 6.52D-15 4.17D-09 XBig12= 3.73D+01 3.05D+00.
 AX will form    21 AO Fock derivatives at one time.
     21 vectors produced by pass  1 Test12= 6.52D-15 4.17D-09 XBig12= 1.26D+01 1.19D+00.
     21 vectors produced by pass  2 Test12= 6.52D-15 4.17D-09 XBig12= 1.58D-01 1.08D-01.
     21 vectors produced by pass  3 Test12= 6.52D-15 4.17D-09 XBig12= 1.92D-03 1.02D-02.
     21 vectors produced by pass  4 Test12= 6.52D-15 4.17D-09 XBig12= 1.36D-05 1.02D-03.
     21 vectors produced by pass  5 Test12= 6.52D-15 4.17D-09 XBig12= 1.01D-07 7.19D-05.
[...]
 Frequencies --   1218.1584              1274.5881              1453.0964
 Red. masses --     10.4096                10.4243                 3.6764
 Frc consts  --      9.1011                 9.9778                 4.5737
 IR Inten    --      5.8226                 1.9517                15.8563
  Atom  AN      X      Y      Z        X      Y      Z        X      Y      Z
     1   7     0.59   0.01   0.00    -0.24   0.00  -0.00     0.00   0.09   0.00
     2   7    -0.05   0.31  -0.00     0.46   0.05   0.00    -0.13  -0.11  -0.00
     3   6    -0.25   0.18  -0.00    -0.37   0.02  -0.00     0.26   0.12   0.00
     4   6    -0.24  -0.17  -0.00    -0.37  -0.01  -0.00    -0.26   0.13  -0.00
     5   7    -0.09  -0.33   0.00     0.46  -0.06   0.00     0.13  -0.11   0.00
     6   1    -0.24   0.25  -0.00    -0.32   0.12  -0.00    -0.31  -0.54  -0.00
     7   1    -0.21  -0.28  -0.00    -0.32  -0.11  -0.00     0.30  -0.55   0.00
                     13                     14                     15
                      A                      A                      A
 Frequencies --   1485.7484              3237.5470              3262.2576
 Red. masses --      4.1185                 1.0873                 1.1038
 Frc consts  --      5.3565                 6.7150                 6.9212
 IR Inten    --      0.7164                28.6886                48.5153
  Atom  AN      X      Y      Z        X      Y      Z        X      Y      Z
     1   7     0.03  -0.00   0.00     0.00   0.00  -0.00     0.00  -0.00   0.00
     2   7    -0.01   0.12  -0.00    -0.00  -0.00   0.00     0.00   0.00  -0.00
     3   6    -0.05  -0.35  -0.00     0.04  -0.04   0.00    -0.05   0.05  -0.00
     4   6    -0.04   0.35   0.00    -0.05  -0.04  -0.00    -0.05  -0.04  -0.00
     5   7    -0.01  -0.12   0.00     0.00  -0.00   0.00     0.00  -0.00   0.00
     6   1     0.55   0.26   0.00    -0.51   0.45  -0.00     0.54  -0.49   0.00
     7   1     0.54  -0.27   0.00     0.56   0.47   0.00     0.52   0.44   0.00

 -------------------
 - Thermochemistry -
 -------------------
 Temperature   298.150 Kelvin.  Pressure   1.00000 Atm.
 Atom     1 has atomic number  7 and mass  14.00307
 Atom     2 has atomic number  7 and mass  14.00307
 Atom     3 has atomic number  6 and mass  12.00000
 Atom     4 has atomic number  6 and mass  12.00000
 Atom     5 has atomic number  7 and mass  14.00307
 Atom     6 has atomic number  1 and mass   1.00783
 Atom     7 has atomic number  1 and mass   1.00783
 Molecular mass:    68.02487 amu.
 Principal axes and moments of inertia in atomic units:
                           1         2         3
     Eigenvalues --   170.77183 176.19748 346.96931
           X            0.01868   0.99983  -0.00008
           Y            0.99983  -0.01868  -0.00001
           Z            0.00001   0.00008   1.00000
 This molecule is an asymmetric top.
 Rotational symmetry number  1.
 Rotational temperatures (Kelvin)      0.50719     0.49157     0.24963
 Rotational constants (GHZ):          10.56814    10.24272     5.20144
 Zero-point vibrational energy     121557.0 (Joules/Mol)
                                   29.05283 (Kcal/Mol)
 Vibrational temperatures:    982.89  1079.25  1119.64  1170.75  1397.27
          (Kelvin)           1399.36  1592.56  1602.97  1728.59  1752.66
                             1833.85  2090.68  2137.66  4658.11  4693.66
 
 Zero-point correction=                           0.046299 (Hartree/Particle)
 Thermal correction to Energy=                    0.049690
 Thermal correction to Enthalpy=                  0.050634
 Thermal correction to Gibbs Free Energy=         0.020275
 Sum of electronic and zero-point Energies=           -241.538719
 Sum of electronic and thermal Energies=              -241.535328
 Sum of electronic and thermal Enthalpies=            -241.534384
 Sum of electronic and thermal Free Energies=         -241.564743
 
                     E (Thermal)             CV                S
                      KCal/Mol        Cal/Mol-Kelvin    Cal/Mol-Kelvin
 Total                   31.181             10.961             63.897
 Electronic               0.000              0.000              0.000
 Translational            0.889              2.981             38.570
 Rotational               0.889              2.981             23.861
 Vibrational             29.404              5.000              1.467
                       Q            Log10(Q)             Ln(Q)
 Total Bot       0.472257D-09         -9.325822        -21.473498
 Total V=0       0.933368D+12         11.970053         27.562066
 Vib (Bot)       0.585496D-21        -21.232476        -48.889584
 Vib (V=0)       0.115717D+01          0.063399          0.145980
 Electronic      0.100000D+01          0.000000          0.000000
 Translational   0.220524D+08          7.343455         16.908931
 Rotational      0.365762D+05          4.563199         10.507154
 ***** Axes restored to original set *****
 -------------------------------------------------------------------
 Center     Atomic                   Forces (Hartrees/Bohr)
 Number     Number              X              Y              Z
 -------------------------------------------------------------------
      1        7           0.000035111    0.000099331    0.000008188
      2        7          -0.000040823   -0.000296269    0.000012057
      3        6           0.000146690   -0.000402926   -0.000020936
      4        6          -0.000117996    0.000539940    0.000025014
      5        7          -0.000058790    0.000052808   -0.000024753
      6        1           0.000026570    0.000080347   -0.000002839
      7        1           0.000009238   -0.000073232    0.000003269
 -------------------------------------------------------------------
 Cartesian Forces:  Max     0.000539940 RMS     0.000170522
 FormGI is forming the generalized inverse of G from B-inverse, IUseBI=4.

 GradGradGradGradGradGradGradGradGradGradGradGradGradGradGradGradGradGrad
 Berny optimization.
 Internal  Forces:  Max     0.000407018 RMS     0.000106167
 Search for a local minimum.
 Step number   1 out of a maximum of    2
 All quantities printed in internal units (Hartrees-Bohrs-Radians)
 Second derivative matrix not updated -- analytic derivatives used.
 ITU=  0
     Eigenvalues ---    0.01291   0.02585   0.07384   0.08023   0.09739
     Eigenvalues ---    0.10205   0.21230   0.28985   0.35927   0.36391
     Eigenvalues ---    0.38777   0.38971   0.48573   0.54325   0.59388
 Angle between quadratic step and forces=  36.47 degrees.
 Linear search not attempted -- first point.
 Iteration  1 RMS(Cart)=  0.00029884 RMS(Int)=  0.00000011
 Iteration  2 RMS(Cart)=  0.00000011 RMS(Int)=  0.00000003
 Variable       Old X    -DE/DX   Delta X   Delta X   Delta X     New X
                                 (Linear)    (Quad)   (Total)
    R1        2.51548  -0.00019   0.00000  -0.00060  -0.00060   2.51489
    R2        2.51503  -0.00012   0.00000  -0.00010  -0.00010   2.51492
    R3        2.55193   0.00002   0.00000   0.00030   0.00030   2.55223
    R4        2.62767  -0.00041   0.00000  -0.00096  -0.00096   2.62671
    R5        2.04625   0.00007   0.00000   0.00016   0.00016   2.04641
    R6        2.55192   0.00005   0.00000   0.00017   0.00017   2.55209
    R7        2.04626   0.00005   0.00000   0.00016   0.00016   2.04642
    A1        1.94044  -0.00013   0.00000  -0.00014  -0.00014   1.94030
    A2        1.86818   0.00014   0.00000   0.00031   0.00031   1.86849
    A3        1.87404  -0.00009   0.00000  -0.00032  -0.00032   1.87372
    A4        2.12588  -0.00000   0.00000  -0.00048  -0.00048   2.12540
    A5        2.28327   0.00010   0.00000   0.00081   0.00081   2.28407
    A6        1.87341   0.00008   0.00000   0.00034   0.00034   1.87375
    A7        2.28352   0.00001   0.00000   0.00039   0.00039   2.28391
    A8        2.12626  -0.00008   0.00000  -0.00073  -0.00073   2.12553
    A9        1.86871   0.00000   0.00000  -0.00018  -0.00018   1.86853
    D1       -0.00002   0.00000   0.00000   0.00002   0.00002   0.00000
    D2       -0.00011   0.00001   0.00000   0.00011   0.00011  -0.00000
    D3        0.00013  -0.00001   0.00000  -0.00013  -0.00013  -0.00000
    D4       -3.14156  -0.00000   0.00000  -0.00003  -0.00003  -3.14159
    D5       -0.00020   0.00001   0.00000   0.00020   0.00020   0.00000
    D6        3.14153   0.00000   0.00000   0.00006   0.00006  -3.14159
    D7        3.14151   0.00001   0.00000   0.00009   0.00009   3.14159
    D8        0.00005  -0.00000   0.00000  -0.00005  -0.00005  -0.00000
    D9        0.00019  -0.00001   0.00000  -0.00019  -0.00019   0.00000
   D10       -3.14153  -0.00000   0.00000  -0.00007  -0.00007   3.14159
         Item               Value     Threshold  Converged?
 Maximum Force            0.000407     0.000450     YES
 RMS     Force            0.000106     0.000300     YES
 Maximum Displacement     0.000696     0.001800     YES
 RMS     Displacement     0.000299     0.001200     YES
 Predicted change in Energy=-4.080590D-07
 Optimization completed.
    -- Stationary point found.
                           ----------------------------
                           !   Optimized Parameters   !
                           ! (Angstroms and Degrees)  !
 --------------------------                            --------------------------
 ! Name  Definition              Value          Derivative Info.                !
 --------------------------------------------------------------------------------
 ! R1    R(1,2)                  1.3311         -DE/DX =   -0.0002              !
 ! R2    R(1,5)                  1.3309         -DE/DX =   -0.0001              !
 ! R3    R(2,3)                  1.3504         -DE/DX =    0.0                 !
 ! R4    R(3,4)                  1.3905         -DE/DX =   -0.0004              !
 ! R5    R(3,6)                  1.0828         -DE/DX =    0.0001              !
 ! R6    R(4,5)                  1.3504         -DE/DX =    0.0                 !
 ! R7    R(4,7)                  1.0828         -DE/DX =    0.0001              !
 ! A1    A(2,1,5)              111.179          -DE/DX =   -0.0001              !
 ! A2    A(1,2,3)              107.0389         -DE/DX =    0.0001              !
 ! A3    A(2,3,4)              107.3744         -DE/DX =   -0.0001              !
 ! A4    A(2,3,6)              121.804          -DE/DX =    0.0                 !
 ! A5    A(4,3,6)              130.8216         -DE/DX =    0.0001              !
 ! A6    A(3,4,5)              107.3384         -DE/DX =    0.0001              !
 ! A7    A(3,4,7)              130.8361         -DE/DX =    0.0                 !
 ! A8    A(5,4,7)              121.8254         -DE/DX =   -0.0001              !
 ! A9    A(1,5,4)              107.0692         -DE/DX =    0.0                 !
 ! D1    D(5,1,2,3)             -0.001          -DE/DX =    0.0                 !
 ! D2    D(2,1,5,4)             -0.0063         -DE/DX =    0.0                 !
 ! D3    D(1,2,3,4)              0.0077         -DE/DX =    0.0                 !
 ! D4    D(1,2,3,6)           -179.9982         -DE/DX =    0.0                 !
 ! D5    D(2,3,4,5)             -0.0115         -DE/DX =    0.0                 !
 ! D6    D(2,3,4,7)           -180.0036         -DE/DX =    0.0                 !
 ! D7    D(6,3,4,5)            179.9951         -DE/DX =    0.0                 !
 ! D8    D(6,3,4,7)              0.003          -DE/DX =    0.0                 !
 ! D9    D(3,4,5,1)              0.0108         -DE/DX =    0.0                 !
 ! D10   D(7,4,5,1)            180.0037         -DE/DX =    0.0                 !
 --------------------------------------------------------------------------------
 GradGradGradGradGradGradGradGradGradGradGradGradGradGradGradGradGradGrad


 ----------------------------------------------------------------------

 Electric dipole moment (input orientation):
 (Debye = 10**-18 statcoulomb cm , SI units = C m)
                  (au)            (Debye)         (10**-30 SI)
   Tot        0.148130D+01      0.376510D+01      0.125590D+02
   x          0.147869D+01      0.375846D+01      0.125369D+02
   y          0.879293D-01      0.223494D+00      0.745496D+00
   z         -0.122161D-03     -0.310503D-03     -0.103573D-02

 Dipole polarizability, Alpha (input orientation).
 (esu units = cm**3 , SI units = C**2 m**2 J**-1)
 Alpha(0;0):
               (au)            (10**-24 esu)      (10**-40 SI)
   iso        0.506869D+02      0.751102D+01      0.835714D+01
   aniso      0.222090D+02      0.329104D+01      0.366177D+01
   xx         0.581158D+02      0.861187D+01      0.958200D+01
   yx         0.315083D-02      0.466905D-03      0.519502D-03
   yy         0.580640D+02      0.860419D+01      0.957345D+01
   zx        -0.179451D-02     -0.265919D-03     -0.295874D-03
   zy         0.524898D-03      0.777818D-04      0.865439D-04
   zz         0.358809D+02      0.531700D+01      0.591596D+01

 ----------------------------------------------------------------------

 Dipole orientation:
     7          0.00979065         -0.17123440         -0.00928583
     7         -0.11343262          1.90085316          1.41160512
     6         -0.06839939          1.14102837          3.84738116
     6          0.08782948         -1.48198826          3.84833886
     7          0.13283253         -2.24205542          1.41265393
     1         -0.14792631          2.47686949          5.39538879
     1          0.16730489         -2.81710291          5.39698856

 Electric dipole moment (dipole orientation):
 (Debye = 10**-18 statcoulomb cm , SI units = C m)
                  (au)            (Debye)         (10**-30 SI)
   Tot        0.148130D+01      0.376510D+01      0.125590D+02
   x          0.000000D+00      0.000000D+00      0.000000D+00
   y          0.000000D+00      0.000000D+00      0.000000D+00
   z          0.148130D+01      0.376510D+01      0.125590D+02

 Dipole polarizability, Alpha (dipole orientation).
 (esu units = cm**3 , SI units = C**2 m**2 J**-1)
 Alpha(0;0):
               (au)            (10**-24 esu)      (10**-40 SI)
   iso        0.506869D+02      0.751102D+01      0.835714D+01
   aniso      0.222090D+02      0.329104D+01      0.366177D+01
   xx         0.359591D+02      0.532859D+01      0.592886D+01
   yx        -0.131507D+01     -0.194873D+00     -0.216825D+00
   yy         0.579855D+02      0.859257D+01      0.956052D+01
   zx        -0.767304D-04     -0.113703D-04     -0.126511D-04
   zy         0.518468D-04      0.768291D-05      0.854839D-05
   zz         0.581160D+02      0.861190D+01      0.958203D+01

 ----------------------------------------------------------------------
 1\1\GINC-NODE2\Freq\RM062X\6-31+G(d,p)\C2H2N3(1-)\GONGKE2021\06-May-20
 23\0\\#N Geom=AllCheck Guess=TCheck SCRF=Check GenChk RM062X/6-31+G(d,
 p) Freq\\"Sketch 2"\\-1,1\N,0.0004823568,-0.090892741,0.0002073066\N,0
 .6858569603,1.05024154,0.0001495959\C,1.9964505102,0.7246759731,0.0001
 220987\C,2.0794956653,-0.6633425052,-0.0000116677\N,0.8167762469,-1.14
 20555075,0.0001969869\H,2.7721411579,1.4802009961,0.0001032123\H,2.939
 5731025,-1.3212117555,-0.0001235328\\Version=ES64L-G16RevA.03\State=1-
 A\HF=-241.5850179\RMSD=3.437e-09\RMSF=1.705e-04\ZeroPoint=0.0462986\Th
 ermal=0.0496902\Dipole=1.4786918,0.0879293,-0.0001222\DipoleDeriv=-0.5
 245188,-0.0393778,0.0000314,-0.0389488,0.133162,-0.0000179,0.000019,-0
 .0000032,-0.2863523,-0.1163783,0.1197725,0.0000063,0.1659205,-0.664444
 7,-0.0000144,-0.0000006,0.0000062,-0.2990919,-0.035058,-0.0917563,-0.0
 000119,0.0055751,0.1563873,0.000025,-0.0000923,-0.0000157,-0.243652,-0
 .0434648,0.0678539,-0.0000241,-0.0288626,0.162783,0.0000305,0.0000675,
 -0.0000294,-0.2436853,-0.0897491,-0.0505269,-0.000051,-0.0976814,-0.69
 04182,-0.0000042,-0.0000389,0.0000346,-0.2990847,-0.0797615,-0.1246553
 ,0.0000142,-0.1461735,-0.0647351,-0.0000003,0.0000341,0.0000125,0.1858
 813,-0.1110695,0.11869,0.000035,0.1401707,-0.0327344,-0.0000186,0.0000
 113,-0.000005,0.1859849\Polar=58.1158014,0.0031508,58.063953,-0.001794
 5,0.0005249,35.8808945\Quadrupole=-0.161665,-2.3189852,2.4806503,0.128
 397,0.0001688,0.0002418\PG=C01 [X(C2H2N3)]\NImag=0\\0.58432137,0.00766
 873,0.44747617,-0.00003114,-0.00000105,0.12919315,-0.16239757,-0.11325
 824,0.00000435,0.51328812,-0.05594940,-0.22045367,0.00000382,-0.040977
 80,0.52162995,0.00000505,0.00000938,-0.09675251,-0.00002093,-0.0000007
 0,0.11524627,-0.10679213,-0.08952243,0.00000848,-0.30230358,0.07350823
 ,0.00000543,0.71250734,-0.01032379,-0.01724986,0.00000045,0.07422135,-
 0.12985858,-0.00000140,0.14935343,0.75057962,0.00001030,0.00000174,0.0
 2368637,0.00000698,-0.00000366,-0.07251574,-0.00002663,0.00002117,0.11
 989092,-0.11724204,0.07751893,0.00001340,-0.02801904,0.00434401,0.0000
 0648,-0.09687402,0.03478250,0.00000410,0.74820026,-0.00171477,-0.00676
 916,-0.00000153,0.10226541,-0.03540656,-0.00000958,-0.00460013,-0.3473
 1145,-0.00002586,-0.14955320,0.71420089,0.00000951,-0.00001124,0.02367
 964,0.00000642,0.00000511,0.01798627,0.00000467,-0.00002861,-0.0622691
 5,-0.00007967,0.00003844,0.11997614,-0.18360261,0.11832660,0.00000209,
 -0.00329949,0.04843679,0.00000181,-0.01552417,-0.09990063,0.00000068,-
 0.28250297,-0.09247915,0.00003250,0.50420323,0.06104527,-0.20077574,-0
 .00000143,-0.03197140,-0.14099571,0.00000351,-0.00202371,-0.04805130,0
 .00000573,-0.09175181,-0.14947898,0.00001325,0.03826152,0.53222854,0.0
 0000404,-0.00000305,-0.09687962,0.00000555,-0.00000431,0.03718531,-0.0
 0000132,0.00000625,0.01800261,0.00003407,0.00001716,-0.07252367,-0.000
 04236,-0.00001614,0.11537584,-0.00747220,0.00015696,0.00000008,-0.0165
 8710,-0.02594293,0.00000130,-0.19702880,-0.14403827,0.00000559,0.00809
 850,0.00513734,-0.00000121,-0.00079429,0.00409605,0.00000067,0.2142268
 8,0.00451622,-0.00079287,-0.00000063,0.00651881,0.01149500,0.00000011,
 -0.14923595,-0.20747017,0.00000089,-0.02148135,-0.00272793,0.00000352,
 -0.00253903,-0.00631626,-0.00000083,0.16139109,0.20650663,0.00000122,0
 .00000198,0.00853757,-0.00000106,-0.00000005,-0.00866679,0.00000736,0.
 00000301,-0.02295662,-0.00000346,-0.00000142,-0.00382626,0.00000245,-0
 .00000055,0.00751748,-0.00000639,-0.00000306,0.02074570,-0.00681482,-0
 .00089056,0.00000275,-0.00068133,-0.00341890,0.00000086,0.00601536,-0.
 00409459,-0.00000101,-0.23166068,0.14094449,0.00002777,-0.01847970,0.0
 2234409,-0.00000064,-0.00044297,0.00083021,-0.00000012,0.25206414,-0.0
 0524225,-0.00143488,0.00000037,0.00320187,-0.00641044,-0.00000132,0.02
 252056,-0.00063827,-0.00000001,0.14614091,-0.17250682,-0.00002047,-0.0
 1010610,0.01338945,0.00000092,-0.00080025,-0.00069441,0.00000008,-0.15
 571474,0.16829538,0.00000102,0.00000223,0.00853541,-0.00000131,-0.0000
 0020,0.00751718,0.00000202,-0.00000087,-0.00383839,0.00002508,-0.00001
 721,-0.02302297,0.00000283,-0.00000437,-0.00867795,-0.00000003,-0.0000
 0002,-0.00135108,-0.00002961,0.00002044,0.02083780\\-0.00003511,-0.000
 09933,-0.00000819,0.00004082,0.00029627,-0.00001206,-0.00014669,0.0004
 0293,0.00002094,0.00011800,-0.00053994,-0.00002501,0.00005879,-0.00005
 281,0.00002475,-0.00002657,-0.00008035,0.00000284,-0.00000924,0.000073
 23,-0.00000327\\\@


 THESE ARE THE TIMES THAT TRY MENS SOULS.
 THE SUMMER SOLDIER AND THE SUNSHINE PATRIOT WILL IN THIS CRISIS,
 SHRINK FROM THE SERVICE OF HIS COUNTRY.  BUT HE THAT STANDS NOW,
 DESERVES THE LOVE AND THANKS OF MAN AND WOMAN.
 TYRANNY, LIKE HELL, IS NOT EASILY CONQUERED,
 YET WE HAVE THIS CONSOLATION WITH US,
 THAT THE HARDER THE CONFLICT, THE MORE GLORIOUS THE TRIUMPH.
 WHAT WE OBTAIN TOO CHEAP, WE ESTEEM TOO LIGHTLY, 
 'TIS DEARNESS ONLY THAT GIVES EVERYTHING ITS VALUE.

                                              -- TOM PAINE
 Job cpu time:       0 days  0 hours  6 minutes 35.1 seconds.
 Elapsed time:       0 days  0 hours  0 minutes 20.3 seconds.
 File lengths (MBytes):  RWF=     13 Int=      0 D2E=      0 Chk=      2 Scr=      1
 Normal termination of Gaussian 16 at Sat May  6 04:44:57 2023.
