 Entering Gaussian System, Link 0=/opt/soft/g16b/g16/g16
 Initial command:
 /opt/soft/g16b/g16/l1.exe "/scratch/gongke2021/TZ-radical/Gau-24462.inp" -scrdir="/scratch/gongke2021/TZ-radical/"
 Entering Link 1 = /opt/soft/g16b/g16/l1.exe PID=     24463.
  
 Copyright (c) 1988,1990,1992,1993,1995,1998,2003,2009,2016,
            Gaussian, Inc.  All Rights Reserved.
  
 This is part of the Gaussian(R) 16 program.  It is based on
 the Gaussian(R) 09 system (copyright 2009, Gaussian, Inc.),
 the Gaussian(R) 03 system (copyright 2003, Gaussian, Inc.),
 the Gaussian(R) 98 system (copyright 1998, Gaussian, Inc.),
 the Gaussian(R) 94 system (copyright 1995, Gaussian, Inc.),
 the Gaussian 92(TM) system (copyright 1992, Gaussian, Inc.),
 the Gaussian 90(TM) system (copyright 1990, Gaussian, Inc.),
 the Gaussian 88(TM) system (copyright 1988, Gaussian, Inc.),
 the Gaussian 86(TM) system (copyright 1986, Carnegie Mellon
 University), and the Gaussian 82(TM) system (copyright 1983,
 Carnegie Mellon University). Gaussian is a federally registered
 trademark of Gaussian, Inc.
  
 This software contains proprietary and confidential information,
 including trade secrets, belonging to Gaussian, Inc.
  
 This software is provided under written license and may be
 used, copied, transmitted, or stored only in accord with that
 written license.
  
 The following legend is applicable only to US Government
 contracts under FAR:
  
                    RESTRICTED RIGHTS LEGEND
  
 Use, reproduction and disclosure by the US Government is
 subject to restrictions as set forth in subparagraphs (a)
 and (c) of the Commercial Computer Software - Restricted
 Rights clause in FAR 52.227-19.
  
 Gaussian, Inc.
 340 Quinnipiac St., Bldg. 40, Wallingford CT 06492
  
  
 ---------------------------------------------------------------
 Warning -- This program may not be used in any manner that
 competes with the business of Gaussian, Inc. or will provide
 assistance to any competitor of Gaussian, Inc.  The licensee
 of this program is prohibited from giving any competitor of
 Gaussian, Inc. access to this program.  By using this program,
 the user acknowledges that Gaussian, Inc. is engaged in the
 business of creating and licensing software in the field of
 computational chemistry and represents and warrants to the
 licensee that it is not a competitor of Gaussian, Inc. and that
 it will not use this program in any manner prohibited above.
 ---------------------------------------------------------------
  

 Cite this work as:
 Gaussian 16, Revision A.03,
 M. J. Frisch, G. W. Trucks, H. B. Schlegel, G. E. Scuseria, 
 M. A. Robb, J. R. Cheeseman, G. Scalmani, V. Barone, 
 G. A. Petersson, H. Nakatsuji, X. Li, M. Caricato, A. V. Marenich, 
 J. Bloino, B. G. Janesko, R. Gomperts, B. Mennucci, H. P. Hratchian, 
 J. V. Ortiz, A. F. Izmaylov, J. L. Sonnenberg, D. Williams-Young, 
 F. Ding, F. Lipparini, F. Egidi, J. Goings, B. Peng, A. Petrone, 
 T. Henderson, D. Ranasinghe, V. G. Zakrzewski, J. Gao, N. Rega, 
 G. Zheng, W. Liang, M. Hada, M. Ehara, K. Toyota, R. Fukuda, 
 J. Hasegawa, M. Ishida, T. Nakajima, Y. Honda, O. Kitao, H. Nakai, 
 T. Vreven, K. Throssell, J. A. Montgomery, Jr., J. E. Peralta, 
 F. Ogliaro, M. J. Bearpark, J. J. Heyd, E. N. Brothers, K. N. Kudin, 
 V. N. Staroverov, T. A. Keith, R. Kobayashi, J. Normand, 
 K. Raghavachari, A. P. Rendell, J. C. Burant, S. S. Iyengar, 
 J. Tomasi, M. Cossi, J. M. Millam, M. Klene, C. Adamo, R. Cammi, 
 J. W. Ochterski, R. L. Martin, K. Morokuma, O. Farkas, 
 J. B. Foresman, and D. J. Fox, Gaussian, Inc., Wallingford CT, 2016.
 
 ******************************************
 Gaussian 16:  ES64L-G16RevA.03 25-Dec-2016
                23-Jul-2023 
 ******************************************
 %mem=10GB
 %nprocshared=20
 Will use up to   20 processors via shared memory.
 ----------------------------
 # opt freq 6-31+g(d,p) m062x
 ----------------------------
 1/18=20,19=15,26=3,38=1/1,3;
 2/9=110,12=2,17=6,18=5,40=1/2;
 3/5=1,6=6,7=111,11=2,25=1,30=1,71=1,74=-55/1,2,3;
 4//1;
 5/5=2,38=5/2;
 6/7=2,8=2,9=2,10=2,28=1/1;
 7//1,2,3,16;
 1/18=20,19=15,26=3/3(2);
 2/9=110/2;
 99//99;
 2/9=110/2;
 3/5=1,6=6,7=111,11=2,25=1,30=1,71=1,74=-55/1,2,3;
 4/5=5,16=3,69=1/1;
 5/5=2,38=5/2;
 7//1,2,3,16;
 1/18=20,19=15,26=3/3(-5);
 2/9=110/2;
 6/7=2,8=2,9=2,10=2,19=2,28=1/1;
 99/9=1/99;
 ----------
 "Sketch 2"
 ----------
 Symbolic Z-matrix:
 Charge =  0 Multiplicity = 2
 N                     0.01604  -0.09918   0.00023 
 N                     0.68662   1.12137   0.00025 
 C                     1.98733   0.72473   0.00008 
 C                     2.05938  -0.65874   0.00004 
 N                     0.82382  -1.21446   0.00007 
 H                     2.78225   1.45722   0.00004 
 H                     2.93533  -1.29333  -0.00006 
 

 GradGradGradGradGradGradGradGradGradGradGradGradGradGradGradGradGradGrad
 Berny optimization.
 Initialization pass.
                           ----------------------------
                           !    Initial Parameters    !
                           ! (Angstroms and Degrees)  !
 --------------------------                            --------------------------
 ! Name  Definition              Value          Derivative Info.                !
 --------------------------------------------------------------------------------
 ! R1    R(1,2)                  1.3926         estimate D2E/DX2                !
 ! R2    R(1,5)                  1.3771         estimate D2E/DX2                !
 ! R3    R(2,3)                  1.3598         estimate D2E/DX2                !
 ! R4    R(3,4)                  1.3853         estimate D2E/DX2                !
 ! R5    R(3,6)                  1.0809         estimate D2E/DX2                !
 ! R6    R(4,5)                  1.3548         estimate D2E/DX2                !
 ! R7    R(4,7)                  1.0817         estimate D2E/DX2                !
 ! A1    A(2,1,5)              115.3003         estimate D2E/DX2                !
 ! A2    A(1,2,3)              101.8259         estimate D2E/DX2                !
 ! A3    A(2,3,4)              109.94           estimate D2E/DX2                !
 ! A4    A(2,3,6)              120.3813         estimate D2E/DX2                !
 ! A5    A(4,3,6)              129.6786         estimate D2E/DX2                !
 ! A6    A(3,4,5)              111.236          estimate D2E/DX2                !
 ! A7    A(3,4,7)              128.9034         estimate D2E/DX2                !
 ! A8    A(5,4,7)              119.8606         estimate D2E/DX2                !
 ! A9    A(1,5,4)              101.6978         estimate D2E/DX2                !
 ! D1    D(5,1,2,3)              0.0002         estimate D2E/DX2                !
 ! D2    D(2,1,5,4)              0.0027         estimate D2E/DX2                !
 ! D3    D(1,2,3,4)             -0.0032         estimate D2E/DX2                !
 ! D4    D(1,2,3,6)            179.9996         estimate D2E/DX2                !
 ! D5    D(2,3,4,5)              0.0053         estimate D2E/DX2                !
 ! D6    D(2,3,4,7)           -179.9982         estimate D2E/DX2                !
 ! D7    D(6,3,4,5)           -179.9978         estimate D2E/DX2                !
 ! D8    D(6,3,4,7)             -0.0013         estimate D2E/DX2                !
 ! D9    D(3,4,5,1)             -0.0047         estimate D2E/DX2                !
 ! D10   D(7,4,5,1)            179.9984         estimate D2E/DX2                !
 --------------------------------------------------------------------------------
 Trust Radius=3.00D-01 FncErr=1.00D-07 GrdErr=1.00D-06 EigMax=2.50D+02 EigMin=1.00D-04
 Number of steps in this run=     36 maximum allowed number of steps=    100.
 GradGradGradGradGradGradGradGradGradGradGradGradGradGradGradGradGradGrad

                          Input orientation:                          
 ---------------------------------------------------------------------
 Center     Atomic      Atomic             Coordinates (Angstroms)
 Number     Number       Type             X           Y           Z
 ---------------------------------------------------------------------
      1          7           0        0.016044   -0.099175    0.000229
      2          7           0        0.686621    1.121372    0.000247
      3          6           0        1.987333    0.724726    0.000078
      4          6           0        2.059382   -0.658735    0.000040
      5          7           0        0.823824   -1.214463    0.000065
      6          1           0        2.782247    1.457220    0.000040
      7          1           0        2.935325   -1.293329   -0.000055
 ---------------------------------------------------------------------
                    Distance matrix (angstroms):
                    1          2          3          4          5
     1  N    0.000000
     2  N    1.392626   0.000000
     3  C    2.136538   1.359846   0.000000
     4  C    2.118570   2.247944   1.385336   0.000000
     5  N    1.377090   2.339861   2.261461   1.354783   0.000000
     6  H    3.173995   2.122367   1.080942   2.236023   3.312599
     7  H    3.154078   3.299614   2.229627   1.081659   2.112973
                    6          7
     6  H    0.000000
     7  H    2.754805   0.000000
 Stoichiometry    C2H2N3(2)
 Framework group  C1[X(C2H2N3)]
 Deg. of freedom    15
 Full point group                 C1      NOp   1
 Largest Abelian subgroup         C1      NOp   1
 Largest concise Abelian subgroup C1      NOp   1
                         Standard orientation:                         
 ---------------------------------------------------------------------
 Center     Atomic      Atomic             Coordinates (Angstroms)
 Number     Number       Type             X           Y           Z
 ---------------------------------------------------------------------
      1          7           0       -0.099384   -1.144593   -0.000101
      2          7           0        1.134192   -0.498298   -0.000119
      3          6           0        0.763361    0.810008    0.000050
      4          6           0       -0.618404    0.909417    0.000088
      5          7           0       -1.198471   -0.314904    0.000063
      6          1           0        1.511440    1.590273    0.000088
      7          1           0       -1.235542    1.797745    0.000183
 ---------------------------------------------------------------------
 Rotational constants (GHZ):          10.8351460           9.4126187           5.0369559
 Standard basis: 6-31+G(d,p) (6D, 7F)
 There are   105 symmetry adapted cartesian basis functions of A   symmetry.
 There are   105 symmetry adapted basis functions of A   symmetry.
   105 basis functions,   174 primitive gaussians,   105 cartesian basis functions
    18 alpha electrons       17 beta electrons
       nuclear repulsion energy       152.6288186785 Hartrees.
 NAtoms=    7 NActive=    7 NUniq=    7 SFac= 1.00D+00 NAtFMM=   60 NAOKFM=F Big=F
 Integral buffers will be    131072 words long.
 Raffenetti 2 integral format.
 Two-electron integral symmetry is turned on.
 One-electron integrals computed using PRISM.
 NBasis=   105 RedAO= T EigKep=  7.43D-05  NBF=   105
 NBsUse=   105 1.00D-06 EigRej= -1.00D+00 NBFU=   105
 ExpMin= 4.38D-02 ExpMax= 4.17D+03 ExpMxC= 6.27D+02 IAcc=3 IRadAn=         5 AccDes= 0.00D+00
 Harris functional with IExCor= 1009 and IRadAn=       5 diagonalized for initial guess.
 HarFok:  IExCor= 1009 AccDes= 0.00D+00 IRadAn=         5 IDoV= 1 UseB2=F ITyADJ=14
 ICtDFT=  3500011 ScaDFX=  1.000000  1.000000  1.000000  1.000000
 FoFCou: FMM=F IPFlag=           0 FMFlag=      100000 FMFlg1=           0
         NFxFlg=           0 DoJE=T BraDBF=F KetDBF=T FulRan=T
         wScrn=  0.000000 ICntrl=       500 IOpCl=  0 I1Cent=   200000004 NGrid=           0
         NMat0=    1 NMatS0=      1 NMatT0=    0 NMatD0=    1 NMtDS0=    0 NMtDT0=    0
 Petite list used in FoFCou.
 Initial guess <Sx>= 0.0000 <Sy>= 0.0000 <Sz>= 0.5000 <S**2>= 0.7500 S= 0.5000
 Keep R1 and R2 ints in memory in canonical form, NReq=49577659.
 Requested convergence on RMS density matrix=1.00D-08 within 128 cycles.
 Requested convergence on MAX density matrix=1.00D-06.
 Requested convergence on             energy=1.00D-06.
 No special actions if energy rises.
 SCF Done:  E(UM062X) =  -241.438133038     A.U. after   18 cycles
            NFock= 18  Conv=0.59D-08     -V/T= 2.0086
 <Sx>= 0.0000 <Sy>= 0.0000 <Sz>= 0.5000 <S**2>= 0.7737 S= 0.5118
 <L.S>= 0.000000000000E+00
 Annihilation of the first spin contaminant:
 S**2 before annihilation     0.7737,   after     0.7503

 **********************************************************************

            Population analysis using the SCF density.

 **********************************************************************

 Orbital symmetries:
 Alpha Orbitals:
       Occupied  (A) (A) (A) (A) (A) (A) (A) (A) (A) (A) (A) (A)
                 (A) (A) (A) (A) (A) (A)
       Virtual   (A) (A) (A) (A) (A) (A) (A) (A) (A) (A) (A) (A)
                 (A) (A) (A) (A) (A) (A) (A) (A) (A) (A) (A) (A)
                 (A) (A) (A) (A) (A) (A) (A) (A) (A) (A) (A) (A)
                 (A) (A) (A) (A) (A) (A) (A) (A) (A) (A) (A) (A)
                 (A) (A) (A) (A) (A) (A) (A) (A) (A) (A) (A) (A)
                 (A) (A) (A) (A) (A) (A) (A) (A) (A) (A) (A) (A)
                 (A) (A) (A) (A) (A) (A) (A) (A) (A) (A) (A) (A)
                 (A) (A) (A)
 Beta  Orbitals:
       Occupied  (A) (A) (A) (A) (A) (A) (A) (A) (A) (A) (A) (A)
                 (A) (A) (A) (A) (A)
       Virtual   (A) (A) (A) (A) (A) (A) (A) (A) (A) (A) (A) (A)
                 (A) (A) (A) (A) (A) (A) (A) (A) (A) (A) (A) (A)
                 (A) (A) (A) (A) (A) (A) (A) (A) (A) (A) (A) (A)
                 (A) (A) (A) (A) (A) (A) (A) (A) (A) (A) (A) (A)
                 (A) (A) (A) (A) (A) (A) (A) (A) (A) (A) (A) (A)
                 (A) (A) (A) (A) (A) (A) (A) (A) (A) (A) (A) (A)
                 (A) (A) (A) (A) (A) (A) (A) (A) (A) (A) (A) (A)
                 (A) (A) (A) (A)
 The electronic state is 2-A.
 Alpha  occ. eigenvalues --  -14.88006 -14.82893 -14.82713 -10.65161 -10.64812
 Alpha  occ. eigenvalues --   -1.21590  -1.00857  -0.93720  -0.72476  -0.72211
 Alpha  occ. eigenvalues --   -0.63388  -0.56606  -0.54460  -0.45057  -0.39077
 Alpha  occ. eigenvalues --   -0.38646  -0.38386  -0.37363
 Alpha virt. eigenvalues --   -0.00058   0.00809   0.02653   0.03032   0.04065
 Alpha virt. eigenvalues --    0.05349   0.07569   0.07605   0.09920   0.11901
 Alpha virt. eigenvalues --    0.13835   0.15388   0.17280   0.18249   0.20340
 Alpha virt. eigenvalues --    0.21538   0.21688   0.22180   0.22441   0.23332
 Alpha virt. eigenvalues --    0.25111   0.26555   0.27338   0.31465   0.31892
 Alpha virt. eigenvalues --    0.34287   0.36030   0.46162   0.50730   0.64607
 Alpha virt. eigenvalues --    0.65028   0.70014   0.80351   0.80996   0.88755
 Alpha virt. eigenvalues --    0.89453   0.91199   0.91778   0.94956   0.97753
 Alpha virt. eigenvalues --    1.00493   1.00656   1.04594   1.06393   1.07574
 Alpha virt. eigenvalues --    1.10433   1.14445   1.27575   1.28370   1.29032
 Alpha virt. eigenvalues --    1.36528   1.37294   1.51727   1.51788   1.56616
 Alpha virt. eigenvalues --    1.57370   1.57990   1.83660   1.88992   1.90514
 Alpha virt. eigenvalues --    1.96266   2.03424   2.13649   2.20410   2.20993
 Alpha virt. eigenvalues --    2.30346   2.30624   2.31113   2.45446   2.46260
 Alpha virt. eigenvalues --    2.48348   2.54005   2.63233   2.65525   2.66959
 Alpha virt. eigenvalues --    2.70981   2.74083   2.94892   2.97681   3.06884
 Alpha virt. eigenvalues --    3.22920   3.63545   3.88475   4.14047   4.14698
 Alpha virt. eigenvalues --    4.29698   4.53659
  Beta  occ. eigenvalues --  -14.87391 -14.83025 -14.82898 -10.64918 -10.64614
  Beta  occ. eigenvalues --   -1.20237  -1.00841  -0.91275  -0.71550  -0.71114
  Beta  occ. eigenvalues --   -0.62585  -0.53942  -0.52059  -0.44624  -0.39253
  Beta  occ. eigenvalues --   -0.37784  -0.37090
  Beta virt. eigenvalues --   -0.17568   0.00551   0.02581   0.02775   0.03869
  Beta virt. eigenvalues --    0.04811   0.05533   0.06698   0.07656   0.11107
  Beta virt. eigenvalues --    0.11885   0.13654   0.14866   0.17233   0.17900
  Beta virt. eigenvalues --    0.20884   0.21622   0.21989   0.22372   0.22406
  Beta virt. eigenvalues --    0.23575   0.24788   0.26590   0.27561   0.31542
  Beta virt. eigenvalues --    0.32342   0.34493   0.36025   0.46877   0.51599
  Beta virt. eigenvalues --    0.65499   0.67458   0.71697   0.80991   0.82071
  Beta virt. eigenvalues --    0.89775   0.90656   0.92291   0.93766   0.95417
  Beta virt. eigenvalues --    0.97677   0.99915   1.01128   1.04869   1.07555
  Beta virt. eigenvalues --    1.07819   1.10870   1.15131   1.28137   1.29652
  Beta virt. eigenvalues --    1.31488   1.38307   1.38658   1.51991   1.52512
  Beta virt. eigenvalues --    1.57324   1.58486   1.59240   1.85341   1.89441
  Beta virt. eigenvalues --    1.91870   1.98589   2.05078   2.15030   2.21299
  Beta virt. eigenvalues --    2.21725   2.31750   2.31888   2.32621   2.46715
  Beta virt. eigenvalues --    2.48551   2.49611   2.55398   2.63956   2.67540
  Beta virt. eigenvalues --    2.67599   2.71279   2.75443   2.95992   2.98568
  Beta virt. eigenvalues --    3.09947   3.24639   3.65793   3.89570   4.14792
  Beta virt. eigenvalues --    4.15203   4.32622   4.57066
          Condensed to atoms (all electrons):
               1          2          3          4          5          6
     1  N    6.555613   0.139563   0.036014   0.043618   0.154641   0.008963
     2  N    0.139563   6.772790   0.300444  -0.120637   0.095324  -0.036086
     3  C    0.036014   0.300444   5.672731  -0.161691  -0.112514   0.360173
     4  C    0.043618  -0.120637  -0.161691   5.679382   0.279906  -0.002975
     5  N    0.154641   0.095324  -0.112514   0.279906   6.777718  -0.007124
     6  H    0.008963  -0.036086   0.360173  -0.002975  -0.007124   0.469422
     7  H    0.009307  -0.006921  -0.003617   0.360057  -0.038722   0.001642
               7
     1  N    0.009307
     2  N   -0.006921
     3  C   -0.003617
     4  C    0.360057
     5  N   -0.038722
     6  H    0.001642
     7  H    0.473612
          Atomic-Atomic Spin Densities.
               1          2          3          4          5          6
     1  N    0.569893   0.036475  -0.033028  -0.037610   0.029814  -0.000291
     2  N    0.036475  -0.110705  -0.022370  -0.009536  -0.004350   0.000429
     3  C   -0.033028  -0.022370   0.333525   0.058344  -0.006955  -0.001991
     4  C   -0.037610  -0.009536   0.058344   0.416278  -0.016062   0.000359
     5  N    0.029814  -0.004350  -0.006955  -0.016062  -0.159562   0.000240
     6  H   -0.000291   0.000429  -0.001991   0.000359   0.000240  -0.015024
     7  H   -0.000484   0.000289   0.000855  -0.003047   0.000727  -0.000192
               7
     1  N   -0.000484
     2  N    0.000289
     3  C    0.000855
     4  C   -0.003047
     5  N    0.000727
     6  H   -0.000192
     7  H   -0.017636
 Mulliken charges and spin densities:
               1          2
     1  N    0.052281   0.564770
     2  N   -0.144478  -0.109768
     3  C   -0.091541   0.328380
     4  C   -0.077659   0.408726
     5  N   -0.149228  -0.156148
     6  H    0.205984  -0.016472
     7  H    0.204641  -0.019487
 Sum of Mulliken charges =  -0.00000   1.00000
 Mulliken charges and spin densities with hydrogens summed into heavy atoms:
               1          2
     1  N    0.052281   0.564770
     2  N   -0.144478  -0.109768
     3  C    0.114444   0.311908
     4  C    0.126982   0.389239
     5  N   -0.149228  -0.156148
 Electronic spatial extent (au):  <R**2>=            261.6525
 Charge=             -0.0000 electrons
 Dipole moment (field-independent basis, Debye):
    X=              0.3466    Y=              4.6645    Z=              0.0004  Tot=              4.6773
 Quadrupole moment (field-independent basis, Debye-Ang):
   XX=            -32.0607   YY=            -27.1655   ZZ=            -28.5640
   XY=              0.3918   XZ=              0.0004   YZ=             -0.0000
 Traceless Quadrupole moment (field-independent basis, Debye-Ang):
   XX=             -2.7973   YY=              2.0979   ZZ=              0.6994
   XY=              0.3918   XZ=              0.0004   YZ=             -0.0000
 Octapole moment (field-independent basis, Debye-Ang**2):
  XXX=              2.2779  YYY=             12.5642  ZZZ=             -0.0001  XYY=             -0.4755
  XXY=              9.5740  XXZ=              0.0007  XZZ=             -0.1134  YZZ=             -0.4095
  YYZ=              0.0014  XYZ=             -0.0004
 Hexadecapole moment (field-independent basis, Debye-Ang**3):
 XXXX=           -184.5650 YYYY=           -152.6647 ZZZZ=            -28.4883 XXXY=              3.3330
 XXXZ=              0.0052 YYYX=             -1.3326 YYYZ=             -0.0055 ZZZX=              0.0043
 ZZZY=             -0.0057 XXYY=            -46.6227 XXZZ=            -35.0237 YYZZ=            -30.9122
 XXYZ=             -0.0012 YYXZ=              0.0010 ZZXY=              0.1036
 N-N= 1.526288186785D+02 E-N=-8.668906654399D+02  KE= 2.393729060905D+02
                          Isotropic Fermi Contact Couplings
        Atom                 a.u.       MegaHertz       Gauss      10(-4) cm-1
     1  N(14)              0.12465      40.27364      14.37064      13.43384
     2  N(14)             -0.02909      -9.39793      -3.35341      -3.13481
     3  C(13)              0.05064      56.93147      20.31457      18.99030
     4  C(13)              0.06703      75.36001      26.89033      25.13739
     5  N(14)             -0.03930     -12.69721      -4.53068      -4.23533
     6  H(1)              -0.00615     -27.47051      -9.80216      -9.16318
     7  H(1)              -0.00719     -32.13574     -11.46683     -10.71933
 --------------------------------------------------------
       Center         ----  Spin Dipole Couplings  ----
                      3XX-RR        3YY-RR        3ZZ-RR
 --------------------------------------------------------
     1   Atom       -0.574991     -0.538034      1.113025
     2   Atom        0.062576      0.054952     -0.117528
     3   Atom       -0.164047     -0.172202      0.336249
     4   Atom       -0.204541     -0.204287      0.408828
     5   Atom        0.104235      0.093959     -0.198194
     6   Atom        0.011088     -0.003421     -0.007666
     7   Atom       -0.000536      0.008019     -0.007483
 --------------------------------------------------------
                        XY            XZ            YZ
 --------------------------------------------------------
     1   Atom        0.004468      0.000135     -0.000288
     2   Atom       -0.002587     -0.000014      0.000022
     3   Atom        0.009159      0.000010     -0.000045
     4   Atom       -0.010346      0.000026     -0.000011
     5   Atom       -0.000350     -0.000023      0.000028
     6   Atom        0.030005      0.000002     -0.000000
     7   Atom       -0.034857     -0.000002      0.000002
 --------------------------------------------------------


 ---------------------------------------------------------------------------------
              Anisotropic Spin Dipole Couplings in Principal Axis System
 ---------------------------------------------------------------------------------

       Atom             a.u.   MegaHertz   Gauss  10(-4) cm-1        Axes

              Baa    -0.5755   -22.197    -7.920    -7.404  0.9930 -0.1183 -0.0001
     1 N(14)  Bbb    -0.5375   -20.730    -7.397    -6.915  0.1183  0.9930  0.0002
              Bcc     1.1130    42.927    15.317    14.319  0.0001 -0.0002  1.0000
 
              Baa    -0.1175    -4.533    -1.617    -1.512  0.0001 -0.0001  1.0000
     2 N(14)  Bbb     0.0542     2.089     0.745     0.697  0.2938  0.9559  0.0001
              Bcc     0.0634     2.444     0.872     0.815  0.9559 -0.2938 -0.0001
 
              Baa    -0.1782   -23.906    -8.530    -7.974 -0.5446  0.8387  0.0001
     3 C(13)  Bbb    -0.1581   -21.215    -7.570    -7.077  0.8387  0.5446  0.0000
              Bcc     0.3362    45.121    16.100    15.051  0.0000 -0.0001  1.0000
 
              Baa    -0.2148   -28.819   -10.283    -9.613  0.7114  0.7028 -0.0000
     4 C(13)  Bbb    -0.1941   -26.042    -9.292    -8.687 -0.7028  0.7114  0.0000
              Bcc     0.4088    54.861    19.576    18.300  0.0000 -0.0000  1.0000
 
              Baa    -0.1982    -7.644    -2.728    -2.550  0.0001 -0.0001  1.0000
     5 N(14)  Bbb     0.0939     3.623     1.293     1.209  0.0340  0.9994  0.0001
              Bcc     0.1042     4.021     1.435     1.341  0.9994 -0.0340 -0.0001
 
              Baa    -0.0270   -14.425    -5.147    -4.812 -0.6185  0.7858  0.0001
     6 H(1)   Bbb    -0.0077    -4.090    -1.460    -1.364  0.0000 -0.0001  1.0000
              Bcc     0.0347    18.516     6.607     6.176  0.7858  0.6185  0.0000
 
              Baa    -0.0314   -16.741    -5.974    -5.584  0.7489  0.6626 -0.0000
     7 H(1)   Bbb    -0.0075    -3.992    -1.425    -1.332  0.0001 -0.0000  1.0000
              Bcc     0.0389    20.734     7.398     6.916 -0.6626  0.7489  0.0001
 

 ---------------------------------------------------------------------------------

 Calling FoFJK, ICntrl=      2127 FMM=F ISym2X=0 I1Cent= 0 IOpClX= 1 NMat=1 NMatS=1 NMatT=0.
 ***** Axes restored to original set *****
 -------------------------------------------------------------------
 Center     Atomic                   Forces (Hartrees/Bohr)
 Number     Number              X              Y              Z
 -------------------------------------------------------------------
      1        7          -0.013887468   -0.003022296    0.000003098
      2        7           0.045755110   -0.050293831   -0.000015260
      3        6          -0.044564672    0.077066712    0.000016527
      4        6          -0.018155119   -0.080455454   -0.000011726
      5        7           0.026906985    0.056527153    0.000006771
      6        1           0.002026199   -0.001209216   -0.000000011
      7        1           0.001918965    0.001386932    0.000000602
 -------------------------------------------------------------------
 Cartesian Forces:  Max     0.080455454 RMS     0.033440389

 GradGradGradGradGradGradGradGradGradGradGradGradGradGradGradGradGradGrad
 Berny optimization.
 FormGI is forming the generalized inverse of G from B-inverse, IUseBI=4.
 Internal  Forces:  Max     0.046045899 RMS     0.017626440
 Search for a local minimum.
 Step number   1 out of a maximum of   36
 All quantities printed in internal units (Hartrees-Bohrs-Radians)
 Mixed Optimization -- RFO/linear search
 Second derivative matrix not updated -- first step.
 ITU=  0
     Eigenvalues ---    0.01750   0.02226   0.02264   0.02285   0.16000
     Eigenvalues ---    0.16000   0.22559   0.24688   0.35795   0.35881
     Eigenvalues ---    0.42451   0.46239   0.48386   0.50953   0.53250
 RFO step:  Lambda=-1.98545185D-02 EMin= 1.75031605D-02
 Linear search not attempted -- first point.
 Iteration  1 RMS(Cart)=  0.03684953 RMS(Int)=  0.00136151
 Iteration  2 RMS(Cart)=  0.00141889 RMS(Int)=  0.00040045
 Iteration  3 RMS(Cart)=  0.00000067 RMS(Int)=  0.00040045
 Variable       Old X    -DE/DX   Delta X   Delta X   Delta X     New X
                                 (Linear)    (Quad)   (Total)
    R1        2.63168  -0.01343   0.00000  -0.03201  -0.03157   2.60011
    R2        2.60232  -0.01595   0.00000  -0.03439  -0.03386   2.56846
    R3        2.56974  -0.04396   0.00000  -0.07911  -0.07937   2.49036
    R4        2.61791   0.04605   0.00000   0.09660   0.09601   2.71392
    R5        2.04268   0.00067   0.00000   0.00177   0.00177   2.04446
    R6        2.56017  -0.03369   0.00000  -0.05803  -0.05813   2.50204
    R7        2.04404   0.00074   0.00000   0.00196   0.00196   2.04600
    A1        2.01237  -0.02066   0.00000  -0.09007  -0.08896   1.92341
    A2        1.77720   0.02565   0.00000   0.09086   0.09091   1.86810
    A3        1.91882  -0.01220   0.00000  -0.03721  -0.03807   1.88075
    A4        2.10105   0.00841   0.00000   0.03147   0.03190   2.13295
    A5        2.26332   0.00379   0.00000   0.00574   0.00617   2.26949
    A6        1.94143  -0.01803   0.00000  -0.05894  -0.05965   1.88178
    A7        2.24979   0.00672   0.00000   0.01671   0.01706   2.26685
    A8        2.09196   0.01131   0.00000   0.04224   0.04259   2.13455
    A9        1.77496   0.02524   0.00000   0.09536   0.09578   1.87074
    D1        0.00000  -0.00000   0.00000  -0.00006  -0.00006  -0.00006
    D2        0.00005   0.00000   0.00000  -0.00000  -0.00001   0.00004
    D3       -0.00006   0.00000   0.00000   0.00010   0.00010   0.00005
    D4        3.14159   0.00000   0.00000   0.00003   0.00003  -3.14157
    D5        0.00009  -0.00001   0.00000  -0.00012  -0.00012  -0.00003
    D6       -3.14156  -0.00000   0.00000  -0.00003  -0.00003   3.14159
    D7       -3.14155  -0.00000   0.00000  -0.00004  -0.00003  -3.14159
    D8       -0.00002   0.00000   0.00000   0.00005   0.00005   0.00003
    D9       -0.00008   0.00000   0.00000   0.00007   0.00007  -0.00001
   D10        3.14157  -0.00000   0.00000  -0.00001  -0.00000   3.14156
         Item               Value     Threshold  Converged?
 Maximum Force            0.046046     0.000450     NO 
 RMS     Force            0.017626     0.000300     NO 
 Maximum Displacement     0.095961     0.001800     NO 
 RMS     Displacement     0.036790     0.001200     NO 
 Predicted change in Energy=-1.048415D-02
 GradGradGradGradGradGradGradGradGradGradGradGradGradGradGradGradGradGrad

                          Input orientation:                          
 ---------------------------------------------------------------------
 Center     Atomic      Atomic             Coordinates (Angstroms)
 Number     Number       Type             X           Y           Z
 ---------------------------------------------------------------------
      1          7           0       -0.010163   -0.097723    0.000242
      2          7           0        0.707730    1.076066    0.000197
      3          6           0        1.984081    0.747983    0.000099
      4          6           0        2.067832   -0.685717    0.000016
      5          7           0        0.833091   -1.163683    0.000099
      6          1           0        2.770466    1.490992    0.000066
      7          1           0        2.937740   -1.330302   -0.000075
 ---------------------------------------------------------------------
                    Distance matrix (angstroms):
                    1          2          3          4          5
     1  N    0.000000
     2  N    1.375918   0.000000
     3  C    2.166155   1.317844   0.000000
     4  C    2.159583   2.225704   1.436143   0.000000
     5  N    1.359171   2.243254   2.231421   1.324023   0.000000
     6  H    3.202485   2.104054   1.081880   2.287303   3.286445
     7  H    3.195212   3.280785   2.286642   1.082695   2.111234
                    6          7
     6  H    0.000000
     7  H    2.826248   0.000000
 Stoichiometry    C2H2N3(2)
 Framework group  C1[X(C2H2N3)]
 Deg. of freedom    15
 Full point group                 C1      NOp   1
 Largest Abelian subgroup         C1      NOp   1
 Largest concise Abelian subgroup C1      NOp   1
                         Standard orientation:                         
 ---------------------------------------------------------------------
 Center     Atomic      Atomic             Coordinates (Angstroms)
 Number     Number       Type             X           Y           Z
 ---------------------------------------------------------------------
      1          7           0       -0.130459   -1.169196   -0.000115
      2          7           0        1.075459   -0.506692   -0.000070
      3          6           0        0.807114    0.783542    0.000028
      4          6           0       -0.621136    0.933905    0.000111
      5          7           0       -1.156031   -0.277261    0.000028
      6          1           0        1.585905    1.534506    0.000061
      7          1           0       -1.224551    1.832860    0.000202
 ---------------------------------------------------------------------
 Rotational constants (GHZ):          10.6999326           9.7848893           5.1109869
 Standard basis: 6-31+G(d,p) (6D, 7F)
 There are   105 symmetry adapted cartesian basis functions of A   symmetry.
 There are   105 symmetry adapted basis functions of A   symmetry.
   105 basis functions,   174 primitive gaussians,   105 cartesian basis functions
    18 alpha electrons       17 beta electrons
       nuclear repulsion energy       153.8144977743 Hartrees.
 NAtoms=    7 NActive=    7 NUniq=    7 SFac= 1.00D+00 NAtFMM=   60 NAOKFM=F Big=F
 Integral buffers will be    131072 words long.
 Raffenetti 2 integral format.
 Two-electron integral symmetry is turned on.
 One-electron integrals computed using PRISM.
 NBasis=   105 RedAO= T EigKep=  9.11D-05  NBF=   105
 NBsUse=   105 1.00D-06 EigRej= -1.00D+00 NBFU=   105
 Initial guess from the checkpoint file:  "/scratch/gongke2021/TZ-radical/Gau-24463.chk"
 B after Tr=     0.000000   -0.000000    0.000000
         Rot=    0.999918   -0.000000    0.000007    0.012823 Ang=  -1.47 deg.
 Initial guess <Sx>= 0.0000 <Sy>= 0.0000 <Sz>= 0.5000 <S**2>= 0.7731 S= 0.5115
 ExpMin= 4.38D-02 ExpMax= 4.17D+03 ExpMxC= 6.27D+02 IAcc=2 IRadAn=         4 AccDes= 0.00D+00
 Harris functional with IExCor= 1009 and IRadAn=       4 diagonalized for initial guess.
 HarFok:  IExCor= 1009 AccDes= 0.00D+00 IRadAn=         4 IDoV= 1 UseB2=F ITyADJ=14
 ICtDFT=  3500011 ScaDFX=  1.000000  1.000000  1.000000  1.000000
 FoFCou: FMM=F IPFlag=           0 FMFlag=      100000 FMFlg1=           0
         NFxFlg=           0 DoJE=T BraDBF=F KetDBF=T FulRan=T
         wScrn=  0.000000 ICntrl=       500 IOpCl=  0 I1Cent=   200000004 NGrid=           0
         NMat0=    1 NMatS0=      1 NMatT0=    0 NMatD0=    1 NMtDS0=    0 NMtDT0=    0
 Petite list used in FoFCou.
 Keep R1 and R2 ints in memory in canonical form, NReq=49577659.
 Requested convergence on RMS density matrix=1.00D-08 within 128 cycles.
 Requested convergence on MAX density matrix=1.00D-06.
 Requested convergence on             energy=1.00D-06.
 No special actions if energy rises.
 SCF Done:  E(UM062X) =  -241.448992353     A.U. after   17 cycles
            NFock= 17  Conv=0.30D-08     -V/T= 2.0082
 <Sx>= 0.0000 <Sy>= 0.0000 <Sz>= 0.5000 <S**2>= 0.7741 S= 0.5120
 <L.S>= 0.000000000000E+00
 Annihilation of the first spin contaminant:
 S**2 before annihilation     0.7741,   after     0.7503
 Calling FoFJK, ICntrl=      2127 FMM=F ISym2X=0 I1Cent= 0 IOpClX= 1 NMat=1 NMatS=1 NMatT=0.
 ***** Axes restored to original set *****
 -------------------------------------------------------------------
 Center     Atomic                   Forces (Hartrees/Bohr)
 Number     Number              X              Y              Z
 -------------------------------------------------------------------
      1        7           0.018128144   -0.002304449   -0.000001428
      2        7           0.011534035    0.002538426    0.000000500
      3        6          -0.020867043    0.025122095    0.000000221
      4        6          -0.013309133   -0.025689876    0.000003548
      5        7           0.005507303    0.000393880   -0.000002464
      6        1          -0.000108267   -0.000655956    0.000000077
      7        1          -0.000885040    0.000595879   -0.000000455
 -------------------------------------------------------------------
 Cartesian Forces:  Max     0.025689876 RMS     0.010710785

 GradGradGradGradGradGradGradGradGradGradGradGradGradGradGradGradGradGrad
 Berny optimization.
 Using GEDIIS/GDIIS optimizer.
 FormGI is forming the generalized inverse of G from B-inverse, IUseBI=4.
 Internal  Forces:  Max     0.023219523 RMS     0.007654195
 Search for a local minimum.
 Step number   2 out of a maximum of   36
 All quantities printed in internal units (Hartrees-Bohrs-Radians)
 Mixed Optimization -- RFO/linear search
 Update second derivatives using D2CorX and points    1    2
 DE= -1.09D-02 DEPred=-1.05D-02 R= 1.04D+00
 TightC=F SS=  1.41D+00  RLast= 2.34D-01 DXNew= 5.0454D-01 7.0078D-01
 Trust test= 1.04D+00 RLast= 2.34D-01 DXMaxT set to 5.05D-01
 ITU=  1  0
 Use linear search instead of GDIIS.
     Eigenvalues ---    0.01767   0.02216   0.02263   0.02285   0.15969
     Eigenvalues ---    0.16003   0.22595   0.29671   0.35734   0.35868
     Eigenvalues ---    0.38129   0.45637   0.46531   0.49863   0.51143
 RFO step:  Lambda=-4.27290073D-03 EMin= 1.76689504D-02
 Quartic linear search produced a step of  0.10525.
 Iteration  1 RMS(Cart)=  0.02292847 RMS(Int)=  0.00017544
 Iteration  2 RMS(Cart)=  0.00010835 RMS(Int)=  0.00012195
 Iteration  3 RMS(Cart)=  0.00000000 RMS(Int)=  0.00012195
 Variable       Old X    -DE/DX   Delta X   Delta X   Delta X     New X
                                 (Linear)    (Quad)   (Total)
    R1        2.60011  -0.00082  -0.00332  -0.00679  -0.00997   2.59014
    R2        2.56846  -0.00517  -0.00356  -0.01637  -0.01978   2.54869
    R3        2.49036  -0.01910  -0.00835  -0.04824  -0.05666   2.43371
    R4        2.71392   0.02322   0.01010   0.06517   0.07509   2.78901
    R5        2.04446  -0.00053   0.00019  -0.00141  -0.00122   2.04323
    R6        2.50204  -0.01541  -0.00612  -0.03743  -0.04359   2.45845
    R7        2.04600  -0.00107   0.00021  -0.00303  -0.00283   2.04317
    A1        1.92341   0.01468  -0.00936   0.04840   0.03937   1.96278
    A2        1.86810  -0.00794   0.00957  -0.02654  -0.01692   1.85118
    A3        1.88075   0.00091  -0.00401   0.00409  -0.00016   1.88059
    A4        2.13295  -0.00004   0.00336   0.00209   0.00557   2.13852
    A5        2.26949  -0.00087   0.00065  -0.00618  -0.00541   2.26408
    A6        1.88178   0.00082  -0.00628   0.00161  -0.00490   1.87688
    A7        2.26685  -0.00035   0.00180  -0.00177   0.00015   2.26700
    A8        2.13455  -0.00046   0.00448   0.00016   0.00476   2.13931
    A9        1.87074  -0.00847   0.01008  -0.02756  -0.01739   1.85335
    D1       -0.00006  -0.00000  -0.00001   0.00000  -0.00001  -0.00006
    D2        0.00004   0.00000  -0.00000   0.00003   0.00003   0.00007
    D3        0.00005  -0.00000   0.00001  -0.00004  -0.00002   0.00002
    D4       -3.14157  -0.00000   0.00000  -0.00001  -0.00000  -3.14157
    D5       -0.00003   0.00000  -0.00001   0.00006   0.00005   0.00002
    D6        3.14159  -0.00000  -0.00000  -0.00000  -0.00000   3.14159
    D7       -3.14159   0.00000  -0.00000   0.00002   0.00002  -3.14157
    D8        0.00003  -0.00000   0.00001  -0.00003  -0.00003  -0.00000
    D9       -0.00001  -0.00000   0.00001  -0.00005  -0.00005  -0.00005
   D10        3.14156  -0.00000  -0.00000  -0.00000  -0.00000   3.14156
         Item               Value     Threshold  Converged?
 Maximum Force            0.023220     0.000450     NO 
 RMS     Force            0.007654     0.000300     NO 
 Maximum Displacement     0.068770     0.001800     NO 
 RMS     Displacement     0.022935     0.001200     NO 
 Predicted change in Energy=-2.261888D-03
 GradGradGradGradGradGradGradGradGradGradGradGradGradGradGradGradGradGrad

                          Input orientation:                          
 ---------------------------------------------------------------------
 Center     Atomic      Atomic             Coordinates (Angstroms)
 Number     Number       Type             X           Y           Z
 ---------------------------------------------------------------------
      1          7           0        0.026228   -0.096930    0.000244
      2          7           0        0.719214    1.085624    0.000205
      3          6           0        1.967140    0.767399    0.000095
      4          6           0        2.055797   -0.705817    0.000028
      5          7           0        0.841098   -1.171639    0.000080
      6          1           0        2.755760    1.507091    0.000061
      7          1           0        2.925539   -1.348111   -0.000070
 ---------------------------------------------------------------------
                    Distance matrix (angstroms):
                    1          2          3          4          5
     1  N    0.000000
     2  N    1.370644   0.000000
     3  C    2.124666   1.287862   0.000000
     4  C    2.118937   2.235111   1.475881   0.000000
     5  N    1.348707   2.260552   2.242285   1.300956   0.000000
     6  H    3.165948   2.079700   1.081233   2.320972   3.292647
     7  H    3.157761   3.284957   2.322479   1.081199   2.091898
                    6          7
     6  H    0.000000
     7  H    2.860245   0.000000
 Stoichiometry    C2H2N3(2)
 Framework group  C1[X(C2H2N3)]
 Deg. of freedom    15
 Full point group                 C1      NOp   1
 Largest Abelian subgroup         C1      NOp   1
 Largest concise Abelian subgroup C1      NOp   1
                         Standard orientation:                         
 ---------------------------------------------------------------------
 Center     Atomic      Atomic             Coordinates (Angstroms)
 Number     Number       Type             X           Y           Z
 ---------------------------------------------------------------------
      1          7           0       -0.071569   -1.143298   -0.000117
      2          7           0        1.108632   -0.446311   -0.000079
      3          6           0        0.786182    0.800531    0.000031
      4          6           0       -0.687326    0.884197    0.000098
      5          7           0       -1.149031   -0.332073    0.000047
      6          1           0        1.523198    1.591651    0.000066
      7          1           0       -1.332562    1.751758    0.000197
 ---------------------------------------------------------------------
 Rotational constants (GHZ):          11.1830739           9.5381695           5.1476667
 Standard basis: 6-31+G(d,p) (6D, 7F)
 There are   105 symmetry adapted cartesian basis functions of A   symmetry.
 There are   105 symmetry adapted basis functions of A   symmetry.
   105 basis functions,   174 primitive gaussians,   105 cartesian basis functions
    18 alpha electrons       17 beta electrons
       nuclear repulsion energy       154.6095798053 Hartrees.
 NAtoms=    7 NActive=    7 NUniq=    7 SFac= 1.00D+00 NAtFMM=   60 NAOKFM=F Big=F
 Integral buffers will be    131072 words long.
 Raffenetti 2 integral format.
 Two-electron integral symmetry is turned on.
 One-electron integrals computed using PRISM.
 NBasis=   105 RedAO= T EigKep=  1.00D-04  NBF=   105
 NBsUse=   105 1.00D-06 EigRej= -1.00D+00 NBFU=   105
 Initial guess from the checkpoint file:  "/scratch/gongke2021/TZ-radical/Gau-24463.chk"
 B after Tr=    -0.000000    0.000000   -0.000000
         Rot=    0.999687    0.000000   -0.000002   -0.025019 Ang=   2.87 deg.
 Initial guess <Sx>= 0.0000 <Sy>= 0.0000 <Sz>= 0.5000 <S**2>= 0.7737 S= 0.5118
 ExpMin= 4.38D-02 ExpMax= 4.17D+03 ExpMxC= 6.27D+02 IAcc=2 IRadAn=         4 AccDes= 0.00D+00
 Harris functional with IExCor= 1009 and IRadAn=       4 diagonalized for initial guess.
 HarFok:  IExCor= 1009 AccDes= 0.00D+00 IRadAn=         4 IDoV= 1 UseB2=F ITyADJ=14
 ICtDFT=  3500011 ScaDFX=  1.000000  1.000000  1.000000  1.000000
 FoFCou: FMM=F IPFlag=           0 FMFlag=      100000 FMFlg1=           0
         NFxFlg=           0 DoJE=T BraDBF=F KetDBF=T FulRan=T
         wScrn=  0.000000 ICntrl=       500 IOpCl=  0 I1Cent=   200000004 NGrid=           0
         NMat0=    1 NMatS0=      1 NMatT0=    0 NMatD0=    1 NMtDS0=    0 NMtDT0=    0
 Petite list used in FoFCou.
 Keep R1 and R2 ints in memory in canonical form, NReq=49577659.
 Requested convergence on RMS density matrix=1.00D-08 within 128 cycles.
 Requested convergence on MAX density matrix=1.00D-06.
 Requested convergence on             energy=1.00D-06.
 No special actions if energy rises.
 SCF Done:  E(UM062X) =  -241.450105731     A.U. after   16 cycles
            NFock= 16  Conv=0.82D-08     -V/T= 2.0077
 <Sx>= 0.0000 <Sy>= 0.0000 <Sz>= 0.5000 <S**2>= 0.7726 S= 0.5112
 <L.S>= 0.000000000000E+00
 Annihilation of the first spin contaminant:
 S**2 before annihilation     0.7726,   after     0.7503
 Calling FoFJK, ICntrl=      2127 FMM=F ISym2X=0 I1Cent= 0 IOpClX= 1 NMat=1 NMatS=1 NMatT=0.
 ***** Axes restored to original set *****
 -------------------------------------------------------------------
 Center     Atomic                   Forces (Hartrees/Bohr)
 Number     Number              X              Y              Z
 -------------------------------------------------------------------
      1        7          -0.016892995   -0.002446138    0.000003337
      2        7          -0.007537413    0.001688558   -0.000002151
      3        6           0.014555741   -0.000698455    0.000001042
      4        6           0.010711285    0.001129105   -0.000003015
      5        7          -0.003749108    0.000427048    0.000000430
      6        1           0.001668748   -0.001010474    0.000000101
      7        1           0.001243743    0.000910356    0.000000257
 -------------------------------------------------------------------
 Cartesian Forces:  Max     0.016892995 RMS     0.005772695

 GradGradGradGradGradGradGradGradGradGradGradGradGradGradGradGradGradGrad
 Berny optimization.
 Using GEDIIS/GDIIS optimizer.
 FormGI is forming the generalized inverse of G from B-inverse, IUseBI=4.
 Internal  Forces:  Max     0.015229738 RMS     0.004977011
 Search for a local minimum.
 Step number   3 out of a maximum of   36
 All quantities printed in internal units (Hartrees-Bohrs-Radians)
 Mixed Optimization -- RFO/linear search
 Update second derivatives using D2CorX and points    1    2    3
 DE= -1.11D-03 DEPred=-2.26D-03 R= 4.92D-01
 Trust test= 4.92D-01 RLast= 1.16D-01 DXMaxT set to 5.05D-01
 ITU=  0  1  0
 Use linear search instead of GDIIS.
     Eigenvalues ---    0.01756   0.02214   0.02263   0.02285   0.15512
     Eigenvalues ---    0.16002   0.22631   0.26243   0.35798   0.35873
     Eigenvalues ---    0.43091   0.46002   0.47676   0.51056   0.66001
 RFO step:  Lambda=-2.49523666D-04 EMin= 1.75620456D-02
 Quartic linear search produced a step of -0.33412.
 Iteration  1 RMS(Cart)=  0.00954542 RMS(Int)=  0.00004101
 Iteration  2 RMS(Cart)=  0.00002977 RMS(Int)=  0.00002011
 Iteration  3 RMS(Cart)=  0.00000000 RMS(Int)=  0.00002011
 Variable       Old X    -DE/DX   Delta X   Delta X   Delta X     New X
                                 (Linear)    (Quad)   (Total)
    R1        2.59014   0.00636   0.00333   0.00761   0.01092   2.60106
    R2        2.54869   0.00516   0.00661   0.00135   0.00793   2.55662
    R3        2.43371   0.01523   0.01893   0.00253   0.02146   2.45517
    R4        2.78901  -0.00250  -0.02509   0.02023  -0.00483   2.78419
    R5        2.04323   0.00053   0.00041   0.00040   0.00080   2.04404
    R6        2.45845   0.01129   0.01456   0.00054   0.01512   2.47357
    R7        2.04317   0.00046   0.00094  -0.00040   0.00055   2.04372
    A1        1.96278  -0.00955  -0.01315  -0.00361  -0.01682   1.94596
    A2        1.85118   0.00595   0.00565   0.00470   0.01033   1.86151
    A3        1.88059  -0.00235   0.00005  -0.00423  -0.00414   1.87644
    A4        2.13852   0.00310  -0.00186   0.01180   0.00992   2.14844
    A5        2.26408  -0.00075   0.00181  -0.00757  -0.00578   2.25831
    A6        1.87688  -0.00176   0.00164  -0.00385  -0.00217   1.87471
    A7        2.26700  -0.00062  -0.00005  -0.00461  -0.00467   2.26232
    A8        2.13931   0.00238  -0.00159   0.00846   0.00685   2.14616
    A9        1.85335   0.00770   0.00581   0.00700   0.01280   1.86615
    D1       -0.00006  -0.00000   0.00000  -0.00004  -0.00003  -0.00010
    D2        0.00007   0.00000  -0.00001   0.00003   0.00002   0.00009
    D3        0.00002   0.00000   0.00001   0.00002   0.00003   0.00006
    D4       -3.14157   0.00000   0.00000   0.00002   0.00002  -3.14155
    D5        0.00002  -0.00000  -0.00002  -0.00001  -0.00002  -0.00000
    D6        3.14159  -0.00000   0.00000  -0.00001  -0.00001   3.14158
    D7       -3.14157  -0.00000  -0.00001   0.00000  -0.00000  -3.14157
    D8       -0.00000   0.00000   0.00001  -0.00000   0.00001   0.00000
    D9       -0.00005   0.00000   0.00002  -0.00002  -0.00000  -0.00006
   D10        3.14156  -0.00000   0.00000  -0.00001  -0.00001   3.14155
         Item               Value     Threshold  Converged?
 Maximum Force            0.015230     0.000450     NO 
 RMS     Force            0.004977     0.000300     NO 
 Maximum Displacement     0.033051     0.001800     NO 
 RMS     Displacement     0.009549     0.001200     NO 
 Predicted change in Energy=-5.077830D-04
 GradGradGradGradGradGradGradGradGradGradGradGradGradGradGradGradGradGrad

                          Input orientation:                          
 ---------------------------------------------------------------------
 Center     Atomic      Atomic             Coordinates (Angstroms)
 Number     Number       Type             X           Y           Z
 ---------------------------------------------------------------------
      1          7           0        0.008738   -0.099374    0.000256
      2          7           0        0.712608    1.083463    0.000191
      3          6           0        1.972693    0.766982    0.000098
      4          6           0        2.060421   -0.703731    0.000024
      5          7           0        0.836991   -1.169116    0.000081
      6          1           0        2.766273    1.501975    0.000066
      7          1           0        2.933053   -1.342583   -0.000073
 ---------------------------------------------------------------------
                    Distance matrix (angstroms):
                    1          2          3          4          5
     1  N    0.000000
     2  N    1.376421   0.000000
     3  C    2.146553   1.299220   0.000000
     4  C    2.138843   2.238451   1.473328   0.000000
     5  N    1.352904   2.256010   2.244614   1.308955   0.000000
     6  H    3.188780   2.095876   1.081658   2.315894   3.294974
     7  H    3.177607   3.288780   2.317878   1.081489   2.103227
                    6          7
     6  H    0.000000
     7  H    2.849443   0.000000
 Stoichiometry    C2H2N3(2)
 Framework group  C1[X(C2H2N3)]
 Deg. of freedom    15
 Full point group                 C1      NOp   1
 Largest Abelian subgroup         C1      NOp   1
 Largest concise Abelian subgroup C1      NOp   1
                         Standard orientation:                         
 ---------------------------------------------------------------------
 Center     Atomic      Atomic             Coordinates (Angstroms)
 Number     Number       Type             X           Y           Z
 ---------------------------------------------------------------------
      1          7           0       -0.089969   -1.156273   -0.000129
      2          7           0        1.100228   -0.464921   -0.000065
      3          6           0        0.797058    0.798432    0.000028
      4          6           0       -0.672648    0.901671    0.000102
      5          7           0       -1.150913   -0.316781    0.000045
      6          1           0        1.540381    1.584215    0.000060
      7          1           0       -1.302259    1.780994    0.000199
 ---------------------------------------------------------------------
 Rotational constants (GHZ):          10.9582088           9.5773891           5.1106878
 Standard basis: 6-31+G(d,p) (6D, 7F)
 There are   105 symmetry adapted cartesian basis functions of A   symmetry.
 There are   105 symmetry adapted basis functions of A   symmetry.
   105 basis functions,   174 primitive gaussians,   105 cartesian basis functions
    18 alpha electrons       17 beta electrons
       nuclear repulsion energy       153.9946957098 Hartrees.
 NAtoms=    7 NActive=    7 NUniq=    7 SFac= 1.00D+00 NAtFMM=   60 NAOKFM=F Big=F
 Integral buffers will be    131072 words long.
 Raffenetti 2 integral format.
 Two-electron integral symmetry is turned on.
 One-electron integrals computed using PRISM.
 NBasis=   105 RedAO= T EigKep=  1.01D-04  NBF=   105
 NBsUse=   105 1.00D-06 EigRej= -1.00D+00 NBFU=   105
 Initial guess from the checkpoint file:  "/scratch/gongke2021/TZ-radical/Gau-24463.chk"
 B after Tr=     0.000000   -0.000000   -0.000000
         Rot=    0.999974   -0.000001    0.000001    0.007215 Ang=  -0.83 deg.
 Initial guess <Sx>= 0.0000 <Sy>= 0.0000 <Sz>= 0.5000 <S**2>= 0.7728 S= 0.5113
 ExpMin= 4.38D-02 ExpMax= 4.17D+03 ExpMxC= 6.27D+02 IAcc=2 IRadAn=         4 AccDes= 0.00D+00
 Harris functional with IExCor= 1009 and IRadAn=       4 diagonalized for initial guess.
 HarFok:  IExCor= 1009 AccDes= 0.00D+00 IRadAn=         4 IDoV= 1 UseB2=F ITyADJ=14
 ICtDFT=  3500011 ScaDFX=  1.000000  1.000000  1.000000  1.000000
 FoFCou: FMM=F IPFlag=           0 FMFlag=      100000 FMFlg1=           0
         NFxFlg=           0 DoJE=T BraDBF=F KetDBF=T FulRan=T
         wScrn=  0.000000 ICntrl=       500 IOpCl=  0 I1Cent=   200000004 NGrid=           0
         NMat0=    1 NMatS0=      1 NMatT0=    0 NMatD0=    1 NMtDS0=    0 NMtDT0=    0
 Petite list used in FoFCou.
 Keep R1 and R2 ints in memory in canonical form, NReq=49577659.
 Requested convergence on RMS density matrix=1.00D-08 within 128 cycles.
 Requested convergence on MAX density matrix=1.00D-06.
 Requested convergence on             energy=1.00D-06.
 No special actions if energy rises.
 SCF Done:  E(UM062X) =  -241.450603712     A.U. after   15 cycles
            NFock= 15  Conv=0.53D-08     -V/T= 2.0080
 <Sx>= 0.0000 <Sy>= 0.0000 <Sz>= 0.5000 <S**2>= 0.7736 S= 0.5117
 <L.S>= 0.000000000000E+00
 Annihilation of the first spin contaminant:
 S**2 before annihilation     0.7736,   after     0.7503
 Calling FoFJK, ICntrl=      2127 FMM=F ISym2X=0 I1Cent= 0 IOpClX= 1 NMat=1 NMatS=1 NMatT=0.
 ***** Axes restored to original set *****
 -------------------------------------------------------------------
 Center     Atomic                   Forces (Hartrees/Bohr)
 Number     Number              X              Y              Z
 -------------------------------------------------------------------
      1        7          -0.000134875   -0.001391797    0.000000912
      2        7           0.001198739    0.001182151   -0.000000839
      3        6          -0.000913640    0.000204814    0.000000280
      4        6          -0.000132755    0.000061299    0.000000046
      5        7          -0.000373834    0.000053592   -0.000000578
      6        1           0.000176885   -0.000325101    0.000000076
      7        1           0.000179480    0.000215043    0.000000103
 -------------------------------------------------------------------
 Cartesian Forces:  Max     0.001391797 RMS     0.000536562

 GradGradGradGradGradGradGradGradGradGradGradGradGradGradGradGradGradGrad
 Berny optimization.
 Using GEDIIS/GDIIS optimizer.
 FormGI is forming the generalized inverse of G from B-inverse, IUseBI=4.
 Internal  Forces:  Max     0.001267720 RMS     0.000345863
 Search for a local minimum.
 Step number   4 out of a maximum of   36
 All quantities printed in internal units (Hartrees-Bohrs-Radians)
 Mixed Optimization -- En-DIIS/RFO-DIIS
 Update second derivatives using D2CorX and points    1    2    3    4
 DE= -4.98D-04 DEPred=-5.08D-04 R= 9.81D-01
 TightC=F SS=  1.41D+00  RLast= 4.09D-02 DXNew= 8.4853D-01 1.2265D-01
 Trust test= 9.81D-01 RLast= 4.09D-02 DXMaxT set to 5.05D-01
 ITU=  1  0  1  0
 Use linear search instead of GDIIS.
     Eigenvalues ---    0.01760   0.02214   0.02263   0.02285   0.15011
     Eigenvalues ---    0.16002   0.22649   0.29409   0.35803   0.35874
     Eigenvalues ---    0.42420   0.44912   0.47290   0.51105   0.68887
 RFO step:  Lambda=-8.56304307D-06 EMin= 1.75964883D-02
 Quartic linear search produced a step of -0.00507.
 Iteration  1 RMS(Cart)=  0.00139128 RMS(Int)=  0.00000183
 Iteration  2 RMS(Cart)=  0.00000169 RMS(Int)=  0.00000011
 Iteration  3 RMS(Cart)=  0.00000000 RMS(Int)=  0.00000011
 Variable       Old X    -DE/DX   Delta X   Delta X   Delta X     New X
                                 (Linear)    (Quad)   (Total)
    R1        2.60106   0.00127  -0.00006   0.00298   0.00293   2.60399
    R2        2.55662  -0.00038  -0.00004  -0.00059  -0.00063   2.55599
    R3        2.45517  -0.00069  -0.00011  -0.00105  -0.00116   2.45401
    R4        2.78419  -0.00012   0.00002  -0.00016  -0.00013   2.78405
    R5        2.04404  -0.00009  -0.00000  -0.00023  -0.00023   2.04381
    R6        2.47357   0.00007  -0.00008   0.00029   0.00021   2.47378
    R7        2.04372   0.00002  -0.00000   0.00007   0.00007   2.04379
    A1        1.94596   0.00012   0.00009   0.00005   0.00013   1.94609
    A2        1.86151  -0.00037  -0.00005  -0.00077  -0.00082   1.86069
    A3        1.87644   0.00027   0.00002   0.00060   0.00062   1.87707
    A4        2.14844   0.00023  -0.00005   0.00222   0.00217   2.15061
    A5        2.25831  -0.00050   0.00003  -0.00282  -0.00279   2.25551
    A6        1.87471   0.00025   0.00001   0.00044   0.00045   1.87516
    A7        2.26232  -0.00041   0.00002  -0.00223  -0.00221   2.26011
    A8        2.14616   0.00017  -0.00003   0.00179   0.00176   2.14791
    A9        1.86615  -0.00026  -0.00006  -0.00032  -0.00038   1.86577
    D1       -0.00010  -0.00000   0.00000  -0.00003  -0.00003  -0.00012
    D2        0.00009   0.00000  -0.00000   0.00002   0.00002   0.00012
    D3        0.00006   0.00000  -0.00000   0.00002   0.00002   0.00007
    D4       -3.14155   0.00000  -0.00000   0.00001   0.00001  -3.14154
    D5       -0.00000  -0.00000   0.00000  -0.00000  -0.00000  -0.00001
    D6        3.14158  -0.00000   0.00000  -0.00000  -0.00000   3.14157
    D7       -3.14157   0.00000   0.00000   0.00000   0.00000  -3.14157
    D8        0.00000   0.00000  -0.00000   0.00000   0.00000   0.00001
    D9       -0.00006  -0.00000   0.00000  -0.00001  -0.00001  -0.00007
   D10        3.14155  -0.00000   0.00000  -0.00001  -0.00001   3.14154
         Item               Value     Threshold  Converged?
 Maximum Force            0.001268     0.000450     NO 
 RMS     Force            0.000346     0.000300     NO 
 Maximum Displacement     0.004088     0.001800     NO 
 RMS     Displacement     0.001392     0.001200     NO 
 Predicted change in Energy=-4.298123D-06
 GradGradGradGradGradGradGradGradGradGradGradGradGradGradGradGradGradGrad

                          Input orientation:                          
 ---------------------------------------------------------------------
 Center     Atomic      Atomic             Coordinates (Angstroms)
 Number     Number       Type             X           Y           Z
 ---------------------------------------------------------------------
      1          7           0        0.008330   -0.100130    0.000264
      2          7           0        0.712714    1.084204    0.000184
      3          6           0        1.972019    0.767136    0.000099
      4          6           0        2.059798   -0.703505    0.000024
      5          7           0        0.836490   -1.169524    0.000077
      6          1           0        2.767534    1.499855    0.000068
      7          1           0        2.933892   -1.340420   -0.000072
 ---------------------------------------------------------------------
                    Distance matrix (angstroms):
                    1          2          3          4          5
     1  N    0.000000
     2  N    1.377971   0.000000
     3  C    2.146678   1.298608   0.000000
     4  C    2.138359   2.238423   1.473258   0.000000
     5  N    1.352572   2.257124   2.245012   1.309067   0.000000
     6  H    3.189539   2.096438   1.081536   2.314235   3.294619
     7  H    3.177614   3.288226   2.316677   1.081527   2.104353
                    6          7
     6  H    0.000000
     7  H    2.845142   0.000000
 Stoichiometry    C2H2N3(2)
 Framework group  C1[X(C2H2N3)]
 Deg. of freedom    15
 Full point group                 C1      NOp   1
 Largest Abelian subgroup         C1      NOp   1
 Largest concise Abelian subgroup C1      NOp   1
                         Standard orientation:                         
 ---------------------------------------------------------------------
 Center     Atomic      Atomic             Coordinates (Angstroms)
 Number     Number       Type             X           Y           Z
 ---------------------------------------------------------------------
      1          7           0       -0.096529   -1.155879   -0.000138
      2          7           0        1.098639   -0.470038   -0.000058
      3          6           0        0.801235    0.794056    0.000027
      4          6           0       -0.667860    0.904742    0.000102
      5          7           0       -1.152886   -0.311155    0.000049
      6          1           0        1.546261    1.578055    0.000057
      7          1           0       -1.291076    1.788656    0.000198
 ---------------------------------------------------------------------
 Rotational constants (GHZ):          10.9593769           9.5729802           5.1096860
 Standard basis: 6-31+G(d,p) (6D, 7F)
 There are   105 symmetry adapted cartesian basis functions of A   symmetry.
 There are   105 symmetry adapted basis functions of A   symmetry.
   105 basis functions,   174 primitive gaussians,   105 cartesian basis functions
    18 alpha electrons       17 beta electrons
       nuclear repulsion energy       153.9806960829 Hartrees.
 NAtoms=    7 NActive=    7 NUniq=    7 SFac= 1.00D+00 NAtFMM=   60 NAOKFM=F Big=F
 Integral buffers will be    131072 words long.
 Raffenetti 2 integral format.
 Two-electron integral symmetry is turned on.
 One-electron integrals computed using PRISM.
 NBasis=   105 RedAO= T EigKep=  1.01D-04  NBF=   105
 NBsUse=   105 1.00D-06 EigRej= -1.00D+00 NBFU=   105
 Initial guess from the checkpoint file:  "/scratch/gongke2021/TZ-radical/Gau-24463.chk"
 B after Tr=     0.000000   -0.000000    0.000000
         Rot=    0.999997   -0.000001    0.000000    0.002535 Ang=  -0.29 deg.
 Initial guess <Sx>= 0.0000 <Sy>= 0.0000 <Sz>= 0.5000 <S**2>= 0.7736 S= 0.5117
 Keep R1 and R2 ints in memory in canonical form, NReq=49577659.
 Requested convergence on RMS density matrix=1.00D-08 within 128 cycles.
 Requested convergence on MAX density matrix=1.00D-06.
 Requested convergence on             energy=1.00D-06.
 No special actions if energy rises.
 SCF Done:  E(UM062X) =  -241.450610334     A.U. after   14 cycles
            NFock= 14  Conv=0.49D-08     -V/T= 2.0080
 <Sx>= 0.0000 <Sy>= 0.0000 <Sz>= 0.5000 <S**2>= 0.7736 S= 0.5117
 <L.S>= 0.000000000000E+00
 Annihilation of the first spin contaminant:
 S**2 before annihilation     0.7736,   after     0.7503
 Calling FoFJK, ICntrl=      2127 FMM=F ISym2X=0 I1Cent= 0 IOpClX= 1 NMat=1 NMatS=1 NMatT=0.
 ***** Axes restored to original set *****
 -------------------------------------------------------------------
 Center     Atomic                   Forces (Hartrees/Bohr)
 Number     Number              X              Y              Z
 -------------------------------------------------------------------
      1        7          -0.000022757   -0.001431371    0.000001050
      2        7           0.000950906    0.000854914   -0.000000756
      3        6          -0.000604288   -0.000050336    0.000000018
      4        6           0.000225023    0.000249801    0.000000416
      5        7          -0.000702319    0.000407104   -0.000000887
      6        1           0.000104214   -0.000091772    0.000000057
      7        1           0.000049221    0.000061661    0.000000103
 -------------------------------------------------------------------
 Cartesian Forces:  Max     0.001431371 RMS     0.000480559

 GradGradGradGradGradGradGradGradGradGradGradGradGradGradGradGradGradGrad
 Berny optimization.
 Using GEDIIS/GDIIS optimizer.
 FormGI is forming the generalized inverse of G from B-inverse, IUseBI=4.
 Internal  Forces:  Max     0.001003024 RMS     0.000274088
 Search for a local minimum.
 Step number   5 out of a maximum of   36
 All quantities printed in internal units (Hartrees-Bohrs-Radians)
 Mixed Optimization -- En-DIIS/RFO-DIIS
 Swapping is turned off.
 Update second derivatives using D2CorX and points    1    2    3    4    5
 DE= -6.62D-06 DEPred=-4.30D-06 R= 1.54D+00
 TightC=F SS=  1.41D+00  RLast= 5.69D-03 DXNew= 8.4853D-01 1.7061D-02
 Trust test= 1.54D+00 RLast= 5.69D-03 DXMaxT set to 5.05D-01
 ITU=  1  1  0  1  0
     Eigenvalues ---    0.01759   0.02214   0.02263   0.02285   0.08023
     Eigenvalues ---    0.16032   0.22611   0.25749   0.31341   0.35805
     Eigenvalues ---    0.36075   0.43187   0.48289   0.56353   0.69050
 En-DIIS/RFO-DIIS/Sim-DIIS IScMMF=       -3 using points:     5    4
 RFO step:  Lambda=-1.57785665D-05.
 DidBck=F Rises=F RFO-DIIS coefs:    3.00000   -2.00000
 Iteration  1 RMS(Cart)=  0.00275171 RMS(Int)=  0.00000599
 Iteration  2 RMS(Cart)=  0.00000553 RMS(Int)=  0.00000047
 Iteration  3 RMS(Cart)=  0.00000000 RMS(Int)=  0.00000047
 Variable       Old X    -DE/DX   Delta X   Delta X   Delta X     New X
                                 (Linear)    (Quad)   (Total)
    R1        2.60399   0.00100   0.00586   0.00254   0.00840   2.61239
    R2        2.55599  -0.00070  -0.00126  -0.00281  -0.00407   2.55192
    R3        2.45401  -0.00048  -0.00231  -0.00080  -0.00312   2.45090
    R4        2.78405  -0.00018  -0.00026  -0.00058  -0.00085   2.78321
    R5        2.04381   0.00001  -0.00046   0.00040  -0.00006   2.04375
    R6        2.47378   0.00029   0.00043   0.00128   0.00171   2.47549
    R7        2.04379   0.00000   0.00014  -0.00003   0.00011   2.04390
    A1        1.94609  -0.00000   0.00026  -0.00053  -0.00027   1.94583
    A2        1.86069  -0.00016  -0.00164   0.00007  -0.00157   1.85912
    A3        1.87707   0.00011   0.00124  -0.00001   0.00124   1.87830
    A4        2.15061   0.00008   0.00434  -0.00038   0.00396   2.15457
    A5        2.25551  -0.00019  -0.00559   0.00039  -0.00520   2.25031
    A6        1.87516   0.00009   0.00090  -0.00022   0.00068   1.87583
    A7        2.26011  -0.00013  -0.00441   0.00080  -0.00361   2.25650
    A8        2.14791   0.00004   0.00351  -0.00058   0.00294   2.15085
    A9        1.86577  -0.00004  -0.00077   0.00069  -0.00007   1.86569
    D1       -0.00012  -0.00000  -0.00005  -0.00004  -0.00009  -0.00021
    D2        0.00012   0.00000   0.00005   0.00005   0.00010   0.00021
    D3        0.00007   0.00000   0.00003   0.00001   0.00005   0.00012
    D4       -3.14154   0.00000   0.00002   0.00002   0.00004  -3.14150
    D5       -0.00001   0.00000  -0.00001   0.00002   0.00001   0.00000
    D6        3.14157  -0.00000  -0.00001  -0.00000  -0.00001   3.14156
    D7       -3.14157   0.00000   0.00000   0.00002   0.00002  -3.14155
    D8        0.00001  -0.00000   0.00000  -0.00001  -0.00000   0.00000
    D9       -0.00007  -0.00000  -0.00002  -0.00004  -0.00006  -0.00013
   D10        3.14154  -0.00000  -0.00002  -0.00002  -0.00004   3.14150
         Item               Value     Threshold  Converged?
 Maximum Force            0.001003     0.000450     NO 
 RMS     Force            0.000274     0.000300     YES
 Maximum Displacement     0.007632     0.001800     NO 
 RMS     Displacement     0.002753     0.001200     NO 
 Predicted change in Energy=-7.890114D-06
 GradGradGradGradGradGradGradGradGradGradGradGradGradGradGradGradGradGrad

                          Input orientation:                          
 ---------------------------------------------------------------------
 Center     Atomic      Atomic             Coordinates (Angstroms)
 Number     Number       Type             X           Y           Z
 ---------------------------------------------------------------------
      1          7           0        0.007368   -0.102775    0.000298
      2          7           0        0.713542    1.085666    0.000163
      3          6           0        1.970878    0.767532    0.000099
      4          6           0        2.058733   -0.702656    0.000027
      5          7           0        0.834927   -1.169910    0.000050
      6          1           0        2.770115    1.496140    0.000072
      7          1           0        2.935213   -1.336381   -0.000065
 ---------------------------------------------------------------------
                    Distance matrix (angstroms):
                    1          2          3          4          5
     1  N    0.000000
     2  N    1.382415   0.000000
     3  C    2.147744   1.296959   0.000000
     4  C    2.137277   2.237775   1.472810   0.000000
     5  N    1.350419   2.258840   2.245900   1.309972   0.000000
     6  H    3.192068   2.097137   1.081504   2.311010   3.294355
     7  H    3.177115   3.286660   2.314388   1.081585   2.106873
                    6          7
     6  H    0.000000
     7  H    2.837329   0.000000
 Stoichiometry    C2H2N3(2)
 Framework group  C1[X(C2H2N3)]
 Deg. of freedom    15
 Full point group                 C1      NOp   1
 Largest Abelian subgroup         C1      NOp   1
 Largest concise Abelian subgroup C1      NOp   1
                         Standard orientation:                         
 ---------------------------------------------------------------------
 Center     Atomic      Atomic             Coordinates (Angstroms)
 Number     Number       Type             X           Y           Z
 ---------------------------------------------------------------------
      1          7           0       -0.120802   -1.154129   -0.000174
      2          7           0        1.091211   -0.489225   -0.000039
      3          6           0        0.816486    0.778304    0.000025
      4          6           0       -0.649813    0.916645    0.000097
      5          7           0       -1.158859   -0.290376    0.000074
      6          1           0        1.572138    1.552023    0.000052
      7          1           0       -1.253034    1.814391    0.000189
 ---------------------------------------------------------------------
 Rotational constants (GHZ):          10.9597292           9.5665883           5.1079409
 Standard basis: 6-31+G(d,p) (6D, 7F)
 There are   105 symmetry adapted cartesian basis functions of A   symmetry.
 There are   105 symmetry adapted basis functions of A   symmetry.
   105 basis functions,   174 primitive gaussians,   105 cartesian basis functions
    18 alpha electrons       17 beta electrons
       nuclear repulsion energy       153.9559860241 Hartrees.
 NAtoms=    7 NActive=    7 NUniq=    7 SFac= 1.00D+00 NAtFMM=   60 NAOKFM=F Big=F
 Integral buffers will be    131072 words long.
 Raffenetti 2 integral format.
 Two-electron integral symmetry is turned on.
 One-electron integrals computed using PRISM.
 NBasis=   105 RedAO= T EigKep=  1.01D-04  NBF=   105
 NBsUse=   105 1.00D-06 EigRej= -1.00D+00 NBFU=   105
 Initial guess from the checkpoint file:  "/scratch/gongke2021/TZ-radical/Gau-24463.chk"
 B after Tr=    -0.000000   -0.000000    0.000000
         Rot=    0.999955   -0.000002   -0.000000    0.009442 Ang=  -1.08 deg.
 Initial guess <Sx>= 0.0000 <Sy>= 0.0000 <Sz>= 0.5000 <S**2>= 0.7736 S= 0.5117
 Keep R1 and R2 ints in memory in canonical form, NReq=49577659.
 Requested convergence on RMS density matrix=1.00D-08 within 128 cycles.
 Requested convergence on MAX density matrix=1.00D-06.
 Requested convergence on             energy=1.00D-06.
 No special actions if energy rises.
 SCF Done:  E(UM062X) =  -241.450619636     A.U. after   15 cycles
            NFock= 15  Conv=0.51D-08     -V/T= 2.0080
 <Sx>= 0.0000 <Sy>= 0.0000 <Sz>= 0.5000 <S**2>= 0.7735 S= 0.5117
 <L.S>= 0.000000000000E+00
 Annihilation of the first spin contaminant:
 S**2 before annihilation     0.7735,   after     0.7503
 Calling FoFJK, ICntrl=      2127 FMM=F ISym2X=0 I1Cent= 0 IOpClX= 1 NMat=1 NMatS=1 NMatT=0.
 ***** Axes restored to original set *****
 -------------------------------------------------------------------
 Center     Atomic                   Forces (Hartrees/Bohr)
 Number     Number              X              Y              Z
 -------------------------------------------------------------------
      1        7           0.000413335   -0.001618326    0.000001250
      2        7           0.000414349    0.000436863   -0.000001926
      3        6           0.000054127   -0.000391330    0.000001703
      4        6           0.000965787    0.000589915   -0.000001339
      5        7          -0.001535380    0.000967776    0.000000001
      6        1          -0.000123099    0.000234788    0.000000017
      7        1          -0.000189119   -0.000219685    0.000000295
 -------------------------------------------------------------------
 Cartesian Forces:  Max     0.001618326 RMS     0.000618657

 GradGradGradGradGradGradGradGradGradGradGradGradGradGradGradGradGradGrad
 Berny optimization.
 Using GEDIIS/GDIIS optimizer.
 FormGI is forming the generalized inverse of G from B-inverse, IUseBI=4.
 Internal  Forces:  Max     0.001378198 RMS     0.000359938
 Search for a local minimum.
 Step number   6 out of a maximum of   36
 All quantities printed in internal units (Hartrees-Bohrs-Radians)
 Mixed Optimization -- En-DIIS/RFO-DIIS
 Swapping is turned off.
 Update second derivatives using D2CorX and points    1    2    3    4    5
                                                      6
 DE= -9.30D-06 DEPred=-7.89D-06 R= 1.18D+00
 TightC=F SS=  1.41D+00  RLast= 1.30D-02 DXNew= 8.4853D-01 3.9047D-02
 Trust test= 1.18D+00 RLast= 1.30D-02 DXMaxT set to 5.05D-01
 ITU=  1  1  1  0  1  0
     Eigenvalues ---    0.01759   0.02214   0.02263   0.02285   0.03874
     Eigenvalues ---    0.16062   0.22675   0.24114   0.31862   0.35806
     Eigenvalues ---    0.36130   0.43008   0.48281   0.64732   0.86953
 En-DIIS/RFO-DIIS/Sim-DIIS IScMMF=       -3 using points:     6    5    4
 RFO step:  Lambda=-1.91759063D-05.
 DIIS inversion failure, remove point   3.
 RFO-DIIS uses    2 points instead of    3
 DidBck=F Rises=F RFO-DIIS coefs:    2.47406   -1.47406    0.00000
 Iteration  1 RMS(Cart)=  0.00358820 RMS(Int)=  0.00000771
 Iteration  2 RMS(Cart)=  0.00000705 RMS(Int)=  0.00000135
 Iteration  3 RMS(Cart)=  0.00000000 RMS(Int)=  0.00000135
 Variable       Old X    -DE/DX   Delta X   Delta X   Delta X     New X
                                 (Linear)    (Quad)   (Total)
    R1        2.61239   0.00058   0.01238   0.00140   0.01378   2.62617
    R2        2.55192  -0.00138  -0.00600  -0.00293  -0.00892   2.54300
    R3        2.45090  -0.00007  -0.00459   0.00013  -0.00447   2.44643
    R4        2.78321  -0.00018  -0.00125  -0.00052  -0.00176   2.78145
    R5        2.04375   0.00007  -0.00009  -0.00007  -0.00016   2.04359
    R6        2.47549   0.00079   0.00252   0.00181   0.00433   2.47982
    R7        2.04390  -0.00002   0.00016  -0.00005   0.00011   2.04401
    A1        1.94583  -0.00004  -0.00039  -0.00018  -0.00057   1.94525
    A2        1.85912   0.00010  -0.00232   0.00015  -0.00217   1.85695
    A3        1.87830  -0.00014   0.00183  -0.00022   0.00160   1.87991
    A4        2.15457  -0.00020   0.00584  -0.00147   0.00436   2.15893
    A5        2.25031   0.00034  -0.00766   0.00170  -0.00597   2.24435
    A6        1.87583  -0.00018   0.00100  -0.00044   0.00055   1.87639
    A7        2.25650   0.00037  -0.00532   0.00192  -0.00340   2.25310
    A8        2.15085  -0.00020   0.00433  -0.00148   0.00285   2.15370
    A9        1.86569   0.00025  -0.00011   0.00069   0.00058   1.86627
    D1       -0.00021  -0.00000  -0.00013  -0.00006  -0.00020  -0.00041
    D2        0.00021   0.00000   0.00014   0.00002   0.00016   0.00037
    D3        0.00012   0.00000   0.00007   0.00007   0.00014   0.00027
    D4       -3.14150   0.00000   0.00006   0.00002   0.00008  -3.14142
    D5        0.00000  -0.00000   0.00001  -0.00007  -0.00005  -0.00005
    D6        3.14156  -0.00000  -0.00002  -0.00002  -0.00004   3.14152
    D7       -3.14155  -0.00000   0.00003  -0.00001   0.00001  -3.14154
    D8        0.00000   0.00000  -0.00000   0.00003   0.00003   0.00003
    D9       -0.00013   0.00000  -0.00009   0.00003  -0.00007  -0.00020
   D10        3.14150  -0.00000  -0.00006  -0.00002  -0.00008   3.14142
         Item               Value     Threshold  Converged?
 Maximum Force            0.001378     0.000450     NO 
 RMS     Force            0.000360     0.000300     NO 
 Maximum Displacement     0.008979     0.001800     NO 
 RMS     Displacement     0.003589     0.001200     NO 
 Predicted change in Energy=-9.589534D-06
 GradGradGradGradGradGradGradGradGradGradGradGradGradGradGradGradGradGrad

                          Input orientation:                          
 ---------------------------------------------------------------------
 Center     Atomic      Atomic             Coordinates (Angstroms)
 Number     Number       Type             X           Y           Z
 ---------------------------------------------------------------------
      1          7           0        0.006132   -0.107526    0.000362
      2          7           0        0.715250    1.087646    0.000102
      3          6           0        1.969813    0.768191    0.000112
      4          6           0        2.057745   -0.701058    0.000018
      5          7           0        0.832100   -1.169919    0.000022
      6          1           0        2.773256    1.492034    0.000090
      7          1           0        2.936480   -1.331753   -0.000062
 ---------------------------------------------------------------------
                    Distance matrix (angstroms):
                    1          2          3          4          5
     1  N    0.000000
     2  N    1.389707   0.000000
     3  C    2.150099   1.294596   0.000000
     4  C    2.135742   2.236460   1.471878   0.000000
     5  N    1.345698   2.260587   2.247368   1.312264   0.000000
     6  H    3.196180   2.097360   1.081420   2.306861   3.294553
     7  H    3.175794   3.284410   2.311755   1.081643   2.110593
                    6          7
     6  H    0.000000
     7  H    2.828500   0.000000
 Stoichiometry    C2H2N3(2)
 Framework group  C1[X(C2H2N3)]
 Deg. of freedom    15
 Full point group                 C1      NOp   1
 Largest Abelian subgroup         C1      NOp   1
 Largest concise Abelian subgroup C1      NOp   1
                         Standard orientation:                         
 ---------------------------------------------------------------------
 Center     Atomic      Atomic             Coordinates (Angstroms)
 Number     Number       Type             X           Y           Z
 ---------------------------------------------------------------------
      1          7           0       -0.165184   -1.149493   -0.000242
      2          7           0        1.075972   -0.524341    0.000019
      3          6           0        0.843647    0.749239    0.000009
      4          6           0       -0.616062    0.938114    0.000102
      5          7           0       -1.168192   -0.252343    0.000098
      6          1           0        1.621086    1.500941    0.000030
      7          1           0       -1.184763    1.858185    0.000182
 ---------------------------------------------------------------------
 Rotational constants (GHZ):          10.9582912           9.5592089           5.1055243
 Standard basis: 6-31+G(d,p) (6D, 7F)
 There are   105 symmetry adapted cartesian basis functions of A   symmetry.
 There are   105 symmetry adapted basis functions of A   symmetry.
   105 basis functions,   174 primitive gaussians,   105 cartesian basis functions
    18 alpha electrons       17 beta electrons
[...]
     1   7    -0.00   0.20   0.00     0.02  -0.10  -0.00     0.10  -0.13  -0.00
     2   7    -0.04  -0.08  -0.00    -0.07  -0.09  -0.00     0.05  -0.06  -0.00
     3   6     0.00  -0.04   0.00     0.19   0.01  -0.00    -0.12   0.07   0.00
     4   6     0.04  -0.09  -0.00    -0.03   0.16   0.00     0.30   0.09   0.00
     5   7     0.08  -0.03  -0.00    -0.07  -0.03  -0.00    -0.24   0.08  -0.00
     6   1    -0.30   0.51   0.00    -0.25   0.89   0.00    -0.02  -0.14   0.00
     7   1    -0.70  -0.33  -0.00     0.09   0.22   0.00    -0.84  -0.26  -0.00
                     13                     14                     15
                      A                      A                      A
 Frequencies --   1620.1623              3288.2103              3300.5508
 Red. masses --      7.7921                 1.0947                 1.1009
 Frc consts  --     12.0509                 6.9737                 7.0660
 IR Inten    --      2.9280                 0.5191                 0.0077
  Atom  AN      X      Y      Z        X      Y      Z        X      Y      Z
     1   7    -0.04   0.05   0.00     0.00  -0.00  -0.00     0.00   0.00   0.00
     2   7     0.01  -0.46  -0.00     0.00   0.00  -0.00    -0.00   0.00   0.00
     3   6    -0.01   0.58   0.00    -0.06  -0.04  -0.00    -0.05  -0.03  -0.00
     4   6    -0.08  -0.09  -0.00    -0.01   0.05   0.00     0.02  -0.07  -0.00
     5   7     0.06   0.00  -0.00    -0.00  -0.00  -0.00     0.00   0.00  -0.00
     6   1     0.51  -0.27  -0.00     0.69   0.37   0.00     0.54   0.29   0.00
     7   1     0.29   0.01  -0.00     0.18  -0.59   0.00    -0.24   0.75  -0.00

 -------------------
 - Thermochemistry -
 -------------------
 Temperature   298.150 Kelvin.  Pressure   1.00000 Atm.
 Atom     1 has atomic number  7 and mass  14.00307
 Atom     2 has atomic number  7 and mass  14.00307
 Atom     3 has atomic number  6 and mass  12.00000
 Atom     4 has atomic number  6 and mass  12.00000
 Atom     5 has atomic number  7 and mass  14.00307
 Atom     6 has atomic number  1 and mass   1.00783
 Atom     7 has atomic number  1 and mass   1.00783
 Molecular mass:    68.02487 amu.
 Principal axes and moments of inertia in atomic units:
                           1         2         3
     Eigenvalues --   165.22562 189.00382 354.22944
           X            0.99445   0.10520   0.00000
           Y           -0.10520   0.99445  -0.00011
           Z           -0.00001   0.00011   1.00000
 This molecule is an asymmetric top.
 Rotational symmetry number  1.
 Rotational temperatures (Kelvin)      0.52422     0.45827     0.24451
 Rotational constants (GHZ):          10.92289     9.54870     5.09484
 Zero-point vibrational energy     114356.8 (Joules/Mol)
                                   27.33194 (Kcal/Mol)
 Warning -- explicit consideration of   3 degrees of freedom as
           vibrations may cause significant error
 Vibrational temperatures:    452.16   768.51   769.87  1120.25  1237.34
          (Kelvin)           1290.17  1399.53  1464.02  1569.00  1706.89
                             1863.01  2056.38  2331.05  4731.00  4748.76
 
 Zero-point correction=                           0.043556 (Hartree/Particle)
 Thermal correction to Energy=                    0.047533
 Thermal correction to Enthalpy=                  0.048477
 Thermal correction to Gibbs Free Energy=         0.016529
 Sum of electronic and zero-point Energies=           -241.407424
 Sum of electronic and thermal Energies=              -241.403447
 Sum of electronic and thermal Enthalpies=            -241.402503
 Sum of electronic and thermal Free Energies=         -241.434451
 
                     E (Thermal)             CV                S
                      KCal/Mol        Cal/Mol-Kelvin    Cal/Mol-Kelvin
 Total                   29.827             13.267             67.240
 Electronic               0.000              0.000              1.377
 Translational            0.889              2.981             38.570
 Rotational               0.889              2.981             23.918
 Vibrational             28.050              7.305              3.375
 Vibration     1          0.702              1.646              1.340
 Vibration     2          0.889              1.174              0.578
 Vibration     3          0.890              1.172              0.576
                       Q            Log10(Q)             Ln(Q)
 Total Bot       0.249529D-07         -7.602879        -17.506275
 Total V=0       0.270131D+13         12.431575         28.624758
 Vib (Bot)       0.150271D-19        -19.823126        -45.644434
 Vib (Bot)    1  0.600192D+00         -0.221710         -0.510506
 Vib (Bot)    2  0.298254D+00         -0.525414         -1.209811
 Vib (Bot)    3  0.297466D+00         -0.526563         -1.212456
 Vib (V=0)       0.162677D+01          0.211327          0.486599
 Vib (V=0)    1  0.128117D+01          0.107608          0.247776
 Vib (V=0)    2  0.108220D+01          0.034307          0.078995
 Vib (V=0)    3  0.108180D+01          0.034145          0.078622
 Electronic      0.200000D+01          0.301030          0.693147
 Translational   0.220524D+08          7.343455         16.908931
 Rotational      0.376497D+05          4.575762         10.536081
 ***** Axes restored to original set *****
 -------------------------------------------------------------------
 Center     Atomic                   Forces (Hartrees/Bohr)
 Number     Number              X              Y              Z
 -------------------------------------------------------------------
      1        7           0.000368412    0.000170472    0.000002184
      2        7           0.000112414   -0.000213174    0.000009043
      3        6          -0.000118685   -0.000140913   -0.000021072
      4        6          -0.000142226    0.000354449    0.000029731
      5        7          -0.000161896   -0.000187594   -0.000015117
      6        1          -0.000032564    0.000024968    0.000001104
      7        1          -0.000025455   -0.000008208   -0.000005872
 -------------------------------------------------------------------
 Cartesian Forces:  Max     0.000368412 RMS     0.000149308
 FormGI is forming the generalized inverse of G from B-inverse, IUseBI=4.

 GradGradGradGradGradGradGradGradGradGradGradGradGradGradGradGradGradGrad
 Berny optimization.
 Internal  Forces:  Max     0.000275509 RMS     0.000106322
 Search for a local minimum.
 Step number   1 out of a maximum of    2
 All quantities printed in internal units (Hartrees-Bohrs-Radians)
 Second derivative matrix not updated -- analytic derivatives used.
 ITU=  0
     Eigenvalues ---    0.01157   0.01580   0.02618   0.05705   0.06289
     Eigenvalues ---    0.10229   0.10799   0.20940   0.26731   0.32166
     Eigenvalues ---    0.38130   0.38356   0.46335   0.50437   0.68056
 Angle between quadratic step and forces=  36.95 degrees.
 Linear search not attempted -- first point.
 Iteration  1 RMS(Cart)=  0.00030047 RMS(Int)=  0.00000009
 Iteration  2 RMS(Cart)=  0.00000007 RMS(Int)=  0.00000003
 Variable       Old X    -DE/DX   Delta X   Delta X   Delta X     New X
                                 (Linear)    (Quad)   (Total)
    R1        2.70737  -0.00021   0.00000  -0.00124  -0.00124   2.70612
    R2        2.44645  -0.00012   0.00000   0.00005   0.00005   2.44649
    R3        2.43493  -0.00028   0.00000  -0.00019  -0.00019   2.43475
    R4        2.75590  -0.00018   0.00000  -0.00068  -0.00068   2.75522
    R5        2.04343  -0.00001   0.00000  -0.00003  -0.00003   2.04340
    R6        2.54631   0.00001   0.00000   0.00018   0.00018   2.54650
    R7        2.04271  -0.00001   0.00000  -0.00002  -0.00002   2.04269
    A1        1.94213   0.00017   0.00000   0.00048   0.00048   1.94261
    A2        1.84861   0.00000   0.00000   0.00016   0.00016   1.84877
    A3        1.88650  -0.00003   0.00000  -0.00025  -0.00025   1.88625
    A4        2.15261  -0.00003   0.00000  -0.00033  -0.00033   2.15228
    A5        2.24408   0.00006   0.00000   0.00058   0.00058   2.24465
    A6        1.86704   0.00012   0.00000   0.00039   0.00039   1.86743
    A7        2.27676  -0.00005   0.00000  -0.00008  -0.00008   2.27668
    A8        2.13939  -0.00008   0.00000  -0.00031  -0.00031   2.13908
    A9        1.88051  -0.00026   0.00000  -0.00078  -0.00078   1.87972
    D1       -0.00009   0.00000   0.00000   0.00009   0.00009  -0.00001
    D2       -0.00003   0.00001   0.00000   0.00004   0.00004   0.00001
    D3        0.00017  -0.00001   0.00000  -0.00017  -0.00017   0.00000
    D4       -3.14159  -0.00000   0.00000  -0.00000  -0.00000  -3.14159
    D5       -0.00020   0.00001   0.00000   0.00020   0.00020  -0.00000
    D6       -3.14148  -0.00000   0.00000  -0.00011  -0.00011   3.14159
    D7        3.14158   0.00000   0.00000   0.00002   0.00002  -3.14159
    D8        0.00029  -0.00001   0.00000  -0.00029  -0.00029   0.00000
    D9        0.00013  -0.00001   0.00000  -0.00014  -0.00014  -0.00000
   D10        3.14145   0.00000   0.00000   0.00014   0.00014   3.14159
         Item               Value     Threshold  Converged?
 Maximum Force            0.000276     0.000450     YES
 RMS     Force            0.000106     0.000300     YES
 Maximum Displacement     0.000792     0.001800     YES
 RMS     Displacement     0.000300     0.001200     YES
 Predicted change in Energy=-4.287800D-07
 Optimization completed.
    -- Stationary point found.
                           ----------------------------
                           !   Optimized Parameters   !
                           ! (Angstroms and Degrees)  !
 --------------------------                            --------------------------
 ! Name  Definition              Value          Derivative Info.                !
 --------------------------------------------------------------------------------
 ! R1    R(1,2)                  1.4327         -DE/DX =   -0.0002              !
 ! R2    R(1,5)                  1.2946         -DE/DX =   -0.0001              !
 ! R3    R(2,3)                  1.2885         -DE/DX =   -0.0003              !
 ! R4    R(3,4)                  1.4584         -DE/DX =   -0.0002              !
 ! R5    R(3,6)                  1.0813         -DE/DX =    0.0                 !
 ! R6    R(4,5)                  1.3474         -DE/DX =    0.0                 !
 ! R7    R(4,7)                  1.081          -DE/DX =    0.0                 !
 ! A1    A(2,1,5)              111.2758         -DE/DX =    0.0002              !
 ! A2    A(1,2,3)              105.9174         -DE/DX =    0.0                 !
 ! A3    A(2,3,4)              108.0883         -DE/DX =    0.0                 !
 ! A4    A(2,3,6)              123.3356         -DE/DX =    0.0                 !
 ! A5    A(4,3,6)              128.5761         -DE/DX =    0.0001              !
 ! A6    A(3,4,5)              106.9734         -DE/DX =    0.0001              !
 ! A7    A(3,4,7)              130.4488         -DE/DX =    0.0                 !
 ! A8    A(5,4,7)              122.5778         -DE/DX =   -0.0001              !
 ! A9    A(1,5,4)              107.7452         -DE/DX =   -0.0003              !
 ! D1    D(5,1,2,3)             -0.0054         -DE/DX =    0.0                 !
 ! D2    D(2,1,5,4)             -0.0018         -DE/DX =    0.0                 !
 ! D3    D(1,2,3,4)              0.0098         -DE/DX =    0.0                 !
 ! D4    D(1,2,3,6)           -179.9998         -DE/DX =    0.0                 !
 ! D5    D(2,3,4,5)             -0.0113         -DE/DX =    0.0                 !
 ! D6    D(2,3,4,7)            180.0064         -DE/DX =    0.0                 !
 ! D7    D(6,3,4,5)           -180.001          -DE/DX =    0.0                 !
 ! D8    D(6,3,4,7)              0.0167         -DE/DX =    0.0                 !
 ! D9    D(3,4,5,1)              0.0076         -DE/DX =    0.0                 !
 ! D10   D(7,4,5,1)            179.9916         -DE/DX =    0.0                 !
 --------------------------------------------------------------------------------
 GradGradGradGradGradGradGradGradGradGradGradGradGradGradGradGradGradGrad


 ----------------------------------------------------------------------

 Electric dipole moment (input orientation):
 (Debye = 10**-18 statcoulomb cm , SI units = C m)
                  (au)            (Debye)         (10**-30 SI)
   Tot        0.182688D+01      0.464346D+01      0.154889D+02
   x          0.182656D+01      0.464264D+01      0.154862D+02
   y         -0.343269D-01     -0.872504D-01     -0.291036D+00
   z         -0.186525D-03     -0.474100D-03     -0.158143D-02

 Dipole polarizability, Alpha (input orientation).
 (esu units = cm**3 , SI units = C**2 m**2 J**-1)
 Alpha(0;0):
               (au)            (10**-24 esu)      (10**-40 SI)
   iso        0.386586D+02      0.572861D+01      0.637393D+01
   aniso      0.207958D+02      0.308162D+01      0.342876D+01
   xx         0.470375D+02      0.697024D+01      0.775544D+01
   yx        -0.688679D+00     -0.102052D+00     -0.113548D+00
   yy         0.440098D+02      0.652158D+01      0.725624D+01
   zx        -0.167641D-02     -0.248418D-03     -0.276402D-03
   zy         0.969665D-03      0.143690D-03      0.159876D-03
   zz         0.249283D+02      0.369400D+01      0.411013D+01

 ----------------------------------------------------------------------

 Dipole orientation:
     7         -0.00554638         -0.27033171          0.01126624
     7          0.03881775          2.08959182          1.33739662
     6          0.02803933          1.52492486          3.70592758
     6         -0.02324795         -1.22131938          3.93062514
     7         -0.04102349         -2.16057940          1.56394482
     1          0.05430964          2.92487393          5.19423504
     1         -0.04587472         -2.41519713          5.58797615

 Electric dipole moment (dipole orientation):
 (Debye = 10**-18 statcoulomb cm , SI units = C m)
                  (au)            (Debye)         (10**-30 SI)
   Tot        0.182688D+01      0.464346D+01      0.154889D+02
   x          0.000000D+00      0.000000D+00      0.000000D+00
   y          0.000000D+00      0.000000D+00      0.000000D+00
   z          0.182688D+01      0.464346D+01      0.154889D+02

 Dipole polarizability, Alpha (dipole orientation).
 (esu units = cm**3 , SI units = C**2 m**2 J**-1)
 Alpha(0;0):
               (au)            (10**-24 esu)      (10**-40 SI)
   iso        0.386586D+02      0.572861D+01      0.637393D+01
   aniso      0.207958D+02      0.308162D+01      0.342876D+01
   xx         0.249350D+02      0.369499D+01      0.411123D+01
   yx         0.357137D+00      0.529223D-01      0.588840D-01
   yy         0.439783D+02      0.651691D+01      0.725104D+01
   zx        -0.124278D-01     -0.184161D-02     -0.204907D-02
   zy        -0.631191D+00     -0.935328D-01     -0.104069D+00
   zz         0.470623D+02      0.697391D+01      0.775953D+01

 ----------------------------------------------------------------------
 1\1\GINC-NODE2\Freq\UM062X\6-31+G(d,p)\C2H2N3(2)\GONGKE2021\23-Jul-202
 3\0\\#N Geom=AllCheck Guess=TCheck SCRF=Check GenChk UM062X/6-31+G(d,p
 ) Freq\\"Sketch 2"\\0,2\N,0.0032722856,-0.1431700333,0.0002459253\N,0.
 7283757238,1.0924618594,0.0001671506\C,1.9759114304,0.7701005146,0.000
 1272621\C,2.0674840013,-0.6853803489,-0.0000560924\N,0.8059708994,-1.1
 588841816,0.0001372697\H,2.7772732092,1.4961227149,0.0000676412\H,2.93
 24884503,-1.333634525,-0.0000451565\\Version=ES64L-G16RevA.03\State=2-
 A\HF=-241.4509805\S2=0.770398\S2-1=0.\S2A=0.750096\RMSD=5.629e-09\RMSF
 =1.493e-04\ZeroPoint=0.0435562\Thermal=0.047533\Dipole=1.8265563,-0.03
 43269,-0.0001865\DipoleDeriv=0.1528618,-0.0848289,-0.0001271,0.2013523
 ,0.6034891,0.0000232,-0.0002481,0.0000229,-0.2923305,-0.4203235,-0.175
 4486,0.0000867,-0.140177,-0.4264691,-0.0000084,0.0002109,0.0000284,-0.
 0621665,0.1309731,-0.0097508,-0.0000249,0.1369822,0.1970389,0.0000686,
 -0.0001379,0.0000039,0.0026951,0.2893728,-0.1921217,-0.0000255,-0.1715
 231,0.1478341,-0.0000007,0.0000583,-0.0000098,0.1829772,-0.2985535,0.4
 810984,0.0000653,-0.0282695,-0.6779781,-0.0000611,0.0001475,-0.0000688
 ,-0.0736984,0.0747887,-0.0329675,0.0000056,-0.0476237,0.0831801,-0.000
 0071,0.000018,0.0000058,0.130283,0.0708806,0.0140192,0.00002,0.0492588
 ,0.0729051,-0.0000146,-0.0000487,0.0000176,0.1122401\Polar=47.0374984,
 -0.6886793,44.009806,-0.0016764,0.0009697,24.9283471\Quadrupole=1.4593
 832,-1.9480068,0.4886236,-0.0613705,0.0000942,0.0000533\PG=C01 [X(C2H2
 N3)]\NImag=0\\0.53525114,-0.09491004,0.23381239,-0.00008969,0.00001068
 ,0.02633856,-0.10561503,-0.00295043,0.00002893,0.63531396,0.02806156,-
 0.08563247,0.00000011,-0.15613894,0.37898932,0.00003490,0.00000179,-0.
 01151853,-0.00004581,0.00000935,0.03179128,-0.09091408,-0.04651717,0.0
 0000328,-0.51074537,0.10531918,0.00002032,0.90353036,-0.02505518,-0.03
 962071,0.00001159,0.13689872,-0.13810987,-0.00001806,0.12252953,0.6449
 5262,-0.00000247,0.00000743,-0.01447369,0.00002207,-0.00000124,-0.0327
 8723,-0.00004493,0.00001697,0.11051434,-0.15753882,0.16779165,0.000028
 03,-0.04342104,0.02276487,0.00000916,-0.11065418,0.01478760,-0.0000012
 6,0.69521596,-0.00086551,0.10012028,-0.00000647,0.05122799,-0.04982496
 ,0.00000133,-0.02317612,-0.21958394,-0.00002692,-0.19683952,0.54294816
 ,0.00002520,-0.00003111,0.01539242,0.00001220,0.00000406,0.02266974,-0
 .00000053,-0.00001744,-0.06978092,-0.00003299,0.00002227,0.12533266,-0
 .16837903,-0.02354868,0.00002642,0.04318035,0.02706384,-0.00001877,0.0
 1686867,-0.09367146,0.00001283,-0.14296370,0.01810717,-0.00000313,0.26
 493322,0.09390765,-0.20438405,-0.00001612,-0.04211140,-0.11395165,0.00
 000628,-0.01902929,-0.04557564,-0.00000539,-0.14592022,-0.19250132,0.0
 0002125,0.08792271,0.54415604,0.00003611,0.00001289,-0.02456910,-0.000
 02007,-0.00000855,-0.01135055,-0.00000146,-0.00000275,0.03505743,0.000
 00860,0.00000450,-0.06437201,-0.00002329,-0.00000629,0.05565565,-0.006
 20082,0.00099097,0.00000156,-0.01935112,-0.02278997,0.00000034,-0.2165
 3581,-0.15231142,0.00001436,0.00949704,0.00564026,-0.00000100,0.001197
 64,0.00483263,0.00000021,0.23181911,0.00544531,-0.00324198,-0.00000113
 ,0.00922086,0.01448020,0.00000015,-0.15723647,-0.20361806,0.00000825,-
 0.01677794,-0.00342157,0.00000277,-0.00499748,-0.00268196,0.00000006,0
 .16393598,0.19920814,-0.00000128,-0.00000311,0.00759125,0.00000279,-0.
 00000132,-0.00254468,0.00001802,0.00001273,-0.03400925,-0.00000113,0.0
 0000042,0.00123150,-0.00000301,0.00000140,0.00526840,-0.00001543,-0.00
 001009,0.02363107,-0.00660335,-0.00085630,0.00000147,0.00063824,-0.004
 28054,-0.00000014,0.00845042,-0.00317779,-0.00000059,-0.25013526,0.145
 90573,0.00000024,-0.01483715,0.02039792,-0.00000009,-0.00042604,0.0004
 0974,0.00000005,0.26291314,-0.00658379,-0.00105346,0.00000134,0.003853
 19,-0.00595056,-0.00000084,0.01811034,0.00155560,0.00000090,0.15419356
 ,-0.17773666,-0.00000180,-0.01087611,0.01493858,0.00000015,-0.00029844
 ,-0.00072476,-0.00000003,-0.15839875,0.16897127,-0.00000275,0.00000143
 ,0.00123909,-0.00000011,-0.00000242,0.00373996,0.00000529,-0.00000304,
 0.00547932,-0.00001040,0.00000487,-0.03047338,0.00000895,-0.00000113,0
 .00431017,-0.00000004,0.,-0.00116827,-0.00000094,0.00000029,0.01687310
 \\-0.00036841,-0.00017047,-0.00000218,-0.00011241,0.00021317,-0.000009
 04,0.00011869,0.00014091,0.00002107,0.00014223,-0.00035445,-0.00002973
 ,0.00016190,0.00018759,0.00001512,0.00003256,-0.00002497,-0.00000110,0
 .00002545,0.00000821,0.00000587\\\@


 NOT WHAT WE DID SHALL BE THE TEST
 WHEN ACT AND WILL ARE DONE,
 BUT WHAT OUR LORD INFERS WE WOULD-
 HAD WE DIVINER BEEN.
           EMILY DICKINSON  POEMS NO. CLXXV
 Job cpu time:       0 days  0 hours 10 minutes  5.6 seconds.
 Elapsed time:       0 days  0 hours  0 minutes 30.4 seconds.
 File lengths (MBytes):  RWF=     23 Int=      0 D2E=      0 Chk=      2 Scr=      1
 Normal termination of Gaussian 16 at Sun Jul 23 00:54:40 2023.
