 Entering Gaussian System, Link 0=/opt/soft/g16b/g16/g16
 Initial command:
 /opt/soft/g16b/g16/l1.exe "/scratch/gongke2021/co2/Gau-10841.inp" -scrdir="/scratch/gongke2021/co2/"
 Entering Link 1 = /opt/soft/g16b/g16/l1.exe PID=     10842.
  
 Copyright (c) 1988,1990,1992,1993,1995,1998,2003,2009,2016,
            Gaussian, Inc.  All Rights Reserved.
  
 This is part of the Gaussian(R) 16 program.  It is based on
 the Gaussian(R) 09 system (copyright 2009, Gaussian, Inc.),
 the Gaussian(R) 03 system (copyright 2003, Gaussian, Inc.),
 the Gaussian(R) 98 system (copyright 1998, Gaussian, Inc.),
 the Gaussian(R) 94 system (copyright 1995, Gaussian, Inc.),
 the Gaussian 92(TM) system (copyright 1992, Gaussian, Inc.),
 the Gaussian 90(TM) system (copyright 1990, Gaussian, Inc.),
 the Gaussian 88(TM) system (copyright 1988, Gaussian, Inc.),
 the Gaussian 86(TM) system (copyright 1986, Carnegie Mellon
 University), and the Gaussian 82(TM) system (copyright 1983,
 Carnegie Mellon University). Gaussian is a federally registered
 trademark of Gaussian, Inc.
  
 This software contains proprietary and confidential information,
 including trade secrets, belonging to Gaussian, Inc.
  
 This software is provided under written license and may be
 used, copied, transmitted, or stored only in accord with that
 written license.
  
 The following legend is applicable only to US Government
 contracts under FAR:
  
                    RESTRICTED RIGHTS LEGEND
  
 Use, reproduction and disclosure by the US Government is
 subject to restrictions as set forth in subparagraphs (a)
 and (c) of the Commercial Computer Software - Restricted
 Rights clause in FAR 52.227-19.
  
 Gaussian, Inc.
 340 Quinnipiac St., Bldg. 40, Wallingford CT 06492
  
  
 ---------------------------------------------------------------
 Warning -- This program may not be used in any manner that
 competes with the business of Gaussian, Inc. or will provide
 assistance to any competitor of Gaussian, Inc.  The licensee
 of this program is prohibited from giving any competitor of
 Gaussian, Inc. access to this program.  By using this program,
 the user acknowledges that Gaussian, Inc. is engaged in the
 business of creating and licensing software in the field of
 computational chemistry and represents and warrants to the
 licensee that it is not a competitor of Gaussian, Inc. and that
 it will not use this program in any manner prohibited above.
 ---------------------------------------------------------------
  

 Cite this work as:
 Gaussian 16, Revision A.03,
 M. J. Frisch, G. W. Trucks, H. B. Schlegel, G. E. Scuseria, 
 M. A. Robb, J. R. Cheeseman, G. Scalmani, V. Barone, 
 G. A. Petersson, H. Nakatsuji, X. Li, M. Caricato, A. V. Marenich, 
 J. Bloino, B. G. Janesko, R. Gomperts, B. Mennucci, H. P. Hratchian, 
 J. V. Ortiz, A. F. Izmaylov, J. L. Sonnenberg, D. Williams-Young, 
 F. Ding, F. Lipparini, F. Egidi, J. Goings, B. Peng, A. Petrone, 
 T. Henderson, D. Ranasinghe, V. G. Zakrzewski, J. Gao, N. Rega, 
 G. Zheng, W. Liang, M. Hada, M. Ehara, K. Toyota, R. Fukuda, 
 J. Hasegawa, M. Ishida, T. Nakajima, Y. Honda, O. Kitao, H. Nakai, 
 T. Vreven, K. Throssell, J. A. Montgomery, Jr., J. E. Peralta, 
 F. Ogliaro, M. J. Bearpark, J. J. Heyd, E. N. Brothers, K. N. Kudin, 
 V. N. Staroverov, T. A. Keith, R. Kobayashi, J. Normand, 
 K. Raghavachari, A. P. Rendell, J. C. Burant, S. S. Iyengar, 
 J. Tomasi, M. Cossi, J. M. Millam, M. Klene, C. Adamo, R. Cammi, 
 J. W. Ochterski, R. L. Martin, K. Morokuma, O. Farkas, 
 J. B. Foresman, and D. J. Fox, Gaussian, Inc., Wallingford CT, 2016.
 
 ******************************************
 Gaussian 16:  ES64L-G16RevA.03 25-Dec-2016
                10-Mar-2023 
 ******************************************
 %mem=10GB
 %nprocshared=20
 Will use up to   20 processors via shared memory.
 ----------------------------
 # m062x/6-31+G(d,p) opt freq
 ----------------------------
 1/18=20,19=15,26=3,38=1/1,3;
 2/9=110,12=2,17=6,18=5,40=1/2;
 3/5=1,6=6,7=111,11=2,25=1,30=1,71=1,74=-55/1,2,3;
 4//1;
 5/5=2,38=5/2;
 6/7=2,8=2,9=2,10=2,28=1/1;
 7//1,2,3,16;
 1/18=20,19=15,26=3/3(2);
 2/9=110/2;
 99//99;
 2/9=110/2;
 3/5=1,6=6,7=111,11=2,25=1,30=1,71=1,74=-55/1,2,3;
 4/5=5,16=3,69=1/1;
 5/5=2,38=5/2;
 7//1,2,3,16;
 1/18=20,19=15,26=3/3(-5);
 2/9=110/2;
 6/7=2,8=2,9=2,10=2,19=2,28=1/1;
 99/9=1/99;
 ---------
 structure
 ---------
 Symbolic Z-matrix:
 Charge =  0 Multiplicity = 1
 C                    -2.62072   1.17589  -0.26093 
 O                    -1.19574   0.85372   0.12084 
 O                    -4.04523   1.49913  -0.64352 
 

 GradGradGradGradGradGradGradGradGradGradGradGradGradGradGradGradGradGrad
 Berny optimization.
 Initialization pass.
                           ----------------------------
                           !    Initial Parameters    !
                           ! (Angstroms and Degrees)  !
 --------------------------                            --------------------------
 ! Name  Definition              Value          Derivative Info.                !
 --------------------------------------------------------------------------------
 ! R1    R(1,2)                  1.51           estimate D2E/DX2                !
 ! R2    R(1,3)                  1.51           estimate D2E/DX2                !
 ! A1    L(2,1,3,-2,-1)        180.0361         estimate D2E/DX2                !
 ! A2    L(2,1,3,-3,-2)        180.0451         estimate D2E/DX2                !
 --------------------------------------------------------------------------------
 Trust Radius=3.00D-01 FncErr=1.00D-07 GrdErr=1.00D-06 EigMax=2.50D+02 EigMin=1.00D-04
 Number of steps in this run=     20 maximum allowed number of steps=    100.
 GradGradGradGradGradGradGradGradGradGradGradGradGradGradGradGradGradGrad

                          Input orientation:                          
 ---------------------------------------------------------------------
 Center     Atomic      Atomic             Coordinates (Angstroms)
 Number     Number       Type             X           Y           Z
 ---------------------------------------------------------------------
      1          6           0       -2.620720    1.175890   -0.260926
      2          8           0       -1.195740    0.853722    0.120836
      3          8           0       -4.045230    1.499130   -0.643524
 ---------------------------------------------------------------------
                    Distance matrix (angstroms):
                    1          2          3
     1  C    0.000000
     2  O    1.510001   0.000000
     3  O    1.509998   3.019999   0.000000
 Stoichiometry    CO2
 Framework group  C*V[C*(OCO)]
 Deg. of freedom     2
 Full point group                 C*V     NOp   4
 Largest Abelian subgroup         C2V     NOp   4
 Largest concise Abelian subgroup C1      NOp   1
                         Standard orientation:                         
 ---------------------------------------------------------------------
 Center     Atomic      Atomic             Coordinates (Angstroms)
 Number     Number       Type             X           Y           Z
 ---------------------------------------------------------------------
      1          6           0        0.000000   -0.000000   -0.000001
      2          8           0       -0.000000    0.000000    1.510000
      3          8           0        0.000000   -0.000000   -1.509999
 ---------------------------------------------------------------------
 Rotational constants (GHZ):           0.0000000           6.9287009           6.9287009
 Standard basis: 6-31+G(d,p) (6D, 7F)
 There are    30 symmetry adapted cartesian basis functions of A1  symmetry.
 There are     3 symmetry adapted cartesian basis functions of A2  symmetry.
 There are    12 symmetry adapted cartesian basis functions of B1  symmetry.
 There are    12 symmetry adapted cartesian basis functions of B2  symmetry.
 There are    30 symmetry adapted basis functions of A1  symmetry.
 There are     3 symmetry adapted basis functions of A2  symmetry.
 There are    12 symmetry adapted basis functions of B1  symmetry.
 There are    12 symmetry adapted basis functions of B2  symmetry.
    57 basis functions,    96 primitive gaussians,    57 cartesian basis functions
    11 alpha electrons       11 beta electrons
       nuclear repulsion energy        44.8574281992 Hartrees.
 NAtoms=    3 NActive=    3 NUniq=    3 SFac= 1.00D+00 NAtFMM=   60 NAOKFM=F Big=F
 Integral buffers will be    131072 words long.
 Raffenetti 2 integral format.
 Two-electron integral symmetry is turned on.
 One-electron integrals computed using PRISM.
 NBasis=    57 RedAO= T EigKep=  5.04D-03  NBF=    30     3    12    12
 NBsUse=    57 1.00D-06 EigRej= -1.00D+00 NBFU=    30     3    12    12
 ExpMin= 4.38D-02 ExpMax= 5.48D+03 ExpMxC= 8.25D+02 IAcc=3 IRadAn=         5 AccDes= 0.00D+00
 Harris functional with IExCor= 1009 and IRadAn=       5 diagonalized for initial guess.
 HarFok:  IExCor= 1009 AccDes= 0.00D+00 IRadAn=         5 IDoV= 1 UseB2=F ITyADJ=14
 ICtDFT=  3500011 ScaDFX=  1.000000  1.000000  1.000000  1.000000
 FoFCou: FMM=F IPFlag=           0 FMFlag=      100000 FMFlg1=           0
         NFxFlg=           0 DoJE=T BraDBF=F KetDBF=T FulRan=T
         wScrn=  0.000000 ICntrl=       500 IOpCl=  0 I1Cent=   200000004 NGrid=           0
         NMat0=    1 NMatS0=      1 NMatT0=    0 NMatD0=    1 NMtDS0=    0 NMtDT0=    0
 Petite list used in FoFCou.
 Initial guess orbital symmetries:
       Occupied  (SG) (SG) (SG) (SG) (SG) (SG) (SG) (PI) (PI) (PI)
                 (PI)
       Virtual   (SG) (PI) (PI) (SG) (SG) (PI) (PI) (SG) (PI) (PI)
                 (SG) (PI) (PI) (SG) (SG) (SG) (PI) (PI) (SG) (SG)
                 (PI) (PI) (SG) (PI) (PI) (SG) (PI) (PI) (SG) (DLTA)
                 (DLTA) (SG) (DLTA) (DLTA) (DLTA) (DLTA) (PI) (PI)
                 (SG) (PI) (PI) (SG) (SG) (SG) (SG) (SG)
 The electronic state of the initial guess is 1-SG.
 Keep R1 ints in memory in symmetry-blocked form, NReq=18979194.
 Requested convergence on RMS density matrix=1.00D-08 within 128 cycles.
 Requested convergence on MAX density matrix=1.00D-06.
 Requested convergence on             energy=1.00D-06.
 No special actions if energy rises.
 SCF Done:  E(RM062X) =  -188.266099105     A.U. after   11 cycles
            NFock= 11  Conv=0.92D-09     -V/T= 2.0156

 **********************************************************************

            Population analysis using the SCF density.

 **********************************************************************

 Orbital symmetries:
       Occupied  (SG) (SG) (SG) (SG) (SG) (SG) (SG) (PI) (PI) (PI)
                 (PI)
       Virtual   (PI) (PI) (SG) (SG) (SG) (PI) (PI) (SG) (PI) (PI)
                 (SG) (PI) (PI) (SG) (SG) (SG) (PI) (PI) (SG) (SG)
                 (PI) (PI) (SG) (PI) (PI) (SG) (PI) (PI) (SG) (DLTA)
                 (DLTA) (SG) (DLTA) (DLTA) (SG) (DLTA) (DLTA) (PI)
                 (PI) (PI) (PI) (SG) (SG) (SG) (SG) (SG)
 The electronic state is 1-SG.
 Alpha  occ. eigenvalues --  -19.79222 -19.79221 -10.86477  -1.16277  -1.13373
 Alpha  occ. eigenvalues --   -0.71045  -0.56289  -0.51504  -0.51504  -0.43886
 Alpha  occ. eigenvalues --   -0.43886
 Alpha virt. eigenvalues --   -0.10196  -0.10196  -0.09190   0.03844   0.05126
 Alpha virt. eigenvalues --    0.05926   0.05926   0.17144   0.20252   0.20252
 Alpha virt. eigenvalues --    0.22235   0.27399   0.27399   0.29508   0.29594
 Alpha virt. eigenvalues --    0.35404   0.64651   0.64651   0.91111   0.98759
 Alpha virt. eigenvalues --    1.09759   1.09759   1.21292   1.26588   1.26588
 Alpha virt. eigenvalues --    1.32138   1.40900   1.40900   1.47086   1.53470
 Alpha virt. eigenvalues --    1.53470   1.72021   1.79631   1.79632   1.84234
 Alpha virt. eigenvalues --    1.86582   1.86583   1.89419   1.89419   2.40874
 Alpha virt. eigenvalues --    2.40874   2.58724   2.95237   3.95431   4.21047
 Alpha virt. eigenvalues --    4.27594
          Condensed to atoms (all electrons):
               1          2          3
     1  C    4.766158   0.312084   0.312085
     2  O    0.312084   8.029486  -0.036734
     3  O    0.312085  -0.036734   8.029484
 Mulliken charges:
               1
     1  C    0.609672
     2  O   -0.304836
     3  O   -0.304836
 Sum of Mulliken charges =  -0.00000
 Mulliken charges with hydrogens summed into heavy atoms:
               1
     1  C    0.609672
     2  O   -0.304836
     3  O   -0.304836
 Electronic spatial extent (au):  <R**2>=            170.0905
 Charge=             -0.0000 electrons
 Dipole moment (field-independent basis, Debye):
    X=              0.0000    Y=             -0.0000    Z=             -0.0000  Tot=              0.0000
 Quadrupole moment (field-independent basis, Debye-Ang):
   XX=            -16.3970   YY=            -16.3970   ZZ=            -20.7553
   XY=             -0.0000   XZ=              0.0000   YZ=             -0.0000
 Traceless Quadrupole moment (field-independent basis, Debye-Ang):
   XX=              1.4528   YY=              1.4528   ZZ=             -2.9055
   XY=             -0.0000   XZ=              0.0000   YZ=             -0.0000
 Octapole moment (field-independent basis, Debye-Ang**2):
  XXX=              0.0000  YYY=              0.0000  ZZZ=             -0.0000  XYY=              0.0000
  XXY=              0.0000  XXZ=             -0.0000  XZZ=              0.0000  YZZ=              0.0000
  YYZ=             -0.0000  XYZ=             -0.0000
 Hexadecapole moment (field-independent basis, Debye-Ang**3):
 XXXX=            -14.7147 YYYY=            -14.7147 ZZZZ=           -162.4612 XXXY=             -0.0000
 XXXZ=              0.0000 YYYX=             -0.0000 YYYZ=             -0.0000 ZZZX=              0.0000
 ZZZY=             -0.0000 XXYY=             -4.9049 XXZZ=            -31.3644 YYZZ=            -31.3644
 XXYZ=             -0.0000 YYXZ=              0.0000 ZZXY=             -0.0000
 N-N= 4.485742819924D+01 E-N=-5.309781255470D+02  KE= 1.853699597045D+02
 Symmetry A1   KE= 1.685334385138D+02
 Symmetry A2   KE= 4.239451161425D-33
 Symmetry B1   KE= 8.418260595361D+00
 Symmetry B2   KE= 8.418260595361D+00
 Calling FoFJK, ICntrl=      2127 FMM=F ISym2X=1 I1Cent= 0 IOpClX= 0 NMat=1 NMatS=1 NMatT=0.
 ***** Axes restored to original set *****
 -------------------------------------------------------------------
 Center     Atomic                   Forces (Hartrees/Bohr)
 Number     Number              X              Y              Z
 -------------------------------------------------------------------
      1        6          -0.000000815    0.000000185   -0.000000219
      2        8          -0.237181794    0.053721553   -0.063622710
      3        8           0.237182610   -0.053721737    0.063622929
 -------------------------------------------------------------------
 Cartesian Forces:  Max     0.237182610 RMS     0.118499203

 GradGradGradGradGradGradGradGradGradGradGradGradGradGradGradGradGradGrad
 Berny optimization.
 FormGI is forming the generalized inverse of G from B-inverse, IUseBI=4.
 Internal  Forces:  Max     0.251375203 RMS     0.177748805
 Search for a local minimum.
 Step number   1 out of a maximum of   20
 All quantities printed in internal units (Hartrees-Bohrs-Radians)
 Mixed Optimization -- RFO/linear search
 Second derivative matrix not updated -- first step.
 The second derivative matrix:
                          R1        R2        A1        A2
           R1           0.31350
           R2           0.00000   0.31351
           A1           0.00000   0.00000   0.00237
           A2           0.00000   0.00000   0.00000   0.00237
 ITU=  0
     Eigenvalues ---    0.00237   0.00237   0.31350   0.31351
 RFO step:  Lambda=-2.31770118D-01 EMin= 2.36719523D-03
 Linear search not attempted -- first point.
 Maximum step size (   0.300) exceeded in Quadratic search.
    -- Step size scaled by   0.460
 Iteration  1 RMS(Cart)=  0.14142136 RMS(Int)=  0.00857864
 Iteration  2 RMS(Cart)=  0.00857864 RMS(Int)=  0.00000001
 SLEqS3 Cycle:    91 Max:0.304651E-11 RMS:0.146059E-11 Conv:0.113746E-13
 SLEqS3 Cycle:    91 Max:0.444338E-08 RMS:0.208737E-08 Conv:0.113746E-13
 Iteration  3 RMS(Cart)=  0.00000000 RMS(Int)=  0.00000001
 ClnCor:  largest displacement from symmetrization is 9.68D-09 for atom     1.
 Variable       Old X    -DE/DX   Delta X   Delta X   Delta X     New X
                                 (Linear)    (Quad)   (Total)
    R1        2.85349  -0.25137   0.00000  -0.21213  -0.21213   2.64136
    R2        2.85348  -0.25138   0.00000  -0.21213  -0.21213   2.64135
    A1        3.14159   0.00000   0.00000   0.00000   0.00000   3.14159
    A2        3.14159   0.00000   0.00000   0.00000   0.00000   3.14159
         Item               Value     Threshold  Converged?
 Maximum Force            0.251375     0.000450     NO 
 RMS     Force            0.177749     0.000300     NO 
 Maximum Displacement     0.200155     0.001800     NO 
 RMS     Displacement     0.150000     0.001200     NO 
 Predicted change in Energy=-9.254154D-02
 GradGradGradGradGradGradGradGradGradGradGradGradGradGradGradGradGradGrad

                          Input orientation:                          
 ---------------------------------------------------------------------
 Center     Atomic      Atomic             Coordinates (Angstroms)
 Number     Number       Type             X           Y           Z
 ---------------------------------------------------------------------
      1          6           0       -2.620550    1.176280   -0.261230
      2          8           0       -1.301721    0.877566    0.092538
      3          8           0       -3.939376    1.474993   -0.614998
 ---------------------------------------------------------------------
                    Distance matrix (angstroms):
                    1          2          3
     1  C    0.000000
     2  O    1.397745   0.000000
     3  O    1.397743   2.795488   0.000000
 Stoichiometry    CO2
 Framework group  C*V[C*(OCO)]
 Deg. of freedom     2
 Full point group                 C*V     NOp   4
 Largest Abelian subgroup         C2V     NOp   4
 Largest concise Abelian subgroup C1      NOp   1
                         Standard orientation:                         
 ---------------------------------------------------------------------
 Center     Atomic      Atomic             Coordinates (Angstroms)
 Number     Number       Type             X           Y           Z
 ---------------------------------------------------------------------
      1          6           0        0.000000   -0.000000   -0.000001
      2          8           0       -0.000000    0.000000    1.397744
      3          8           0        0.000000   -0.000000   -1.397743
 ---------------------------------------------------------------------
 Rotational constants (GHZ):           0.0000000           8.0863050           8.0863050
 Standard basis: 6-31+G(d,p) (6D, 7F)
 There are    30 symmetry adapted cartesian basis functions of A1  symmetry.
 There are     3 symmetry adapted cartesian basis functions of A2  symmetry.
 There are    12 symmetry adapted cartesian basis functions of B1  symmetry.
 There are    12 symmetry adapted cartesian basis functions of B2  symmetry.
 There are    30 symmetry adapted basis functions of A1  symmetry.
 There are     3 symmetry adapted basis functions of A2  symmetry.
 There are    12 symmetry adapted basis functions of B1  symmetry.
 There are    12 symmetry adapted basis functions of B2  symmetry.
    57 basis functions,    96 primitive gaussians,    57 cartesian basis functions
    11 alpha electrons       11 beta electrons
       nuclear repulsion energy        48.4600127472 Hartrees.
 NAtoms=    3 NActive=    3 NUniq=    3 SFac= 1.00D+00 NAtFMM=   60 NAOKFM=F Big=F
 Integral buffers will be    131072 words long.
 Raffenetti 2 integral format.
 Two-electron integral symmetry is turned on.
 One-electron integrals computed using PRISM.
 NBasis=    57 RedAO= T EigKep=  2.91D-03  NBF=    30     3    12    12
 NBsUse=    57 1.00D-06 EigRej= -1.00D+00 NBFU=    30     3    12    12
 Initial guess from the checkpoint file:  "/scratch/gongke2021/co2/Gau-10842.chk"
 B after Tr=     0.000000    0.000000    0.000000
         Rot=    1.000000   -0.000000   -0.000000    0.000000 Ang=   0.00 deg.
 Initial guess orbital symmetries:
       Occupied  (SG) (SG) (SG) (SG) (SG) (SG) (SG) (PI) (PI) (PI)
                 (PI)
       Virtual   (PI) (PI) (SG) (SG) (SG) (PI) (PI) (SG) (PI) (PI)
                 (SG) (PI) (PI) (SG) (SG) (SG) (PI) (PI) (SG) (SG)
                 (PI) (PI) (SG) (PI) (PI) (SG) (PI) (PI) (SG) (DLTA)
                 (DLTA) (SG) (DLTA) (DLTA) (SG) (DLTA) (DLTA) (PI)
                 (PI) (PI) (PI) (SG) (SG) (SG) (SG) (SG)
 ExpMin= 4.38D-02 ExpMax= 5.48D+03 ExpMxC= 8.25D+02 IAcc=2 IRadAn=         4 AccDes= 0.00D+00
 Harris functional with IExCor= 1009 and IRadAn=       4 diagonalized for initial guess.
 HarFok:  IExCor= 1009 AccDes= 0.00D+00 IRadAn=         4 IDoV= 1 UseB2=F ITyADJ=14
 ICtDFT=  3500011 ScaDFX=  1.000000  1.000000  1.000000  1.000000
 FoFCou: FMM=F IPFlag=           0 FMFlag=      100000 FMFlg1=           0
         NFxFlg=           0 DoJE=T BraDBF=F KetDBF=T FulRan=T
         wScrn=  0.000000 ICntrl=       500 IOpCl=  0 I1Cent=   200000004 NGrid=           0
         NMat0=    1 NMatS0=      1 NMatT0=    0 NMatD0=    1 NMtDS0=    0 NMtDT0=    0
 Petite list used in FoFCou.
 Keep R1 ints in memory in symmetry-blocked form, NReq=18979194.
 Requested convergence on RMS density matrix=1.00D-08 within 128 cycles.
 Requested convergence on MAX density matrix=1.00D-06.
 Requested convergence on             energy=1.00D-06.
 No special actions if energy rises.
 SCF Done:  E(RM062X) =  -188.372716004     A.U. after   10 cycles
            NFock= 10  Conv=0.34D-08     -V/T= 2.0149
 Calling FoFJK, ICntrl=      2127 FMM=F ISym2X=1 I1Cent= 0 IOpClX= 0 NMat=1 NMatS=1 NMatT=0.
 ***** Axes restored to original set *****
 -------------------------------------------------------------------
 Center     Atomic                   Forces (Hartrees/Bohr)
 Number     Number              X              Y              Z
 -------------------------------------------------------------------
      1        6          -0.000000013    0.000000003   -0.000000003
      2        8          -0.231283970    0.052385699   -0.062040651
      3        8           0.231283983   -0.052385702    0.062040655
 -------------------------------------------------------------------
 Cartesian Forces:  Max     0.231283983 RMS     0.115552376

 GradGradGradGradGradGradGradGradGradGradGradGradGradGradGradGradGradGrad
 Berny optimization.
 Using GEDIIS/GDIIS optimizer.
 Internal  Forces:  Max     0.245123613 RMS     0.173328564
 Search for a local minimum.
 Step number   2 out of a maximum of   20
 All quantities printed in internal units (Hartrees-Bohrs-Radians)
 Mixed Optimization -- RFO/linear search
 Update second derivatives using D2CorX and points    1    2
 DE= -1.07D-01 DEPred=-9.25D-02 R= 1.15D+00
 TightC=F SS=  1.41D+00  RLast= 3.00D-01 DXNew= 5.0454D-01 9.0000D-01
 Trust test= 1.15D+00 RLast= 3.00D-01 DXMaxT set to 5.05D-01
 The second derivative matrix:
                          R1        R2        A1        A2
           R1           0.17148
           R2          -0.14202   0.17149
           A1          -0.00000  -0.00000   0.00237
           A2           0.00000   0.00000  -0.00000   0.00237
 ITU=  1  0
 Use linear search instead of GDIIS.
     Eigenvalues ---    0.00237   0.00237   0.02947   0.31351
 RFO step:  Lambda=-3.32235972D-01 EMin= 2.36719523D-03
 Skip linear search -- no minimum in search direction.
 Maximum step size (   0.505) exceeded in Quadratic search.
    -- Step size scaled by   0.526
 Iteration  1 RMS(Cart)=  0.14142136 RMS(Int)=  0.11084757
 Iteration  2 RMS(Cart)=  0.11084757 RMS(Int)=  0.00000001
 SLEqS3 Cycle:    91 Max:0.203435E-07 RMS:0.105430E-07 Conv:0.195378E-13
 SLEqS3 Cycle:    91 Max:0.201038E-07 RMS:0.104509E-07 Conv:0.195378E-13
 Iteration  3 RMS(Cart)=  0.00000000 RMS(Int)=  0.00000002
 ClnCor:  largest displacement from symmetrization is 2.34D-08 for atom     1.
 Variable       Old X    -DE/DX   Delta X   Delta X   Delta X     New X
                                 (Linear)    (Quad)   (Total)
    R1        2.64136  -0.24512   0.00000  -0.35676  -0.35676   2.28459
    R2        2.64135  -0.24512   0.00000  -0.35676  -0.35676   2.28459
    A1        3.14159  -0.00000   0.00000  -0.00000   0.00000   3.14159
    A2        3.14159   0.00000   0.00000   0.00000   0.00000   3.14159
         Item               Value     Threshold  Converged?
 Maximum Force            0.245124     0.000450     NO 
 RMS     Force            0.173329     0.000300     NO 
 Maximum Displacement     0.336620     0.001800     NO 
 RMS     Displacement     0.252269     0.001200     NO 
 Predicted change in Energy=-1.711509D-01
 GradGradGradGradGradGradGradGradGradGradGradGradGradGradGradGradGradGrad

                          Input orientation:                          
 ---------------------------------------------------------------------
 Center     Atomic      Atomic             Coordinates (Angstroms)
 Number     Number       Type             X           Y           Z
 ---------------------------------------------------------------------
      1          6           0       -2.620550    1.176280   -0.261230
      2          8           0       -1.479853    0.917913    0.044755
      3          8           0       -3.761245    1.434647   -0.567215
 ---------------------------------------------------------------------
                    Distance matrix (angstroms):
                    1          2          3
     1  C    0.000000
     2  O    1.208954   0.000000
     3  O    1.208953   2.417907   0.000000
 Stoichiometry    CO2
 Framework group  C*V[C*(OCO)]
 Deg. of freedom     2
 Full point group                 C*V     NOp   4
 Largest Abelian subgroup         C2V     NOp   4
 Largest concise Abelian subgroup C1      NOp   1
                         Standard orientation:                         
 ---------------------------------------------------------------------
 Center     Atomic      Atomic             Coordinates (Angstroms)
 Number     Number       Type             X           Y           Z
 ---------------------------------------------------------------------
      1          6           0        0.000000    0.000000   -0.000000
      2          8           0       -0.000000   -0.000000    1.208954
      3          8           0        0.000000    0.000000   -1.208953
 ---------------------------------------------------------------------
 Rotational constants (GHZ):           0.0000000          10.8090155          10.8090155
 Standard basis: 6-31+G(d,p) (6D, 7F)
 There are    30 symmetry adapted cartesian basis functions of A1  symmetry.
 There are     3 symmetry adapted cartesian basis functions of A2  symmetry.
 There are    12 symmetry adapted cartesian basis functions of B1  symmetry.
 There are    12 symmetry adapted cartesian basis functions of B2  symmetry.
 There are    30 symmetry adapted basis functions of A1  symmetry.
 There are     3 symmetry adapted basis functions of A2  symmetry.
 There are    12 symmetry adapted basis functions of B1  symmetry.
 There are    12 symmetry adapted basis functions of B2  symmetry.
    57 basis functions,    96 primitive gaussians,    57 cartesian basis functions
    11 alpha electrons       11 beta electrons
       nuclear repulsion energy        56.0275373550 Hartrees.
 NAtoms=    3 NActive=    3 NUniq=    3 SFac= 1.00D+00 NAtFMM=   60 NAOKFM=F Big=F
 Integral buffers will be    131072 words long.
 Raffenetti 2 integral format.
 Two-electron integral symmetry is turned on.
 One-electron integrals computed using PRISM.
 NBasis=    57 RedAO= T EigKep=  1.21D-03  NBF=    30     3    12    12
 NBsUse=    57 1.00D-06 EigRej= -1.00D+00 NBFU=    30     3    12    12
 Initial guess from the checkpoint file:  "/scratch/gongke2021/co2/Gau-10842.chk"
 B after Tr=    -0.000000   -0.000000   -0.000000
         Rot=    1.000000   -0.000000   -0.000000   -0.000000 Ang=   0.00 deg.
 Initial guess orbital symmetries:
       Occupied  (SG) (SG) (SG) (SG) (SG) (SG) (SG) (PI) (PI) (PI)
                 (PI)
       Virtual   (PI) (PI) (SG) (SG) (PI) (PI) (SG) (SG) (PI) (PI)
                 (SG) (PI) (PI) (SG) (SG) (SG) (PI) (PI) (SG) (SG)
                 (PI) (PI) (SG) (PI) (PI) (SG) (PI) (PI) (SG) (DLTA)
                 (DLTA) (DLTA) (DLTA) (SG) (DLTA) (DLTA) (PI) (PI)
                 (SG) (PI) (PI) (SG) (SG) (SG) (SG) (SG)
 ExpMin= 4.38D-02 ExpMax= 5.48D+03 ExpMxC= 8.25D+02 IAcc=2 IRadAn=         4 AccDes= 0.00D+00
 Harris functional with IExCor= 1009 and IRadAn=       4 diagonalized for initial guess.
 HarFok:  IExCor= 1009 AccDes= 0.00D+00 IRadAn=         4 IDoV= 1 UseB2=F ITyADJ=14
 ICtDFT=  3500011 ScaDFX=  1.000000  1.000000  1.000000  1.000000
 FoFCou: FMM=F IPFlag=           0 FMFlag=      100000 FMFlg1=           0
         NFxFlg=           0 DoJE=T BraDBF=F KetDBF=T FulRan=T
         wScrn=  0.000000 ICntrl=       500 IOpCl=  0 I1Cent=   200000004 NGrid=           0
         NMat0=    1 NMatS0=      1 NMatT0=    0 NMatD0=    1 NMtDS0=    0 NMtDT0=    0
 Petite list used in FoFCou.
 Keep R1 ints in memory in symmetry-blocked form, NReq=18979194.
 Requested convergence on RMS density matrix=1.00D-08 within 128 cycles.
 Requested convergence on MAX density matrix=1.00D-06.
 Requested convergence on             energy=1.00D-06.
 No special actions if energy rises.
 SCF Done:  E(RM062X) =  -188.507763462     A.U. after   10 cycles
            NFock= 10  Conv=0.96D-08     -V/T= 2.0103
 Calling FoFJK, ICntrl=      2127 FMM=F ISym2X=1 I1Cent= 0 IOpClX= 0 NMat=1 NMatS=1 NMatT=0.
 ***** Axes restored to original set *****
 -------------------------------------------------------------------
 Center     Atomic                   Forces (Hartrees/Bohr)
 Number     Number              X              Y              Z
 -------------------------------------------------------------------
      1        6           0.000001563   -0.000000354    0.000000419
      2        8          -0.084941206    0.019239139   -0.022785011
      3        8           0.084939642   -0.019238785    0.022784591
 -------------------------------------------------------------------
 Cartesian Forces:  Max     0.084941206 RMS     0.042437301

 GradGradGradGradGradGradGradGradGradGradGradGradGradGradGradGradGradGrad
 Berny optimization.
 Using GEDIIS/GDIIS optimizer.
 Internal  Forces:  Max     0.090023939 RMS     0.063655952
 Search for a local minimum.
 Step number   3 out of a maximum of   20
 All quantities printed in internal units (Hartrees-Bohrs-Radians)
 Mixed Optimization -- RFO/linear search
 Update second derivatives using D2CorX and points    2    3
 DE= -1.35D-01 DEPred=-1.71D-01 R= 7.89D-01
 TightC=F SS=  1.41D+00  RLast= 5.05D-01 DXNew= 8.4853D-01 1.5136D+00
 Trust test= 7.89D-01 RLast= 5.05D-01 DXMaxT set to 8.49D-01
 The second derivative matrix:
                          R1        R2        A1        A2
           R1           0.37412
           R2           0.06062   0.37413
           A1           0.00000   0.00000   0.00237
           A2          -0.00000  -0.00000   0.00000   0.00237
 ITU=  1  1  0
 Use linear search instead of GDIIS.
     Eigenvalues ---    0.00237   0.00237   0.31351   0.43474
 RFO step:  Lambda= 0.00000000D+00 EMin= 2.36719523D-03
 Quartic linear search produced a step of  0.25360.
 Iteration  1 RMS(Cart)=  0.06397547 RMS(Int)=  0.00000002
 SLEqS3 Cycle:    91 Max:0.389089E-07 RMS:0.161920E-07 Conv:0.390186E-13
 Iteration  2 RMS(Cart)=  0.00000002 RMS(Int)=  0.00000001
 ClnCor:  largest displacement from symmetrization is 9.01D-07 for atom     1.
 Variable       Old X    -DE/DX   Delta X   Delta X   Delta X     New X
                                 (Linear)    (Quad)   (Total)
    R1        2.28459  -0.09002  -0.09048  -0.00000  -0.09048   2.19411
    R2        2.28459  -0.09002  -0.09047   0.00000  -0.09047   2.19412
    A1        3.14159  -0.00000   0.00000  -0.00000  -0.00000   3.14159
    A2        3.14159  -0.00000   0.00000  -0.00000   0.00000   3.14159
         Item               Value     Threshold  Converged?
 Maximum Force            0.090024     0.000450     NO 
 RMS     Force            0.063656     0.000300     NO 
 Maximum Displacement     0.085368     0.001800     NO 
 RMS     Displacement     0.063975     0.001200     NO 
 Predicted change in Energy=-1.273098D-02
 GradGradGradGradGradGradGradGradGradGradGradGradGradGradGradGradGradGrad

                          Input orientation:                          
 ---------------------------------------------------------------------
 Center     Atomic      Atomic             Coordinates (Angstroms)
 Number     Number       Type             X           Y           Z
 ---------------------------------------------------------------------
      1          6           0       -2.620549    1.176280   -0.261230
      2          8           0       -1.525027    0.928145    0.032638
      3          8           0       -3.716071    1.424415   -0.555098
 ---------------------------------------------------------------------
                    Distance matrix (angstroms):
                    1          2          3
     1  C    0.000000
     2  O    1.161075   0.000000
     3  O    1.161077   2.322152   0.000000
 Stoichiometry    CO2
 Framework group  C*V[C*(OCO)]
 Deg. of freedom     2
 Full point group                 C*V     NOp   4
 Largest Abelian subgroup         C2V     NOp   4
 Largest concise Abelian subgroup C1      NOp   1
                         Standard orientation:                         
 ---------------------------------------------------------------------
 Center     Atomic      Atomic             Coordinates (Angstroms)
 Number     Number       Type             X           Y           Z
 ---------------------------------------------------------------------
      1          6           0        0.000000   -0.000000    0.000001
      2          8           0        0.000000   -0.000000    1.161076
      3          8           0       -0.000000    0.000000   -1.161076
 ---------------------------------------------------------------------
 Rotational constants (GHZ):           0.0000000          11.7188201          11.7188201
 Standard basis: 6-31+G(d,p) (6D, 7F)
 There are    30 symmetry adapted cartesian basis functions of A1  symmetry.
 There are     3 symmetry adapted cartesian basis functions of A2  symmetry.
 There are    12 symmetry adapted cartesian basis functions of B1  symmetry.
 There are    12 symmetry adapted cartesian basis functions of B2  symmetry.
 There are    30 symmetry adapted basis functions of A1  symmetry.
 There are     3 symmetry adapted basis functions of A2  symmetry.
 There are    12 symmetry adapted basis functions of B1  symmetry.
 There are    12 symmetry adapted basis functions of B2  symmetry.
    57 basis functions,    96 primitive gaussians,    57 cartesian basis functions
    11 alpha electrons       11 beta electrons
       nuclear repulsion energy        58.3378483124 Hartrees.
 NAtoms=    3 NActive=    3 NUniq=    3 SFac= 1.00D+00 NAtFMM=   60 NAOKFM=F Big=F
 Integral buffers will be    131072 words long.
 Raffenetti 2 integral format.
 Two-electron integral symmetry is turned on.
 One-electron integrals computed using PRISM.
 NBasis=    57 RedAO= T EigKep=  1.01D-03  NBF=    30     3    12    12
 NBsUse=    57 1.00D-06 EigRej= -1.00D+00 NBFU=    30     3    12    12
 Initial guess from the checkpoint file:  "/scratch/gongke2021/co2/Gau-10842.chk"
 B after Tr=     0.000000    0.000000    0.000000
         Rot=    1.000000    0.000000   -0.000000    0.000000 Ang=   0.00 deg.
 Initial guess orbital symmetries:
       Occupied  (SG) (SG) (SG) (SG) (SG) (SG) (SG) (PI) (PI) (PI)
                 (PI)
       Virtual   (SG) (PI) (PI) (SG) (PI) (PI) (SG) (SG) (PI) (PI)
                 (SG) (PI) (PI) (SG) (SG) (PI) (PI) (SG) (SG) (SG)
                 (PI) (PI) (SG) (PI) (PI) (SG) (DLTA) (DLTA) (PI)
                 (PI) (SG) (DLTA) (DLTA) (DLTA) (DLTA) (SG) (PI)
                 (PI) (SG) (PI) (PI) (SG) (SG) (SG) (SG) (SG)
 ExpMin= 4.38D-02 ExpMax= 5.48D+03 ExpMxC= 8.25D+02 IAcc=2 IRadAn=         4 AccDes= 0.00D+00
 Harris functional with IExCor= 1009 and IRadAn=       4 diagonalized for initial guess.
 HarFok:  IExCor= 1009 AccDes= 0.00D+00 IRadAn=         4 IDoV= 1 UseB2=F ITyADJ=14
 ICtDFT=  3500011 ScaDFX=  1.000000  1.000000  1.000000  1.000000
 FoFCou: FMM=F IPFlag=           0 FMFlag=      100000 FMFlg1=           0
         NFxFlg=           0 DoJE=T BraDBF=F KetDBF=T FulRan=T
         wScrn=  0.000000 ICntrl=       500 IOpCl=  0 I1Cent=   200000004 NGrid=           0
         NMat0=    1 NMatS0=      1 NMatT0=    0 NMatD0=    1 NMtDS0=    0 NMtDT0=    0
 Petite list used in FoFCou.
 Keep R1 ints in memory in symmetry-blocked form, NReq=18979194.
 Requested convergence on RMS density matrix=1.00D-08 within 128 cycles.
 Requested convergence on MAX density matrix=1.00D-06.
 Requested convergence on             energy=1.00D-06.
 No special actions if energy rises.
 SCF Done:  E(RM062X) =  -188.516026235     A.U. after   10 cycles
            NFock= 10  Conv=0.48D-09     -V/T= 2.0081
 Calling FoFJK, ICntrl=      2127 FMM=F ISym2X=1 I1Cent= 0 IOpClX= 0 NMat=1 NMatS=1 NMatT=0.
 ***** Axes restored to original set *****
 -------------------------------------------------------------------
 Center     Atomic                   Forces (Hartrees/Bohr)
 Number     Number              X              Y              Z
 -------------------------------------------------------------------
      1        6          -0.000003570    0.000000809   -0.000000958
      2        8           0.003709045   -0.000840097    0.000994931
      3        8          -0.003705475    0.000839288   -0.000993973
 -------------------------------------------------------------------
 Cartesian Forces:  Max     0.003709045 RMS     0.001852194

 GradGradGradGradGradGradGradGradGradGradGradGradGradGradGradGradGradGrad
 Berny optimization.
 Using GEDIIS/GDIIS optimizer.
 Internal  Forces:  Max     0.003930988 RMS     0.002778291
 Search for a local minimum.
 Step number   4 out of a maximum of   20
 All quantities printed in internal units (Hartrees-Bohrs-Radians)
 Mixed Optimization -- RFO/linear search
 Update second derivatives using D2CorX and points    3    4
 DE= -8.26D-03 DEPred=-1.27D-02 R= 6.49D-01
 TightC=F SS=  1.41D+00  RLast= 1.28D-01 DXNew= 1.4270D+00 3.8385D-01
 Trust test= 6.49D-01 RLast= 1.28D-01 DXMaxT set to 8.49D-01
 The second derivative matrix:
                          R1        R2        A1        A2
           R1           0.67599
           R2           0.36246   0.67595
           A1          -0.00000   0.00000   0.00237
           A2          -0.00000  -0.00000   0.00000   0.00237
 ITU=  1  1  1  0
 Use linear search instead of GDIIS.
     Eigenvalues ---    0.00237   0.00237   0.31351   1.03843
 RFO step:  Lambda= 0.00000000D+00 EMin= 2.36719523D-03
 Quartic linear search produced a step of -0.03589.
 Iteration  1 RMS(Cart)=  0.00229602 RMS(Int)=  0.00000000
 Iteration  2 RMS(Cart)=  0.00000000 RMS(Int)=  0.00000001
 ClnCor:  largest displacement from symmetrization is 6.88D-11 for atom     1.
 Variable       Old X    -DE/DX   Delta X   Delta X   Delta X     New X
                                 (Linear)    (Quad)   (Total)
    R1        2.19411   0.00393   0.00325   0.00001   0.00325   2.19737
    R2        2.19412   0.00393   0.00325  -0.00001   0.00324   2.19736
    A1        3.14159  -0.00000   0.00000  -0.00000  -0.00000   3.14159
    A2        3.14159  -0.00000   0.00000  -0.00000  -0.00000   3.14159
         Item               Value     Threshold  Converged?
 Maximum Force            0.003931     0.000450     NO 
 RMS     Force            0.002778     0.000300     NO 
 Maximum Displacement     0.003066     0.001800     NO 
 RMS     Displacement     0.002296     0.001200     NO 
 Predicted change in Energy=-1.456743D-05
 GradGradGradGradGradGradGradGradGradGradGradGradGradGradGradGradGradGrad

                          Input orientation:                          
 ---------------------------------------------------------------------
 Center     Atomic      Atomic             Coordinates (Angstroms)
 Number     Number       Type             X           Y           Z
 ---------------------------------------------------------------------
      1          6           0       -2.620550    1.176280   -0.261230
      2          8           0       -1.523405    0.927777    0.033073
      3          8           0       -3.717692    1.424782   -0.555532
 ---------------------------------------------------------------------
                    Distance matrix (angstroms):
                    1          2          3
     1  C    0.000000
     2  O    1.162796   0.000000
     3  O    1.162792   2.325589   0.000000
 Stoichiometry    CO2
 Framework group  C*V[C*(OCO)]
 Deg. of freedom     2
 Full point group                 C*V     NOp   4
 Largest Abelian subgroup         C2V     NOp   4
 Largest concise Abelian subgroup C1      NOp   1
                         Standard orientation:                         
 ---------------------------------------------------------------------
 Center     Atomic      Atomic             Coordinates (Angstroms)
 Number     Number       Type             X           Y           Z
 ---------------------------------------------------------------------
      1          6           0        0.000000   -0.000000   -0.000002
      2          8           0        0.000000    0.000000    1.162795
      3          8           0        0.000000   -0.000000   -1.162794
 ---------------------------------------------------------------------
 Rotational constants (GHZ):           0.0000000          11.6842116          11.6842116
 Standard basis: 6-31+G(d,p) (6D, 7F)
 There are    30 symmetry adapted cartesian basis functions of A1  symmetry.
 There are     3 symmetry adapted cartesian basis functions of A2  symmetry.
 There are    12 symmetry adapted cartesian basis functions of B1  symmetry.
 There are    12 symmetry adapted cartesian basis functions of B2  symmetry.
 There are    30 symmetry adapted basis functions of A1  symmetry.
 There are     3 symmetry adapted basis functions of A2  symmetry.
 There are    12 symmetry adapted basis functions of B1  symmetry.
 There are    12 symmetry adapted basis functions of B2  symmetry.
    57 basis functions,    96 primitive gaussians,    57 cartesian basis functions
    11 alpha electrons       11 beta electrons
       nuclear repulsion energy        58.2516418261 Hartrees.
 NAtoms=    3 NActive=    3 NUniq=    3 SFac= 1.00D+00 NAtFMM=   60 NAOKFM=F Big=F
 Integral buffers will be    131072 words long.
 Raffenetti 2 integral format.
 Two-electron integral symmetry is turned on.
 One-electron integrals computed using PRISM.
 NBasis=    57 RedAO= T EigKep=  1.01D-03  NBF=    30     3    12    12
 NBsUse=    57 1.00D-06 EigRej= -1.00D+00 NBFU=    30     3    12    12
 Initial guess from the checkpoint file:  "/scratch/gongke2021/co2/Gau-10842.chk"
 B after Tr=    -0.000000   -0.000000   -0.000000
         Rot=    1.000000    0.000000    0.000000   -0.000000 Ang=   0.00 deg.
 Initial guess orbital symmetries:
       Occupied  (SG) (SG) (SG) (SG) (SG) (SG) (SG) (PI) (PI) (PI)
                 (PI)
       Virtual   (SG) (PI) (PI) (SG) (PI) (PI) (SG) (SG) (PI) (PI)
                 (SG) (PI) (PI) (SG) (SG) (PI) (PI) (SG) (SG) (SG)
                 (PI) (PI) (SG) (PI) (PI) (SG) (DLTA) (DLTA) (PI)
                 (PI) (SG) (DLTA) (DLTA) (DLTA) (DLTA) (SG) (PI)
                 (PI) (SG) (PI) (PI) (SG) (SG) (SG) (SG) (SG)
 Keep R1 ints in memory in symmetry-blocked form, NReq=18979194.
 Requested convergence on RMS density matrix=1.00D-08 within 128 cycles.
 Requested convergence on MAX density matrix=1.00D-06.
 Requested convergence on             energy=1.00D-06.
 No special actions if energy rises.
 SCF Done:  E(RM062X) =  -188.516038939     A.U. after    8 cycles
            NFock=  8  Conv=0.27D-08     -V/T= 2.0081
 Calling FoFJK, ICntrl=      2127 FMM=F ISym2X=1 I1Cent= 0 IOpClX= 0 NMat=1 NMatS=1 NMatT=0.
 ***** Axes restored to original set *****
 -------------------------------------------------------------------
 Center     Atomic                   Forces (Hartrees/Bohr)
 Number     Number              X              Y              Z
 -------------------------------------------------------------------
      1        6           0.000007370   -0.000001669    0.000001977
      2        8          -0.000012092    0.000002739   -0.000003244
      3        8           0.000004722   -0.000001070    0.000001267
 -------------------------------------------------------------------
 Cartesian Forces:  Max     0.000012092 RMS     0.000005274

 GradGradGradGradGradGradGradGradGradGradGradGradGradGradGradGradGradGrad
 Berny optimization.
 Using GEDIIS/GDIIS optimizer.
 Internal  Forces:  Max     0.000012816 RMS     0.000006879
 Search for a local minimum.
 Step number   5 out of a maximum of   20
 All quantities printed in internal units (Hartrees-Bohrs-Radians)
 Mixed Optimization -- En-DIIS/RFO-DIIS
 Update second derivatives using D2CorX and points    3    4    5
 DE= -1.27D-05 DEPred=-1.46D-05 R= 8.72D-01
 TightC=F SS=  1.41D+00  RLast= 4.59D-03 DXNew= 1.4270D+00 1.3776D-02
 Trust test= 8.72D-01 RLast= 4.59D-03 DXMaxT set to 8.49D-01
 The second derivative matrix:
                          R1        R2        A1        A2
           R1           0.76438
           R2           0.44964   0.76192
           A1           0.00000   0.00000   0.00237
           A2          -0.00000  -0.00000   0.00000   0.00237
 ITU=  1  1  1  1  0
 Use linear search instead of GDIIS.
     Eigenvalues ---    0.00237   0.00237   0.31351   1.21279
 RFO step:  Lambda= 0.00000000D+00 EMin= 2.36719523D-03
 Quartic linear search produced a step of -0.00228.
 Iteration  1 RMS(Cart)=  0.00000728 RMS(Int)=  0.00000001
 Iteration  2 RMS(Cart)=  0.00000001 RMS(Int)=  0.00000000
 ClnCor:  largest displacement from symmetrization is 1.49D-08 for atom     1.
 Variable       Old X    -DE/DX   Delta X   Delta X   Delta X     New X
                                 (Linear)    (Quad)   (Total)
    R1        2.19737  -0.00001  -0.00001  -0.00001  -0.00002   2.19735
    R2        2.19736  -0.00001  -0.00001   0.00001   0.00001   2.19736
    A1        3.14159  -0.00000   0.00000   0.00000   0.00000   3.14159
    A2        3.14159  -0.00000   0.00000  -0.00000  -0.00000   3.14159
         Item               Value     Threshold  Converged?
 Maximum Force            0.000013     0.000450     YES
 RMS     Force            0.000007     0.000300     YES
 Maximum Displacement     0.000011     0.001800     YES
 RMS     Displacement     0.000007     0.001200     YES
 Predicted change in Energy=-1.138900D-10
 Optimization completed.
    -- Stationary point found.
                           ----------------------------
                           !   Optimized Parameters   !
                           ! (Angstroms and Degrees)  !
 --------------------------                            --------------------------
 ! Name  Definition              Value          Derivative Info.                !
 --------------------------------------------------------------------------------
 ! R1    R(1,2)                  1.1628         -DE/DX =    0.0                 !
 ! R2    R(1,3)                  1.1628         -DE/DX =    0.0                 !
 ! A1    L(2,1,3,-2,-1)        180.0            -DE/DX =    0.0                 !
 ! A2    L(2,1,3,-3,-2)        180.0            -DE/DX =    0.0                 !
 --------------------------------------------------------------------------------
 GradGradGradGradGradGradGradGradGradGradGradGradGradGradGradGradGradGrad

                          Input orientation:                          
 ---------------------------------------------------------------------
 Center     Atomic      Atomic             Coordinates (Angstroms)
 Number     Number       Type             X           Y           Z
 ---------------------------------------------------------------------
      1          6           0       -2.620550    1.176280   -0.261230
      2          8           0       -1.523405    0.927777    0.033073
      3          8           0       -3.717692    1.424782   -0.555532
 ---------------------------------------------------------------------
                    Distance matrix (angstroms):
                    1          2          3
     1  C    0.000000
     2  O    1.162796   0.000000
     3  O    1.162792   2.325589   0.000000
 Stoichiometry    CO2
 Framework group  C*V[C*(OCO)]
 Deg. of freedom     2
 Full point group                 C*V     NOp   4
 Largest Abelian subgroup         C2V     NOp   4
 Largest concise Abelian subgroup C1      NOp   1
                         Standard orientation:                         
 ---------------------------------------------------------------------
 Center     Atomic      Atomic             Coordinates (Angstroms)
 Number     Number       Type             X           Y           Z
 ---------------------------------------------------------------------
      1          6           0        0.000000   -0.000000   -0.000002
      2          8           0       -0.000000    0.000000    1.162795
      3          8           0        0.000000   -0.000000   -1.162794
 ---------------------------------------------------------------------
 Rotational constants (GHZ):           0.0000000          11.6842116          11.6842116

 **********************************************************************

            Population analysis using the SCF density.

 **********************************************************************

 Orbital symmetries:
       Occupied  (SG) (SG) (SG) (SG) (SG) (SG) (SG) (PI) (PI) (PI)
                 (PI)
       Virtual   (SG) (PI) (PI) (SG) (PI) (PI) (SG) (SG) (PI) (PI)
                 (SG) (PI) (PI) (SG) (SG) (PI) (PI) (SG) (SG) (SG)
                 (PI) (PI) (SG) (PI) (PI) (SG) (DLTA) (DLTA) (PI)
                 (PI) (SG) (DLTA) (DLTA) (DLTA) (DLTA) (SG) (PI)
                 (PI) (SG) (PI) (PI) (SG) (SG) (SG) (SG) (SG)
 The electronic state is 1-SG.
 Alpha  occ. eigenvalues --  -19.73956 -19.73955 -10.75893  -1.30165  -1.25118
 Alpha  occ. eigenvalues --   -0.66469  -0.61234  -0.61099  -0.61099  -0.45117
 Alpha  occ. eigenvalues --   -0.45117
 Alpha virt. eigenvalues --   -0.00186   0.04751   0.04751   0.05387   0.07841
 Alpha virt. eigenvalues --    0.07841   0.16185   0.19655   0.20762   0.20762
 Alpha virt. eigenvalues --    0.25271   0.28220   0.28220   0.32058   0.38383
 Alpha virt. eigenvalues --    0.70859   0.70859   0.76463   0.96130   1.07107
 Alpha virt. eigenvalues --    1.17156   1.17156   1.17674   1.29406   1.29406
 Alpha virt. eigenvalues --    1.36304   1.42653   1.42653   1.47746   1.47746
 Alpha virt. eigenvalues --    1.50474   1.77153   1.77153   2.07474   2.07474
 Alpha virt. eigenvalues --    2.13621   2.18432   2.18432   2.87154   3.02970
 Alpha virt. eigenvalues --    3.02970   3.31159   3.33811   4.03969   4.61606
 Alpha virt. eigenvalues --    4.80569
          Condensed to atoms (all electrons):
               1          2          3
     1  C    4.446167   0.406792   0.406793
     2  O    0.406792   8.068138  -0.104804
     3  O    0.406793  -0.104804   8.068133
 Mulliken charges:
               1
     1  C    0.740248
     2  O   -0.370126
     3  O   -0.370122
 Sum of Mulliken charges =  -0.00000
 Mulliken charges with hydrogens summed into heavy atoms:
               1
     1  C    0.740248
     2  O   -0.370126
     3  O   -0.370122
 Electronic spatial extent (au):  <R**2>=            113.9859
 Charge=             -0.0000 electrons
 Dipole moment (field-independent basis, Debye):
    X=             -0.0000    Y=             -0.0000    Z=             -0.0000  Tot=              0.0000
 Quadrupole moment (field-independent basis, Debye-Ang):
   XX=            -14.8512   YY=            -14.8512   ZZ=            -19.7026
   XY=              0.0000   XZ=              0.0000   YZ=              0.0000
 Traceless Quadrupole moment (field-independent basis, Debye-Ang):
   XX=              1.6171   YY=              1.6171   ZZ=             -3.2342
   XY=              0.0000   XZ=              0.0000   YZ=              0.0000
 Octapole moment (field-independent basis, Debye-Ang**2):
  XXX=             -0.0000  YYY=              0.0000  ZZZ=             -0.0000  XYY=             -0.0000
  XXY=              0.0000  XXZ=             -0.0000  XZZ=             -0.0000  YZZ=             -0.0000
  YYZ=             -0.0000  XYZ=              0.0000
 Hexadecapole moment (field-independent basis, Debye-Ang**3):
 XXXX=            -11.7728 YYYY=            -11.7728 ZZZZ=           -104.9074 XXXY=              0.0000
 XXXZ=              0.0000 YYYX=              0.0000 YYYZ=              0.0000 ZZZX=              0.0000
 ZZZY=              0.0000 XXYY=             -3.9243 XXZZ=            -19.2619 YYZZ=            -19.2619
 XXYZ=              0.0000 YYXZ=              0.0000 ZZXY=              0.0000
 N-N= 5.825164182607D+01 E-N=-5.591694237611D+02  KE= 1.869922295755D+02
 Symmetry A1   KE= 1.701464351763D+02
 Symmetry A2   KE= 2.932273787110D-31
 Symmetry B1   KE= 8.422897199572D+00
 Symmetry B2   KE= 8.422897199572D+00
 1\1\GINC-NODE2\FOpt\RM062X\6-31+G(d,p)\C1O2\ROOT\10-Mar-2023\0\\# m062
 x/6-31+G(d,p) opt freq\\structure\\0,1\C,-2.6205504703,1.1762801306,-0
 .26123037\O,-1.5234052545,0.9277773111,0.0330727919\O,-3.7176917858,1.
 4247820667,-0.5555324857\\Version=ES64L-G16RevA.03\State=1-SG\HF=-188.
 5160389\RMSD=2.685e-09\RMSF=5.274e-06\Dipole=-0.0000098,0.0000022,-0.0
 000026\Quadrupole=-2.0087952,1.037557,0.9712381,0.7273096,-0.8613565,0
 .1950968\PG=C*V [C*(O1C1O1)]\\@



 IN THIS SHORT LIFE

 THAT ONLY LASTS AN HOUR

 HOW MUCH, HOW LITTLE, IS WITHIN OUR POWER....


 EMILY DICKINSON BOLTS OF MELODY NO. 521
 Job cpu time:       0 days  0 hours  2 minutes 28.3 seconds.
 Elapsed time:       0 days  0 hours  0 minutes  8.9 seconds.
 File lengths (MBytes):  RWF=      6 Int=      0 D2E=      0 Chk=      1 Scr=      1
 Normal termination of Gaussian 16 at Fri Mar 10 01:42:22 2023.
 Link1:  Proceeding to internal job step number  2.
 ----------------------------------------------------------------------
 #N Geom=AllCheck Guess=TCheck SCRF=Check GenChk RM062X/6-31+G(d,p) Fre
 q
 ----------------------------------------------------------------------
 1/10=4,29=7,30=1,38=1,40=1/1,3;
 2/12=2,40=1/2;
 3/5=1,6=6,7=111,11=2,14=-4,25=1,30=1,70=2,71=2,74=-55,116=1,140=1/1,2,3;
 4/5=101/1;
 5/5=2,38=6,98=1/2;
 8/6=4,10=90,11=11/1;
 11/6=1,8=1,9=11,15=111,16=1/1,2,10;
 10/6=1/2;
 6/7=2,8=2,9=2,10=2,28=1/1;
 7/8=1,10=1,25=1/1,2,3,16;
 1/10=4,30=1/3;
 99//99;
 Structure from the checkpoint file:  "/scratch/gongke2021/co2/Gau-10842.chk"
 ---------
 structure
 ---------
 Charge =  0 Multiplicity = 1
 Redundant internal coordinates found in file.  (old form).
 C,0,-2.6205504703,1.1762801306,-0.26123037
 O,0,-1.5234052545,0.9277773111,0.0330727919
 O,0,-3.7176917858,1.4247820667,-0.5555324857
 Recover connectivity data from disk.

 GradGradGradGradGradGradGradGradGradGradGradGradGradGradGradGradGradGrad
 Berny optimization.
 Initialization pass.
                           ----------------------------
                           !    Initial Parameters    !
                           ! (Angstroms and Degrees)  !
 --------------------------                            --------------------------
 ! Name  Definition              Value          Derivative Info.                !
 --------------------------------------------------------------------------------
 ! R1    R(1,2)                  1.1628         calculate D2E/DX2 analytically  !
 ! R2    R(1,3)                  1.1628         calculate D2E/DX2 analytically  !
 ! A1    L(2,1,3,-2,-1)        180.0            calculate D2E/DX2 analytically  !
 ! A2    L(2,1,3,-3,-2)        180.0            calculate D2E/DX2 analytically  !
 --------------------------------------------------------------------------------
 Trust Radius=3.00D-01 FncErr=1.00D-07 GrdErr=1.00D-07 EigMax=2.50D+02 EigMin=1.00D-04
 Number of steps in this run=      2 maximum allowed number of steps=      2.
 GradGradGradGradGradGradGradGradGradGradGradGradGradGradGradGradGradGrad

                          Input orientation:                          
 ---------------------------------------------------------------------
 Center     Atomic      Atomic             Coordinates (Angstroms)
 Number     Number       Type             X           Y           Z
 ---------------------------------------------------------------------
      1          6           0       -2.620550    1.176280   -0.261230
      2          8           0       -1.523405    0.927777    0.033073
      3          8           0       -3.717692    1.424782   -0.555532
 ---------------------------------------------------------------------
                    Distance matrix (angstroms):
                    1          2          3
     1  C    0.000000
     2  O    1.162796   0.000000
     3  O    1.162792   2.325589   0.000000
 Stoichiometry    CO2
 Framework group  C*V[C*(OCO)]
 Deg. of freedom     2
 Full point group                 C*V     NOp   4
 Largest Abelian subgroup         C2V     NOp   4
 Largest concise Abelian subgroup C1      NOp   1
                         Standard orientation:                         
 ---------------------------------------------------------------------
 Center     Atomic      Atomic             Coordinates (Angstroms)
 Number     Number       Type             X           Y           Z
 ---------------------------------------------------------------------
      1          6           0       -0.000000   -0.000000   -0.000002
      2          8           0        0.000000    0.000000    1.162795
      3          8           0       -0.000000   -0.000000   -1.162794
 ---------------------------------------------------------------------
 Rotational constants (GHZ):           0.0000000          11.6842116          11.6842116
 Standard basis: 6-31+G(d,p) (6D, 7F)
 There are    30 symmetry adapted cartesian basis functions of A1  symmetry.
 There are     3 symmetry adapted cartesian basis functions of A2  symmetry.
 There are    12 symmetry adapted cartesian basis functions of B1  symmetry.
 There are    12 symmetry adapted cartesian basis functions of B2  symmetry.
 There are    30 symmetry adapted basis functions of A1  symmetry.
 There are     3 symmetry adapted basis functions of A2  symmetry.
 There are    12 symmetry adapted basis functions of B1  symmetry.
 There are    12 symmetry adapted basis functions of B2  symmetry.
    57 basis functions,    96 primitive gaussians,    57 cartesian basis functions
    11 alpha electrons       11 beta electrons
       nuclear repulsion energy        58.2516418261 Hartrees.
 NAtoms=    3 NActive=    3 NUniq=    3 SFac= 1.00D+00 NAtFMM=   60 NAOKFM=F Big=F
 Integral buffers will be    131072 words long.
 Raffenetti 2 integral format.
 Two-electron integral symmetry is turned on.
 One-electron integrals computed using PRISM.
 NBasis=    57 RedAO= T EigKep=  1.01D-03  NBF=    30     3    12    12
 NBsUse=    57 1.00D-06 EigRej= -1.00D+00 NBFU=    30     3    12    12
 Initial guess from the checkpoint file:  "/scratch/gongke2021/co2/Gau-10842.chk"
 B after Tr=    -0.000000    0.000000    0.000000
         Rot=    1.000000    0.000000   -0.000000   -0.000000 Ang=   0.00 deg.
 Initial guess orbital symmetries:
       Occupied  (SG) (SG) (SG) (SG) (SG) (SG) (SG) (PI) (PI) (PI)
                 (PI)
       Virtual   (SG) (PI) (PI) (SG) (PI) (PI) (SG) (SG) (PI) (PI)
                 (SG) (PI) (PI) (SG) (SG) (PI) (PI) (SG) (SG) (SG)
                 (PI) (PI) (SG) (PI) (PI) (SG) (DLTA) (DLTA) (PI)
                 (PI) (SG) (DLTA) (DLTA) (DLTA) (DLTA) (SG) (PI)
                 (PI) (SG) (PI) (PI) (SG) (SG) (SG) (SG) (SG)
 Keep R1 ints in memory in symmetry-blocked form, NReq=18979194.
 Requested convergence on RMS density matrix=1.00D-08 within 128 cycles.
 Requested convergence on MAX density matrix=1.00D-06.
 Requested convergence on             energy=1.00D-06.
 No special actions if energy rises.
 SCF Done:  E(RM062X) =  -188.516038939     A.U. after    1 cycles
            NFock=  1  Conv=0.52D-09     -V/T= 2.0081
 DoSCS=F DFT=T ScalE2(SS,OS)=  1.000000  1.000000
 Range of M.O.s used for correlation:     1    57
 NBasis=    57 NAE=    11 NBE=    11 NFC=     0 NFV=     0
 NROrb=     57 NOA=    11 NOB=    11 NVA=    46 NVB=    46

 **** Warning!!: The largest alpha MO coefficient is  0.11401028D+02

 Symmetrizing basis deriv contribution to polar:
 IMax=3 JMax=2 DiffMx= 0.00D+00
 G2DrvN: will do     4 centers at a time, making    1 passes.
 Calling FoFCou, ICntrl=  3107 FMM=F I1Cent=   0 AccDes= 0.00D+00.
 End of G2Drv F.D. properties file   721 does not exist.
 End of G2Drv F.D. properties file   722 does not exist.
 End of G2Drv F.D. properties file   788 does not exist.
          IDoAtm=111
          Differentiating once with respect to electric field.
                with respect to dipole field.
          Differentiating once with respect to nuclear coordinates.
 Keep R1 ints in memory in symmetry-blocked form, NReq=18911963.
          There are    12 degrees of freedom in the 1st order CPHF.  IDoFFX=6 NUNeed=     3.
      9 vectors produced by pass  0 Test12= 4.22D-15 8.33D-09 XBig12= 1.58D+01 2.55D+00.
 AX will form     9 AO Fock derivatives at one time.
      9 vectors produced by pass  1 Test12= 4.22D-15 8.33D-09 XBig12= 5.61D+00 8.97D-01.
      9 vectors produced by pass  2 Test12= 4.22D-15 8.33D-09 XBig12= 4.51D-02 8.71D-02.
      9 vectors produced by pass  3 Test12= 4.22D-15 8.33D-09 XBig12= 2.71D-04 6.70D-03.
      9 vectors produced by pass  4 Test12= 4.22D-15 8.33D-09 XBig12= 1.09D-06 3.25D-04.
      9 vectors produced by pass  5 Test12= 4.22D-15 8.33D-09 XBig12= 1.03D-08 3.25D-05.
      7 vectors produced by pass  6 Test12= 4.22D-15 8.33D-09 XBig12= 1.51D-10 4.96D-06.
      2 vectors produced by pass  7 Test12= 4.22D-15 8.33D-09 XBig12= 4.94D-13 2.23D-07.
      1 vectors produced by pass  8 Test12= 4.22D-15 8.33D-09 XBig12= 1.10D-15 1.34D-08.
 InvSVY:  IOpt=1 It=  1 EMax= 6.66D-16
 Solved reduced A of dimension    64 with     9 vectors.
 Isotropic polarizability for W=    0.000000       14.48 Bohr**3.
 End of Minotr F.D. properties file   721 does not exist.
 End of Minotr F.D. properties file   722 does not exist.
 End of Minotr F.D. properties file   788 does not exist.

 **********************************************************************

            Population analysis using the SCF density.

 **********************************************************************

 Orbital symmetries:
       Occupied  (SG) (SG) (SG) (SG) (SG) (SG) (SG) (PI) (PI) (PI)
                 (PI)
       Virtual   (SG) (PI) (PI) (SG) (PI) (PI) (SG) (SG) (PI) (PI)
                 (SG) (PI) (PI) (SG) (SG) (PI) (PI) (SG) (SG) (SG)
                 (PI) (PI) (SG) (PI) (PI) (SG) (DLTA) (DLTA) (PI)
                 (PI) (SG) (DLTA) (DLTA) (DLTA) (DLTA) (SG) (PI)
                 (PI) (SG) (PI) (PI) (SG) (SG) (SG) (SG) (SG)
 The electronic state is 1-SG.
 Alpha  occ. eigenvalues --  -19.73956 -19.73955 -10.75893  -1.30165  -1.25118
 Alpha  occ. eigenvalues --   -0.66469  -0.61234  -0.61099  -0.61099  -0.45117
 Alpha  occ. eigenvalues --   -0.45117
 Alpha virt. eigenvalues --   -0.00186   0.04751   0.04751   0.05387   0.07841
 Alpha virt. eigenvalues --    0.07841   0.16185   0.19655   0.20762   0.20762
 Alpha virt. eigenvalues --    0.25271   0.28220   0.28220   0.32058   0.38383
 Alpha virt. eigenvalues --    0.70859   0.70859   0.76463   0.96130   1.07107
 Alpha virt. eigenvalues --    1.17156   1.17156   1.17674   1.29406   1.29406
 Alpha virt. eigenvalues --    1.36304   1.42653   1.42653   1.47746   1.47746
 Alpha virt. eigenvalues --    1.50474   1.77153   1.77153   2.07474   2.07474
 Alpha virt. eigenvalues --    2.13621   2.18432   2.18432   2.87154   3.02970
 Alpha virt. eigenvalues --    3.02970   3.31159   3.33811   4.03969   4.61606
 Alpha virt. eigenvalues --    4.80569
          Condensed to atoms (all electrons):
               1          2          3
     1  C    4.446167   0.406792   0.406793
     2  O    0.406792   8.068138  -0.104804
     3  O    0.406793  -0.104804   8.068133
 Mulliken charges:
               1
     1  C    0.740248
     2  O   -0.370126
     3  O   -0.370122
 Sum of Mulliken charges =  -0.00000
 Mulliken charges with hydrogens summed into heavy atoms:
               1
     1  C    0.740248
     2  O   -0.370126
     3  O   -0.370122
 APT charges:
               1
     1  C    1.275251
     2  O   -0.637626
     3  O   -0.637625
 Sum of APT charges =  -0.00000
 APT charges with hydrogens summed into heavy atoms:
               1
     1  C    1.275251
     2  O   -0.637626
     3  O   -0.637625
 Electronic spatial extent (au):  <R**2>=            113.9859
 Charge=             -0.0000 electrons
 Dipole moment (field-independent basis, Debye):
    X=              0.0000    Y=             -0.0000    Z=             -0.0000  Tot=              0.0000
 Quadrupole moment (field-independent basis, Debye-Ang):
   XX=            -14.8512   YY=            -14.8512   ZZ=            -19.7026
   XY=              0.0000   XZ=             -0.0000   YZ=             -0.0000
 Traceless Quadrupole moment (field-independent basis, Debye-Ang):
   XX=              1.6171   YY=              1.6171   ZZ=             -3.2342
   XY=              0.0000   XZ=             -0.0000   YZ=             -0.0000
 Octapole moment (field-independent basis, Debye-Ang**2):
  XXX=              0.0000  YYY=             -0.0000  ZZZ=             -0.0000  XYY=              0.0000
  XXY=             -0.0000  XXZ=             -0.0000  XZZ=              0.0000  YZZ=             -0.0000
  YYZ=             -0.0000  XYZ=              0.0000
 Hexadecapole moment (field-independent basis, Debye-Ang**3):
 XXXX=            -11.7728 YYYY=            -11.7728 ZZZZ=           -104.9074 XXXY=              0.0000
 XXXZ=             -0.0000 YYYX=              0.0000 YYYZ=             -0.0000 ZZZX=             -0.0000
 ZZZY=             -0.0000 XXYY=             -3.9243 XXZZ=            -19.2619 YYZZ=            -19.2619
 XXYZ=             -0.0000 YYXZ=             -0.0000 ZZXY=              0.0000
 N-N= 5.825164182607D+01 E-N=-5.591694235305D+02  KE= 1.869922294341D+02
 Symmetry A1   KE= 1.701464350704D+02
 Symmetry A2   KE= 5.197883058113D-32
 Symmetry B1   KE= 8.422897181815D+00
 Symmetry B2   KE= 8.422897181815D+00
  Exact polarizability:   8.970  -0.000   8.970  -0.000   0.000  25.513
 Approx polarizability:   9.702   0.000   9.702   0.000   0.000  36.825
 Calling FoFJK, ICntrl=    100127 FMM=F ISym2X=1 I1Cent= 0 IOpClX= 0 NMat=1 NMatS=1 NMatT=0.
 Full mass-weighted force constant matrix:
 Low frequencies ---  -10.7455  -10.7455   -0.0013   -0.0013   -0.0012  669.8719
 Low frequencies ---  669.8719 1411.2690 2460.5198
 Diagonal vibrational polarizability:
        2.2909325       2.2909325       3.5036741
 Harmonic frequencies (cm**-1), IR intensities (KM/Mole), Raman scattering
 activities (A**4/AMU), depolarization ratios for plane and unpolarized
 incident light, reduced masses (AMU), force constants (mDyne/A),
 and normal coordinates:
                      1                      2                      3
                     PI                     PI                     SG
 Frequencies --    669.8719               669.8719              1411.2690
 Red. masses --     12.8774                12.8774                15.9949
 Frc consts  --      3.4046                 3.4046                18.7695
 IR Inten    --     38.1999                38.1999                 0.0000
  Atom  AN      X      Y      Z        X      Y      Z        X      Y      Z
     1   6     0.88   0.11  -0.00    -0.11   0.88  -0.00     0.00  -0.00  -0.00
     2   8    -0.33  -0.04  -0.00     0.04  -0.33   0.00    -0.00   0.00   0.71
     3   8    -0.33  -0.04   0.00     0.04  -0.33   0.00    -0.00   0.00  -0.71
                      4
                     SG
 Frequencies --   2460.5198
 Red. masses --     12.8774
 Frc consts  --     45.9337
 IR Inten    --    788.2142
  Atom  AN      X      Y      Z
     1   6    -0.00   0.00   0.88
     2   8     0.00  -0.00  -0.33
     3   8     0.00  -0.00  -0.33

 -------------------
 - Thermochemistry -
 -------------------
 Temperature   298.150 Kelvin.  Pressure   1.00000 Atm.
 Atom     1 has atomic number  6 and mass  12.00000
 Atom     2 has atomic number  8 and mass  15.99491
 Atom     3 has atomic number  8 and mass  15.99491
 Molecular mass:    43.98983 amu.
 Principal axes and moments of inertia in atomic units:
                           1         2         3
     Eigenvalues --     0.00000 154.45982 154.45982
           X            0.00000   0.95783  -0.28735
           Y            0.00000   0.28735   0.95783
           Z            1.00000  -0.00000  -0.00000
 This molecule is a prolate symmetric top.
 Rotational symmetry number  1.
 Rotational temperature (Kelvin)      0.56075
 Rotational constant (GHZ):          11.684212
 Zero-point vibrational energy      31171.9 (Joules/Mol)
                                    7.45026 (Kcal/Mol)
 Vibrational temperatures:    963.80   963.80  2030.50  3540.14
          (Kelvin)
 
 Zero-point correction=                           0.011873 (Hartree/Particle)
 Thermal correction to Energy=                    0.014491
 Thermal correction to Enthalpy=                  0.015435
 Thermal correction to Gibbs Free Energy=        -0.009478
 Sum of electronic and zero-point Energies=           -188.504166
 Sum of electronic and thermal Energies=              -188.501548
 Sum of electronic and thermal Enthalpies=            -188.500604
 Sum of electronic and thermal Free Energies=         -188.525517
 
                     E (Thermal)             CV                S
                      KCal/Mol        Cal/Mol-Kelvin    Cal/Mol-Kelvin
 Total                    9.093              6.848             52.434
 Electronic               0.000              0.000              0.000
 Translational            0.889              2.981             37.270
 Rotational               0.592              1.987             14.459
 Vibrational              7.612              1.880              0.705
                       Q            Log10(Q)             Ln(Q)
 Total Bot       0.228830D+05          4.359513         10.038150
 Total V=0       0.661594D+10          9.820592         22.612748
 Vib (Bot)       0.375291D-05         -5.425632        -12.492979
 Vib (V=0)       0.108504D+01          0.035447          0.081619
 Electronic      0.100000D+01          0.000000          0.000000
 Translational   0.114679D+08          7.059482         16.255059
 Rotational      0.531695D+03          2.725663          6.276070
 ***** Axes restored to original set *****
 -------------------------------------------------------------------
 Center     Atomic                   Forces (Hartrees/Bohr)
 Number     Number              X              Y              Z
 -------------------------------------------------------------------
      1        6           0.000007371   -0.000001670    0.000001977
      2        8          -0.000012088    0.000002738   -0.000003243
      3        8           0.000004717   -0.000001068    0.000001265
 -------------------------------------------------------------------
 Cartesian Forces:  Max     0.000012088 RMS     0.000005272
 FormGI is forming the generalized inverse of G from B-inverse, IUseBI=4.

 GradGradGradGradGradGradGradGradGradGradGradGradGradGradGradGradGradGrad
 Berny optimization.
 Internal  Forces:  Max     0.000012812 RMS     0.000006876
 Search for a local minimum.
 Step number   1 out of a maximum of    2
 All quantities printed in internal units (Hartrees-Bohrs-Radians)
 Second derivative matrix not updated -- analytic derivatives used.
 The second derivative matrix:
                          R1        R2        A1        A2
           R1           1.10260
           R2           0.10295   1.10264
           A1          -0.00000   0.00000   0.17126
           A2           0.00000  -0.00000  -0.00971   0.16796
 ITU=  0
     Eigenvalues ---    0.15976   0.17946   0.99967   1.20557
 Angle between quadratic step and forces=   4.19 degrees.
 Linear search not attempted -- first point.
 Iteration  1 RMS(Cart)=  0.00000546 RMS(Int)=  0.00000000
 Iteration  2 RMS(Cart)=  0.00000000 RMS(Int)=  0.00000000
 ClnCor:  largest displacement from symmetrization is 1.82D-14 for atom     1.
 Variable       Old X    -DE/DX   Delta X   Delta X   Delta X     New X
                                 (Linear)    (Quad)   (Total)
    R1        2.19737  -0.00001   0.00000  -0.00001  -0.00001   2.19736
    R2        2.19736  -0.00000   0.00000  -0.00000  -0.00000   2.19736
    A1        3.14159   0.00000   0.00000   0.00000   0.00000   3.14159
    A2        3.14159  -0.00000   0.00000  -0.00000   0.00000   3.14159
         Item               Value     Threshold  Converged?
 Maximum Force            0.000013     0.000450     YES
 RMS     Force            0.000007     0.000300     YES
 Maximum Displacement     0.000008     0.001800     YES
 RMS     Displacement     0.000005     0.001200     YES
 Predicted change in Energy=-8.104819D-11
 Optimization completed.
    -- Stationary point found.
                           ----------------------------
                           !   Optimized Parameters   !
                           ! (Angstroms and Degrees)  !
 --------------------------                            --------------------------
 ! Name  Definition              Value          Derivative Info.                !
 --------------------------------------------------------------------------------
 ! R1    R(1,2)                  1.1628         -DE/DX =    0.0                 !
 ! R2    R(1,3)                  1.1628         -DE/DX =    0.0                 !
 ! A1    L(2,1,3,-2,-1)        180.0            -DE/DX =    0.0                 !
 ! A2    L(2,1,3,-3,-2)        180.0            -DE/DX =    0.0                 !
 --------------------------------------------------------------------------------
 GradGradGradGradGradGradGradGradGradGradGradGradGradGradGradGradGradGrad


 ----------------------------------------------------------------------

 Electric dipole moment (input orientation):
 (Debye = 10**-18 statcoulomb cm , SI units = C m)
                  (au)            (Debye)         (10**-30 SI)
   Tot        0.000000D+00      0.000000D+00      0.000000D+00
   x          0.000000D+00      0.000000D+00      0.000000D+00
   y          0.000000D+00      0.000000D+00      0.000000D+00
   z          0.000000D+00      0.000000D+00      0.000000D+00

 Dipole polarizability, Alpha (input orientation).
 (esu units = cm**3 , SI units = C**2 m**2 J**-1)
 Alpha(0;0):
               (au)            (10**-24 esu)      (10**-40 SI)
   iso        0.144844D+02      0.214637D+01      0.238816D+01
   aniso      0.165436D+02      0.245150D+01      0.272766D+01
   xx         0.236981D+02      0.351170D+01      0.390729D+01
   yx        -0.333593D+01     -0.494334D+00     -0.550021D+00
   yy         0.972551D+01      0.144117D+01      0.160352D+01
   zx         0.395076D+01      0.585442D+00      0.651392D+00
   zy        -0.894845D+00     -0.132602D+00     -0.147540D+00
   zz         0.100297D+02      0.148625D+01      0.165367D+01

 ----------------------------------------------------------------------

 Dipole orientation:
     6         -0.61039626         -1.23944852          5.27251810
     8         -0.61039626         -1.23944852          3.07515123
     8         -0.61039626         -1.23944852          7.46987715

 Electric dipole moment (dipole orientation):
 (Debye = 10**-18 statcoulomb cm , SI units = C m)
                  (au)            (Debye)         (10**-30 SI)
   Tot        0.103662D-04      0.263484D-04      0.878886D-04
   x          0.000000D+00      0.000000D+00      0.000000D+00
   y          0.000000D+00      0.000000D+00      0.000000D+00
   z          0.103662D-04      0.263484D-04      0.878886D-04

 Dipole polarizability, Alpha (dipole orientation).
 (esu units = cm**3 , SI units = C**2 m**2 J**-1)
 Alpha(0;0):
               (au)            (10**-24 esu)      (10**-40 SI)
   iso        0.144844D+02      0.214637D+01      0.238816D+01
   aniso      0.165436D+02      0.245150D+01      0.272766D+01
   xx         0.896992D+01      0.132921D+01      0.147894D+01
   yx         0.000000D+00      0.000000D+00      0.000000D+00
   yy         0.896992D+01      0.132921D+01      0.147894D+01
   zx         0.000000D+00      0.000000D+00      0.000000D+00
   zy         0.000000D+00      0.000000D+00      0.000000D+00
   zz         0.255135D+02      0.378071D+01      0.420660D+01

 ----------------------------------------------------------------------
 1\1\GINC-NODE2\Freq\RM062X\6-31+G(d,p)\C1O2\ROOT\10-Mar-2023\0\\#N Geo
 m=AllCheck Guess=TCheck SCRF=Check GenChk RM062X/6-31+G(d,p) Freq\\str
 ucture\\0,1\C,-2.6205504703,1.1762801306,-0.26123037\O,-1.5234052545,0
 .9277773111,0.0330727919\O,-3.7176917858,1.4247820667,-0.5555324857\\V
 ersion=ES64L-G16RevA.03\State=1-SG\HF=-188.5160389\RMSD=5.222e-10\RMSF
 =5.272e-06\ZeroPoint=0.0118727\Thermal=0.0144911\Dipole=-0.0000098,0.0
 000022,-0.0000026\DipoleDeriv=2.4289305,-0.4177041,0.4946891,-0.417704
 1,0.6793677,-0.1120468,0.4946891,-0.1120468,0.7174556,-1.2144631,0.208
 8511,-0.2473435,0.2088511,-0.3396855,0.0560232,-0.2473435,0.0560232,-0
 .3587294,-1.2144674,0.208853,-0.2473456,0.208853,-0.3396822,0.0560237,
 -0.2473456,0.0560237,-0.3587262\Polar=23.6981264,-3.3359304,9.7255093,
 3.9507595,-0.894845,10.0296923\Quadrupole=-2.0087951,1.037557,0.971238
 1,0.7273096,-0.8613565,0.1950968\PG=C*V [C*(O1C1O1)]\NImag=0\\1.796207
 22,-0.37327528,0.23273561,0.44207182,-0.10012904,0.26677229,-0.8980896
 7,0.18663411,-0.22103173,0.98567493,0.18663411,-0.11636865,0.05006357,
 -0.21487122,0.08568216,-0.22103173,0.05006357,-0.13338667,0.25447309,-
 0.05763802,0.10527494,-0.89811755,0.18664117,-0.22104009,-0.08758527,0
 .02823711,-0.03344136,0.98570282,0.18664117,-0.11636696,0.05006547,0.0
 2823711,0.03068649,0.00757445,-0.21487828,0.08568046,-0.22104009,0.050
 06547,-0.13338562,-0.03344136,0.00757445,0.02811172,0.25448145,-0.0576
 3992,0.10527389\\-0.00000737,0.00000167,-0.00000198,0.00001209,-0.0000
 0274,0.00000324,-0.00000472,0.00000107,-0.00000127\\\@


 WHAT, THEN, IS TIME?  IF NO ONE ASKS ME, I KNOW WHAT IT IS.
 IF I WISH TO EXPLAIN WHAT IT IS TO HIM WHO ASKS ME, I DO NOT KNOW.
                                   -- ST. AUGUSTINE (FIFTH CENTURY)
 Job cpu time:       0 days  0 hours  1 minutes 10.8 seconds.
 Elapsed time:       0 days  0 hours  0 minutes  4.0 seconds.
 File lengths (MBytes):  RWF=      6 Int=      0 D2E=      0 Chk=      1 Scr=      1
 Normal termination of Gaussian 16 at Fri Mar 10 01:42:27 2023.
