 Entering Gaussian System, Link 0=/opt/soft/g16b/g16/g16
 Initial command:
 /opt/soft/g16b/g16/l1.exe "/scratch/gongke2021/1-H-Tz-HCOO-/Gau-25616.inp" -scrdir="/scratch/gongke2021/1-H-Tz-HCOO-/"
 Entering Link 1 = /opt/soft/g16b/g16/l1.exe PID=     25617.
  
 Copyright (c) 1988,1990,1992,1993,1995,1998,2003,2009,2016,
            Gaussian, Inc.  All Rights Reserved.
  
 This is part of the Gaussian(R) 16 program.  It is based on
 the Gaussian(R) 09 system (copyright 2009, Gaussian, Inc.),
 the Gaussian(R) 03 system (copyright 2003, Gaussian, Inc.),
 the Gaussian(R) 98 system (copyright 1998, Gaussian, Inc.),
 the Gaussian(R) 94 system (copyright 1995, Gaussian, Inc.),
 the Gaussian 92(TM) system (copyright 1992, Gaussian, Inc.),
 the Gaussian 90(TM) system (copyright 1990, Gaussian, Inc.),
 the Gaussian 88(TM) system (copyright 1988, Gaussian, Inc.),
 the Gaussian 86(TM) system (copyright 1986, Carnegie Mellon
 University), and the Gaussian 82(TM) system (copyright 1983,
 Carnegie Mellon University). Gaussian is a federally registered
 trademark of Gaussian, Inc.
  
 This software contains proprietary and confidential information,
 including trade secrets, belonging to Gaussian, Inc.
  
 This software is provided under written license and may be
 used, copied, transmitted, or stored only in accord with that
 written license.
  
 The following legend is applicable only to US Government
 contracts under FAR:
  
                    RESTRICTED RIGHTS LEGEND
  
 Use, reproduction and disclosure by the US Government is
 subject to restrictions as set forth in subparagraphs (a)
 and (c) of the Commercial Computer Software - Restricted
 Rights clause in FAR 52.227-19.
  
 Gaussian, Inc.
 340 Quinnipiac St., Bldg. 40, Wallingford CT 06492
  
  
 ---------------------------------------------------------------
 Warning -- This program may not be used in any manner that
 competes with the business of Gaussian, Inc. or will provide
 assistance to any competitor of Gaussian, Inc.  The licensee
 of this program is prohibited from giving any competitor of
 Gaussian, Inc. access to this program.  By using this program,
 the user acknowledges that Gaussian, Inc. is engaged in the
 business of creating and licensing software in the field of
 computational chemistry and represents and warrants to the
 licensee that it is not a competitor of Gaussian, Inc. and that
 it will not use this program in any manner prohibited above.
 ---------------------------------------------------------------
  

 Cite this work as:
 Gaussian 16, Revision A.03,
 M. J. Frisch, G. W. Trucks, H. B. Schlegel, G. E. Scuseria, 
 M. A. Robb, J. R. Cheeseman, G. Scalmani, V. Barone, 
 G. A. Petersson, H. Nakatsuji, X. Li, M. Caricato, A. V. Marenich, 
 J. Bloino, B. G. Janesko, R. Gomperts, B. Mennucci, H. P. Hratchian, 
 J. V. Ortiz, A. F. Izmaylov, J. L. Sonnenberg, D. Williams-Young, 
 F. Ding, F. Lipparini, F. Egidi, J. Goings, B. Peng, A. Petrone, 
 T. Henderson, D. Ranasinghe, V. G. Zakrzewski, J. Gao, N. Rega, 
 G. Zheng, W. Liang, M. Hada, M. Ehara, K. Toyota, R. Fukuda, 
 J. Hasegawa, M. Ishida, T. Nakajima, Y. Honda, O. Kitao, H. Nakai, 
 T. Vreven, K. Throssell, J. A. Montgomery, Jr., J. E. Peralta, 
 F. Ogliaro, M. J. Bearpark, J. J. Heyd, E. N. Brothers, K. N. Kudin, 
 V. N. Staroverov, T. A. Keith, R. Kobayashi, J. Normand, 
 K. Raghavachari, A. P. Rendell, J. C. Burant, S. S. Iyengar, 
 J. Tomasi, M. Cossi, J. M. Millam, M. Klene, C. Adamo, R. Cammi, 
 J. W. Ochterski, R. L. Martin, K. Morokuma, O. Farkas, 
 J. B. Foresman, and D. J. Fox, Gaussian, Inc., Wallingford CT, 2016.
 
 ******************************************
 Gaussian 16:  ES64L-G16RevA.03 25-Dec-2016
                 6-May-2023 
 ******************************************
 %mem=10GB
 %nprocshared=20
 Will use up to   20 processors via shared memory.
 ----------------------------
 # opt freq 6-31+g(d,p) m062x
 ----------------------------
 1/18=20,19=15,26=3,38=1/1,3;
 2/9=110,12=2,17=6,18=5,40=1/2;
 3/5=1,6=6,7=111,11=2,25=1,30=1,71=1,74=-55/1,2,3;
 4//1;
 5/5=2,38=5/2;
 6/7=2,8=2,9=2,10=2,28=1/1;
 7//1,2,3,16;
 1/18=20,19=15,26=3/3(2);
 2/9=110/2;
 99//99;
 2/9=110/2;
 3/5=1,6=6,7=111,11=2,25=1,30=1,71=1,74=-55/1,2,3;
 4/5=5,16=3,69=1/1;
 5/5=2,38=5/2;
 7//1,2,3,16;
 1/18=20,19=15,26=3/3(-5);
 2/9=110/2;
 6/7=2,8=2,9=2,10=2,19=2,28=1/1;
 99/9=1/99;
 ----------
 "Sketch 2"
 ----------
 Symbolic Z-matrix:
 Charge = -1 Multiplicity = 1
 H                    -1.1293    1.73848  -0.00013 
 C                    -1.34882  -0.13544   0.00019 
 O                    -1.8857    1.12093  -0.00033 
 O                    -2.04693  -1.13841  -0.00036 
 

 GradGradGradGradGradGradGradGradGradGradGradGradGradGradGradGradGradGrad
 Berny optimization.
 Initialization pass.
                           ----------------------------
                           !    Initial Parameters    !
                           ! (Angstroms and Degrees)  !
 --------------------------                            --------------------------
 ! Name  Definition              Value          Derivative Info.                !
 --------------------------------------------------------------------------------
 ! R1    R(1,3)                  0.9765         estimate D2E/DX2                !
 ! R2    R(2,3)                  1.3663         estimate D2E/DX2                !
 ! R3    R(2,4)                  1.222          estimate D2E/DX2                !
 ! A1    A(3,2,4)              122.022          estimate D2E/DX2                !
 ! A2    A(1,3,2)              106.0909         estimate D2E/DX2                !
 ! D1    D(4,2,3,1)           -179.9746         estimate D2E/DX2                !
 --------------------------------------------------------------------------------
 Trust Radius=3.00D-01 FncErr=1.00D-07 GrdErr=1.00D-06 EigMax=2.50D+02 EigMin=1.00D-04
 Number of steps in this run=     20 maximum allowed number of steps=    100.
 GradGradGradGradGradGradGradGradGradGradGradGradGradGradGradGradGradGrad

                          Input orientation:                          
 ---------------------------------------------------------------------
 Center     Atomic      Atomic             Coordinates (Angstroms)
 Number     Number       Type             X           Y           Z
 ---------------------------------------------------------------------
      1          1           0       -1.129302    1.738481   -0.000128
      2          6           0       -1.348819   -0.135436    0.000193
      3          8           0       -1.885702    1.120930   -0.000331
      4          8           0       -2.046931   -1.138410   -0.000357
 ---------------------------------------------------------------------
                    Distance matrix (angstroms):
                    1          2          3          4
     1  H    0.000000
     2  C    1.886731   0.000000
     3  O    0.976478   1.366272   0.000000
     4  O    3.019693   1.222014   2.265085   0.000000
 Stoichiometry    CHO2(1-)
 Framework group  C1[X(CHO2)]
 Deg. of freedom     6
 Full point group                 C1      NOp   1
 Largest Abelian subgroup         C1      NOp   1
 Largest concise Abelian subgroup C1      NOp   1
                         Standard orientation:                         
 ---------------------------------------------------------------------
 Center     Atomic      Atomic             Coordinates (Angstroms)
 Number     Number       Type             X           Y           Z
 ---------------------------------------------------------------------
      1          1           0        1.761579    0.458808    0.000299
      2          6           0       -0.125006    0.435382   -0.000057
      3          8           0        1.068706   -0.229260   -0.000029
      4          8           0       -1.195149   -0.154627    0.000034
 ---------------------------------------------------------------------
 Rotational constants (GHZ):         136.9996053          11.3878503          10.5139009
 Standard basis: 6-31+G(d,p) (6D, 7F)
 There are    62 symmetry adapted cartesian basis functions of A   symmetry.
 There are    62 symmetry adapted basis functions of A   symmetry.
    62 basis functions,   103 primitive gaussians,    62 cartesian basis functions
    12 alpha electrons       12 beta electrons
       nuclear repulsion energy        61.7489558522 Hartrees.
 NAtoms=    4 NActive=    4 NUniq=    4 SFac= 1.00D+00 NAtFMM=   60 NAOKFM=F Big=F
 Integral buffers will be    131072 words long.
 Raffenetti 2 integral format.
 Two-electron integral symmetry is turned on.
 One-electron integrals computed using PRISM.
 NBasis=    62 RedAO= T EigKep=  4.32D-03  NBF=    62
 NBsUse=    62 1.00D-06 EigRej= -1.00D+00 NBFU=    62
 ExpMin= 4.38D-02 ExpMax= 5.48D+03 ExpMxC= 8.25D+02 IAcc=3 IRadAn=         5 AccDes= 0.00D+00
 Harris functional with IExCor= 1009 and IRadAn=       5 diagonalized for initial guess.
 HarFok:  IExCor= 1009 AccDes= 0.00D+00 IRadAn=         5 IDoV= 1 UseB2=F ITyADJ=14
 ICtDFT=  3500011 ScaDFX=  1.000000  1.000000  1.000000  1.000000
 FoFCou: FMM=F IPFlag=           0 FMFlag=      100000 FMFlg1=           0
         NFxFlg=           0 DoJE=T BraDBF=F KetDBF=T FulRan=T
         wScrn=  0.000000 ICntrl=       500 IOpCl=  0 I1Cent=   200000004 NGrid=           0
         NMat0=    1 NMatS0=      1 NMatT0=    0 NMatD0=    1 NMtDS0=    0 NMtDT0=    0
 Petite list used in FoFCou.
 Keep R1 ints in memory in canonical form, NReq=19599261.
 Requested convergence on RMS density matrix=1.00D-08 within 128 cycles.
 Requested convergence on MAX density matrix=1.00D-06.
 Requested convergence on             energy=1.00D-06.
 No special actions if energy rises.
 SCF Done:  E(RM062X) =  -189.065517565     A.U. after   14 cycles
            NFock= 14  Conv=0.20D-08     -V/T= 2.0079

 **********************************************************************

            Population analysis using the SCF density.

 **********************************************************************

 Orbital symmetries:
       Occupied  (A) (A) (A) (A) (A) (A) (A) (A) (A) (A) (A) (A)
       Virtual   (A) (A) (A) (A) (A) (A) (A) (A) (A) (A) (A) (A)
                 (A) (A) (A) (A) (A) (A) (A) (A) (A) (A) (A) (A)
                 (A) (A) (A) (A) (A) (A) (A) (A) (A) (A) (A) (A)
                 (A) (A) (A) (A) (A) (A) (A) (A) (A) (A) (A) (A)
                 (A) (A)
 The electronic state is 1-A.
 Alpha  occ. eigenvalues --  -19.46785 -19.40678 -10.40640  -0.98413  -0.89986
 Alpha  occ. eigenvalues --   -0.46509  -0.33545  -0.30149  -0.27798  -0.19111
 Alpha  occ. eigenvalues --   -0.16675  -0.00316
 Alpha virt. eigenvalues --    0.19947   0.21855   0.22241   0.23939   0.31404
 Alpha virt. eigenvalues --    0.34289   0.36322   0.39685   0.41606   0.43805
 Alpha virt. eigenvalues --    0.44925   0.46517   0.50771   0.51632   0.60747
 Alpha virt. eigenvalues --    0.71806   0.93639   0.94326   1.04749   1.20249
 Alpha virt. eigenvalues --    1.32791   1.39291   1.42447   1.47165   1.51088
 Alpha virt. eigenvalues --    1.51559   1.57678   1.68022   1.76003   1.76163
 Alpha virt. eigenvalues --    1.79955   1.82495   1.91705   2.08366   2.10722
 Alpha virt. eigenvalues --    2.13041   2.36172   2.57642   2.60730   2.67814
 Alpha virt. eigenvalues --    2.81906   2.83120   2.94972   3.10952   3.18224
 Alpha virt. eigenvalues --    3.42402   3.66618   4.34446   4.38145   4.61751
          Condensed to atoms (all electrons):
               1          2          3          4
     1  H    0.424644   0.005840   0.218477   0.009218
     2  C    0.005840   7.133634  -0.805497   0.185671
     3  O    0.218477  -0.805497   8.937288  -0.042572
     4  O    0.009218   0.185671  -0.042572   8.362160
 Mulliken charges:
               1
     1  H    0.341821
     2  C   -0.519648
     3  O   -0.307697
     4  O   -0.514476
 Sum of Mulliken charges =  -1.00000
 Mulliken charges with hydrogens summed into heavy atoms:
               1
     2  C   -0.519648
     3  O    0.034124
     4  O   -0.514476
 Electronic spatial extent (au):  <R**2>=            146.0948
 Charge=             -1.0000 electrons
 Dipole moment (field-independent basis, Debye):
    X=              2.4502    Y=             -0.9651    Z=              0.0005  Tot=              2.6334
 Quadrupole moment (field-independent basis, Debye-Ang):
   XX=            -23.7000   YY=            -27.0124   ZZ=            -22.2486
   XY=              1.2769   XZ=              0.0012   YZ=              0.0007
 Traceless Quadrupole moment (field-independent basis, Debye-Ang):
   XX=              0.6203   YY=             -2.6921   ZZ=              2.0717
   XY=              1.2769   XZ=              0.0012   YZ=              0.0007
 Octapole moment (field-independent basis, Debye-Ang**2):
  XXX=             10.0375  YYY=            -16.1881  ZZZ=              0.0003  XYY=             -0.8574
  XXY=              1.9715  XXZ=              0.0022  XZZ=             -1.2053  YZZ=             -4.0394
  YYZ=              0.0004  XYZ=              0.0005
 Hexadecapole moment (field-independent basis, Debye-Ang**3):
 XXXX=           -132.6002 YYYY=            -79.8777 ZZZZ=            -39.7432 XXXY=              4.3502
 XXXZ=              0.0040 YYYX=             -2.6873 YYYZ=              0.0013 ZZZX=              0.0002
 ZZZY=              0.0009 XXYY=            -35.0520 XXZZ=            -30.6255 YYZZ=            -19.4214
 XXYZ=              0.0012 YYXZ=              0.0003 ZZXY=             -0.7315
 N-N= 6.174895585221D+01 E-N=-5.742101055404D+02  KE= 1.875849166268D+02
 Calling FoFJK, ICntrl=      2127 FMM=F ISym2X=0 I1Cent= 0 IOpClX= 0 NMat=1 NMatS=1 NMatT=0.
 ***** Axes restored to original set *****
 -------------------------------------------------------------------
 Center     Atomic                   Forces (Hartrees/Bohr)
 Number     Number              X              Y              Z
 -------------------------------------------------------------------
      1        1          -0.010336957   -0.017940049    0.000007330
      2        6           0.064519541   -0.038163561    0.000045618
      3        8          -0.032126624    0.034071670   -0.000040379
      4        8          -0.022055960    0.022031940   -0.000012568
 -------------------------------------------------------------------
 Cartesian Forces:  Max     0.064519541 RMS     0.027708003

 GradGradGradGradGradGradGradGradGradGradGradGradGradGradGradGradGradGrad
 Berny optimization.
 FormGI is forming the generalized inverse of G from B-inverse, IUseBI=4.
 Internal  Forces:  Max     0.070869395 RMS     0.033178833
 Search for a local minimum.
 Step number   1 out of a maximum of   20
 All quantities printed in internal units (Hartrees-Bohrs-Radians)
 Mixed Optimization -- RFO/linear search
 Second derivative matrix not updated -- first step.
 The second derivative matrix:
                          R1        R2        R3        A1        A2
           R1           0.52075
           R2           0.00000   0.51700
           R3           0.00000   0.00000   0.94497
           A1           0.00000   0.00000   0.00000   0.25000
           A2           0.00000   0.00000   0.00000   0.00000   0.16000
           D1           0.00000   0.00000   0.00000   0.00000   0.00000
                          D1
           D1           0.02138
 ITU=  0
     Eigenvalues ---    0.02138   0.16000   0.25000   0.51700   0.52075
     Eigenvalues ---    0.94497
 RFO step:  Lambda=-2.20396161D-02 EMin= 2.13793727D-02
 Linear search not attempted -- first point.
 Iteration  1 RMS(Cart)=  0.10452622 RMS(Int)=  0.02697508
 Iteration  2 RMS(Cart)=  0.03999249 RMS(Int)=  0.00091033
 Iteration  3 RMS(Cart)=  0.00076786 RMS(Int)=  0.00000008
 Iteration  4 RMS(Cart)=  0.00000012 RMS(Int)=  0.00000000
 Variable       Old X    -DE/DX   Delta X   Delta X   Delta X     New X
                                 (Linear)    (Quad)   (Total)
    R1        1.84528  -0.01935   0.00000  -0.03565  -0.03565   1.80962
    R2        2.58188   0.03152   0.00000   0.05847   0.05847   2.64035
    R3        2.30927  -0.00548   0.00000  -0.00567  -0.00567   2.30360
    A1        2.12969  -0.07087   0.00000  -0.26051  -0.26051   1.86917
    A2        1.85164  -0.01358   0.00000  -0.07460  -0.07460   1.77704
    D1       -3.14115  -0.00001   0.00000  -0.00033  -0.00033  -3.14148
         Item               Value     Threshold  Converged?
 Maximum Force            0.070869     0.000450     NO 
 RMS     Force            0.033179     0.000300     NO 
 Maximum Displacement     0.213490     0.001800     NO 
 RMS     Displacement     0.142441     0.001200     NO 
 Predicted change in Energy=-1.188106D-02
 GradGradGradGradGradGradGradGradGradGradGradGradGradGradGradGradGradGrad

                          Input orientation:                          
 ---------------------------------------------------------------------
 Center     Atomic      Atomic             Coordinates (Angstroms)
 Number     Number       Type             X           Y           Z
 ---------------------------------------------------------------------
      1          1           0       -1.174687    1.692589   -0.000063
      2          6           0       -1.238848   -0.154868    0.000196
      3          8           0       -1.905080    1.073280   -0.000424
      4          8           0       -2.092139   -1.025436   -0.000332
 ---------------------------------------------------------------------
                    Distance matrix (angstroms):
                    1          2          3          4
     1  H    0.000000
     2  C    1.848571   0.000000
     3  O    0.957611   1.397216   0.000000
     4  O    2.868690   1.219013   2.107035   0.000000
 Stoichiometry    CHO2(1-)
 Framework group  C1[X(CHO2)]
 Deg. of freedom     6
 Full point group                 C1      NOp   1
 Largest Abelian subgroup         C1      NOp   1
 Largest concise Abelian subgroup C1      NOp   1
                         Standard orientation:                         
 ---------------------------------------------------------------------
 Center     Atomic      Atomic             Coordinates (Angstroms)
 Number     Number       Type             X           Y           Z
 ---------------------------------------------------------------------
      1          1           0        1.698195    0.403447    0.000080
      2          6           0       -0.144929    0.545252   -0.000012
      3          8           0        1.001460   -0.253499   -0.000009
      4          8           0       -1.105037   -0.205871    0.000008
 ---------------------------------------------------------------------
 Rotational constants (GHZ):          93.2538708          13.0645948          11.4591950
 Standard basis: 6-31+G(d,p) (6D, 7F)
 There are    62 symmetry adapted cartesian basis functions of A   symmetry.
 There are    62 symmetry adapted basis functions of A   symmetry.
    62 basis functions,   103 primitive gaussians,    62 cartesian basis functions
    12 alpha electrons       12 beta electrons
       nuclear repulsion energy        62.7038892023 Hartrees.
 NAtoms=    4 NActive=    4 NUniq=    4 SFac= 1.00D+00 NAtFMM=   60 NAOKFM=F Big=F
 Integral buffers will be    131072 words long.
 Raffenetti 2 integral format.
 Two-electron integral symmetry is turned on.
 One-electron integrals computed using PRISM.
 NBasis=    62 RedAO= T EigKep=  4.08D-03  NBF=    62
 NBsUse=    62 1.00D-06 EigRej= -1.00D+00 NBFU=    62
 Initial guess from the checkpoint file:  "/scratch/gongke2021/1-H-Tz-HCOO-/Gau-25617.chk"
 B after Tr=     0.000000    0.000000    0.000000
         Rot=    0.999994   -0.000016   -0.000001   -0.003503 Ang=  -0.40 deg.
 ExpMin= 4.38D-02 ExpMax= 5.48D+03 ExpMxC= 8.25D+02 IAcc=2 IRadAn=         4 AccDes= 0.00D+00
 Harris functional with IExCor= 1009 and IRadAn=       4 diagonalized for initial guess.
 HarFok:  IExCor= 1009 AccDes= 0.00D+00 IRadAn=         4 IDoV= 1 UseB2=F ITyADJ=14
 ICtDFT=  3500011 ScaDFX=  1.000000  1.000000  1.000000  1.000000
 FoFCou: FMM=F IPFlag=           0 FMFlag=      100000 FMFlg1=           0
         NFxFlg=           0 DoJE=T BraDBF=F KetDBF=T FulRan=T
         wScrn=  0.000000 ICntrl=       500 IOpCl=  0 I1Cent=   200000004 NGrid=           0
         NMat0=    1 NMatS0=      1 NMatT0=    0 NMatD0=    1 NMtDS0=    0 NMtDT0=    0
 Petite list used in FoFCou.
 Keep R1 ints in memory in canonical form, NReq=19599261.
 Requested convergence on RMS density matrix=1.00D-08 within 128 cycles.
 Requested convergence on MAX density matrix=1.00D-06.
 Requested convergence on             energy=1.00D-06.
 No special actions if energy rises.
 SCF Done:  E(RM062X) =  -189.072491679     A.U. after   12 cycles
            NFock= 12  Conv=0.98D-08     -V/T= 2.0072
 Calling FoFJK, ICntrl=      2127 FMM=F ISym2X=0 I1Cent= 0 IOpClX= 0 NMat=1 NMatS=1 NMatT=0.
 ***** Axes restored to original set *****
 -------------------------------------------------------------------
 Center     Atomic                   Forces (Hartrees/Bohr)
 Number     Number              X              Y              Z
 -------------------------------------------------------------------
      1        1           0.002253434    0.008718616    0.000002190
      2        6          -0.000222462   -0.016015201    0.000000009
      3        8          -0.002497340    0.034009007   -0.000007256
      4        8           0.000466369   -0.026712423    0.000005057
 -------------------------------------------------------------------
 Cartesian Forces:  Max     0.034009007 RMS     0.013583841

 GradGradGradGradGradGradGradGradGradGradGradGradGradGradGradGradGradGrad
 Berny optimization.
 Using GEDIIS/GDIIS optimizer.
 FormGI is forming the generalized inverse of G from B-inverse, IUseBI=4.
 Internal  Forces:  Max     0.043837608 RMS     0.025281640
 Search for a local minimum.
 Step number   2 out of a maximum of   20
 All quantities printed in internal units (Hartrees-Bohrs-Radians)
 Mixed Optimization -- RFO/linear search
 Update second derivatives using D2CorX and points    1    2
 DE= -6.97D-03 DEPred=-1.19D-02 R= 5.87D-01
 TightC=F SS=  1.41D+00  RLast= 2.80D-01 DXNew= 5.0454D-01 8.3868D-01
 Trust test= 5.87D-01 RLast= 2.80D-01 DXMaxT set to 5.05D-01
 The second derivative matrix:
                          R1        R2        R3        A1        A2
           R1           0.52585
           R2           0.03271   0.47318
           R3           0.01513   0.01258   0.96172
           A1           0.03526   0.11874   0.06882   0.44826
           A2           0.00808   0.02213   0.01408   0.04326   0.16932
           D1           0.00000   0.00001   0.00001   0.00001   0.00000
                          D1
           D1           0.02138
 ITU=  1  0
 Use linear search instead of GDIIS.
     Eigenvalues ---    0.02138   0.16266   0.33987   0.49829   0.60337
     Eigenvalues ---    0.97413
 RFO step:  Lambda=-3.02779574D-03 EMin= 2.13793729D-02
 Quartic linear search produced a step of -0.27681.
 Iteration  1 RMS(Cart)=  0.05644465 RMS(Int)=  0.00091701
 Iteration  2 RMS(Cart)=  0.00064449 RMS(Int)=  0.00000036
 Iteration  3 RMS(Cart)=  0.00000053 RMS(Int)=  0.00000000
 Variable       Old X    -DE/DX   Delta X   Delta X   Delta X     New X
                                 (Linear)    (Quad)   (Total)
    R1        1.80962   0.00736   0.00987  -0.00611   0.00376   1.81339
    R2        2.64035   0.03767  -0.01619   0.07903   0.06284   2.70320
    R3        2.30360   0.01875   0.00157   0.01181   0.01338   2.31699
    A1        1.86917   0.04384   0.07211  -0.00529   0.06682   1.93599
    A2        1.77704   0.00939   0.02065   0.00070   0.02135   1.79838
    D1       -3.14148  -0.00000   0.00009  -0.00055  -0.00046   3.14124
         Item               Value     Threshold  Converged?
 Maximum Force            0.043838     0.000450     NO 
 RMS     Force            0.025282     0.000300     NO 
 Maximum Displacement     0.093627     0.001800     NO 
 RMS     Displacement     0.056546     0.001200     NO 
 Predicted change in Energy=-3.028211D-03
 GradGradGradGradGradGradGradGradGradGradGradGradGradGradGradGradGradGrad

                          Input orientation:                          
 ---------------------------------------------------------------------
 Center     Atomic      Atomic             Coordinates (Angstroms)
 Number     Number       Type             X           Y           Z
 ---------------------------------------------------------------------
      1          1           0       -1.163241    1.721644    0.000072
      2          6           0       -1.259542   -0.169714    0.000068
      3          8           0       -1.901505    1.108617   -0.000547
      4          8           0       -2.086465   -1.074981   -0.000216
 ---------------------------------------------------------------------
                    Distance matrix (angstroms):
                    1          2          3          4
     1  H    0.000000
     2  C    1.893808   0.000000
     3  O    0.959602   1.430471   0.000000
     4  O    2.945073   1.226096   2.191417   0.000000
 Stoichiometry    CHO2(1-)
 Framework group  C1[X(CHO2)]
 Deg. of freedom     6
 Full point group                 C1      NOp   1
 Largest Abelian subgroup         C1      NOp   1
 Largest concise Abelian subgroup C1      NOp   1
                         Standard orientation:                         
 ---------------------------------------------------------------------
 Center     Atomic      Atomic             Coordinates (Angstroms)
 Number     Number       Type             X           Y           Z
 ---------------------------------------------------------------------
      1          1           0        1.733723    0.422033   -0.000246
      2          6           0       -0.157211    0.526310    0.000038
      3          8           0        1.046053   -0.247255    0.000028
      4          8           0       -1.144860   -0.200231   -0.000025
 ---------------------------------------------------------------------
 Rotational constants (GHZ):          99.0206112          12.1072434          10.7881742
 Standard basis: 6-31+G(d,p) (6D, 7F)
 There are    62 symmetry adapted cartesian basis functions of A   symmetry.
 There are    62 symmetry adapted basis functions of A   symmetry.
    62 basis functions,   103 primitive gaussians,    62 cartesian basis functions
    12 alpha electrons       12 beta electrons
       nuclear repulsion energy        61.4534990315 Hartrees.
 NAtoms=    4 NActive=    4 NUniq=    4 SFac= 1.00D+00 NAtFMM=   60 NAOKFM=F Big=F
 Integral buffers will be    131072 words long.
 Raffenetti 2 integral format.
 Two-electron integral symmetry is turned on.
 One-electron integrals computed using PRISM.
 NBasis=    62 RedAO= T EigKep=  4.36D-03  NBF=    62
 NBsUse=    62 1.00D-06 EigRej= -1.00D+00 NBFU=    62
 Initial guess from the checkpoint file:  "/scratch/gongke2021/1-H-Tz-HCOO-/Gau-25617.chk"
 B after Tr=    -0.000000   -0.000000   -0.000000
         Rot=    0.999998   -0.000001   -0.000000   -0.002035 Ang=  -0.23 deg.
 ExpMin= 4.38D-02 ExpMax= 5.48D+03 ExpMxC= 8.25D+02 IAcc=2 IRadAn=         4 AccDes= 0.00D+00
 Harris functional with IExCor= 1009 and IRadAn=       4 diagonalized for initial guess.
 HarFok:  IExCor= 1009 AccDes= 0.00D+00 IRadAn=         4 IDoV= 1 UseB2=F ITyADJ=14
 ICtDFT=  3500011 ScaDFX=  1.000000  1.000000  1.000000  1.000000
 FoFCou: FMM=F IPFlag=           0 FMFlag=      100000 FMFlg1=           0
         NFxFlg=           0 DoJE=T BraDBF=F KetDBF=T FulRan=T
         wScrn=  0.000000 ICntrl=       500 IOpCl=  0 I1Cent=   200000004 NGrid=           0
         NMat0=    1 NMatS0=      1 NMatT0=    0 NMatD0=    1 NMtDS0=    0 NMtDT0=    0
 Petite list used in FoFCou.
 Keep R1 ints in memory in canonical form, NReq=19599261.
 Requested convergence on RMS density matrix=1.00D-08 within 128 cycles.
 Requested convergence on MAX density matrix=1.00D-06.
 Requested convergence on             energy=1.00D-06.
 No special actions if energy rises.
 SCF Done:  E(RM062X) =  -189.075732129     A.U. after   11 cycles
            NFock= 11  Conv=0.95D-08     -V/T= 2.0079
 Calling FoFJK, ICntrl=      2127 FMM=F ISym2X=0 I1Cent= 0 IOpClX= 0 NMat=1 NMatS=1 NMatT=0.
 ***** Axes restored to original set *****
 -------------------------------------------------------------------
 Center     Atomic                   Forces (Hartrees/Bohr)
 Number     Number              X              Y              Z
 -------------------------------------------------------------------
      1        1           0.002217164    0.001789486   -0.000004218
      2        6           0.001110733   -0.016566339    0.000009739
      3        8          -0.007906288    0.010745545   -0.000002120
      4        8           0.004578391    0.004031308   -0.000003401
 -------------------------------------------------------------------
 Cartesian Forces:  Max     0.016566339 RMS     0.006448416

 GradGradGradGradGradGradGradGradGradGradGradGradGradGradGradGradGradGrad
 Berny optimization.
 Using GEDIIS/GDIIS optimizer.
 FormGI is forming the generalized inverse of G from B-inverse, IUseBI=4.
 Internal  Forces:  Max     0.013755279 RMS     0.006277708
 Search for a local minimum.
 Step number   3 out of a maximum of   20
 All quantities printed in internal units (Hartrees-Bohrs-Radians)
 Mixed Optimization -- RFO/linear search
 Update second derivatives using D2CorX and points    1    2    3
 DE= -3.24D-03 DEPred=-3.03D-03 R= 1.07D+00
 TightC=F SS=  1.41D+00  RLast= 9.52D-02 DXNew= 8.4853D-01 2.8561D-01
 Trust test= 1.07D+00 RLast= 9.52D-02 DXMaxT set to 5.05D-01
 The second derivative matrix:
                          R1        R2        R3        A1        A2
           R1           0.52581
           R2           0.00706   0.28252
           R3           0.00640   0.02410   1.03384
           A1           0.02789   0.08068   0.13117   0.50997
           A2           0.00644   0.01978   0.03161   0.06075   0.17410
           D1           0.00001  -0.00002  -0.00006  -0.00004  -0.00001
                          D1
           D1           0.02138
 ITU=  1  1  0
 Use linear search instead of GDIIS.
     Eigenvalues ---    0.02138   0.16304   0.25640   0.49078   0.54618
     Eigenvalues ---    1.06985
 RFO step:  Lambda=-6.12570345D-04 EMin= 2.13794264D-02
 Quartic linear search produced a step of  0.21262.
 Iteration  1 RMS(Cart)=  0.01834639 RMS(Int)=  0.00005481
 Iteration  2 RMS(Cart)=  0.00005400 RMS(Int)=  0.00000000
 Iteration  3 RMS(Cart)=  0.00000000 RMS(Int)=  0.00000000
 Variable       Old X    -DE/DX   Delta X   Delta X   Delta X     New X
                                 (Linear)    (Quad)   (Total)
    R1        1.81339   0.00285   0.00080   0.00421   0.00501   1.81840
    R2        2.70320   0.01376   0.01336   0.03983   0.05319   2.75639
    R3        2.31699  -0.00606   0.00285  -0.00949  -0.00664   2.31034
    A1        1.93599   0.00153   0.01421  -0.01575  -0.00154   1.93445
    A2        1.79838  -0.00007   0.00454  -0.00748  -0.00294   1.79544
    D1        3.14124   0.00001  -0.00010   0.00029   0.00019   3.14143
         Item               Value     Threshold  Converged?
 Maximum Force            0.013755     0.000450     NO 
 RMS     Force            0.006278     0.000300     NO 
 Maximum Displacement     0.028211     0.001800     NO 
 RMS     Displacement     0.018369     0.001200     NO 
 Predicted change in Energy=-3.682504D-04
 GradGradGradGradGradGradGradGradGradGradGradGradGradGradGradGradGradGrad

                          Input orientation:                          
 ---------------------------------------------------------------------
 Center     Atomic      Atomic             Coordinates (Angstroms)
 Number     Number       Type             X           Y           Z
 ---------------------------------------------------------------------
      1          1           0       -1.161128    1.730990    0.000019
      2          6           0       -1.256949   -0.184643    0.000121
      3          8           0       -1.905884    1.121671   -0.000504
      4          8           0       -2.086793   -1.082452   -0.000259
 ---------------------------------------------------------------------
                    Distance matrix (angstroms):
                    1          2          3          4
     1  H    0.000000
     2  C    1.918027   0.000000
     3  O    0.962254   1.458620   0.000000
     4  O    2.961809   1.222581   2.211535   0.000000
 Stoichiometry    CHO2(1-)
 Framework group  C1[X(CHO2)]
 Deg. of freedom     6
 Full point group                 C1      NOp   1
 Largest Abelian subgroup         C1      NOp   1
 Largest concise Abelian subgroup C1      NOp   1
                         Standard orientation:                         
 ---------------------------------------------------------------------
 Center     Atomic      Atomic             Coordinates (Angstroms)
 Number     Number       Type             X           Y           Z
 ---------------------------------------------------------------------
      1          1           0        1.742524    0.433388   -0.000114
      2          6           0       -0.173057    0.530228    0.000017
      3          8           0        1.061565   -0.246484    0.000013
      4          8           0       -1.149588   -0.205361   -0.000012
 ---------------------------------------------------------------------
 Rotational constants (GHZ):          97.3840377          11.8823421          10.5901784
 Standard basis: 6-31+G(d,p) (6D, 7F)
 There are    62 symmetry adapted cartesian basis functions of A   symmetry.
 There are    62 symmetry adapted basis functions of A   symmetry.
    62 basis functions,   103 primitive gaussians,    62 cartesian basis functions
    12 alpha electrons       12 beta electrons
       nuclear repulsion energy        60.9883554768 Hartrees.
 NAtoms=    4 NActive=    4 NUniq=    4 SFac= 1.00D+00 NAtFMM=   60 NAOKFM=F Big=F
 Integral buffers will be    131072 words long.
 Raffenetti 2 integral format.
 Two-electron integral symmetry is turned on.
 One-electron integrals computed using PRISM.
 NBasis=    62 RedAO= T EigKep=  4.44D-03  NBF=    62
 NBsUse=    62 1.00D-06 EigRej= -1.00D+00 NBFU=    62
 Initial guess from the checkpoint file:  "/scratch/gongke2021/1-H-Tz-HCOO-/Gau-25617.chk"
 B after Tr=     0.000000   -0.000000   -0.000000
         Rot=    0.999996   -0.000000    0.000000   -0.002747 Ang=  -0.31 deg.
 ExpMin= 4.38D-02 ExpMax= 5.48D+03 ExpMxC= 8.25D+02 IAcc=2 IRadAn=         4 AccDes= 0.00D+00
 Harris functional with IExCor= 1009 and IRadAn=       4 diagonalized for initial guess.
 HarFok:  IExCor= 1009 AccDes= 0.00D+00 IRadAn=         4 IDoV= 1 UseB2=F ITyADJ=14
 ICtDFT=  3500011 ScaDFX=  1.000000  1.000000  1.000000  1.000000
 FoFCou: FMM=F IPFlag=           0 FMFlag=      100000 FMFlg1=           0
         NFxFlg=           0 DoJE=T BraDBF=F KetDBF=T FulRan=T
         wScrn=  0.000000 ICntrl=       500 IOpCl=  0 I1Cent=   200000004 NGrid=           0
         NMat0=    1 NMatS0=      1 NMatT0=    0 NMatD0=    1 NMtDS0=    0 NMtDT0=    0
 Petite list used in FoFCou.
 Keep R1 ints in memory in canonical form, NReq=19599261.
 Requested convergence on RMS density matrix=1.00D-08 within 128 cycles.
 Requested convergence on MAX density matrix=1.00D-06.
 Requested convergence on             energy=1.00D-06.
 No special actions if energy rises.
 SCF Done:  E(RM062X) =  -189.076264251     A.U. after   11 cycles
            NFock= 11  Conv=0.94D-08     -V/T= 2.0081
 Calling FoFJK, ICntrl=      2127 FMM=F ISym2X=0 I1Cent= 0 IOpClX= 0 NMat=1 NMatS=1 NMatT=0.
 ***** Axes restored to original set *****
 -------------------------------------------------------------------
 Center     Atomic                   Forces (Hartrees/Bohr)
 Number     Number              X              Y              Z
 -------------------------------------------------------------------
      1        1           0.000586156   -0.000334027   -0.000002139
      2        6          -0.001038166   -0.008776218    0.000003367
      3        8          -0.003418968    0.004248595   -0.000000635
      4        8           0.003870979    0.004861649   -0.000000593
 -------------------------------------------------------------------
 Cartesian Forces:  Max     0.008776218 RMS     0.003498987

 GradGradGradGradGradGradGradGradGradGradGradGradGradGradGradGradGradGrad
 Berny optimization.
 Using GEDIIS/GDIIS optimizer.
 FormGI is forming the generalized inverse of G from B-inverse, IUseBI=4.
 Internal  Forces:  Max     0.006198220 RMS     0.003256215
 Search for a local minimum.
 Step number   4 out of a maximum of   20
 All quantities printed in internal units (Hartrees-Bohrs-Radians)
 Mixed Optimization -- RFO/linear search
 Update second derivatives using D2CorX and points    1    2    3    4
 DE= -5.32D-04 DEPred=-3.68D-04 R= 1.44D+00
 TightC=F SS=  1.41D+00  RLast= 5.39D-02 DXNew= 8.4853D-01 1.6183D-01
 Trust test= 1.44D+00 RLast= 5.39D-02 DXMaxT set to 5.05D-01
 The second derivative matrix:
                          R1        R2        R3        A1        A2
           R1           0.53454
           R2           0.00162   0.19035
           R3           0.01128   0.13857   1.05148
           A1           0.03482   0.07905   0.13196   0.48441
           A2           0.00961   0.03510   0.03621   0.05781   0.17498
           D1           0.00004   0.00003  -0.00006   0.00001   0.00000
                          D1
           D1           0.02138
 ITU=  1  1  1  0
 Use linear search instead of GDIIS.
     Eigenvalues ---    0.02138   0.14135   0.17923   0.45816   0.54713
     Eigenvalues ---    1.10988
 RFO step:  Lambda=-7.23874324D-05 EMin= 2.13794884D-02
 Quartic linear search produced a step of  0.79757.
 Iteration  1 RMS(Cart)=  0.01359183 RMS(Int)=  0.00006928
 Iteration  2 RMS(Cart)=  0.00005208 RMS(Int)=  0.00000000
 Iteration  3 RMS(Cart)=  0.00000000 RMS(Int)=  0.00000000
 Variable       Old X    -DE/DX   Delta X   Delta X   Delta X     New X
                                 (Linear)    (Quad)   (Total)
    R1        1.81840   0.00024   0.00400  -0.00261   0.00139   1.81978
    R2        2.75639   0.00477   0.04243   0.00320   0.04563   2.80202
    R3        2.31034  -0.00620  -0.00530  -0.00572  -0.01101   2.29933
    A1        1.93445  -0.00105  -0.00123  -0.00413  -0.00536   1.92910
    A2        1.79544  -0.00114  -0.00234  -0.00985  -0.01220   1.78325
    D1        3.14143   0.00000   0.00015   0.00023   0.00038  -3.14137
         Item               Value     Threshold  Converged?
 Maximum Force            0.006198     0.000450     NO 
 RMS     Force            0.003256     0.000300     NO 
 Maximum Displacement     0.021085     0.001800     NO 
 RMS     Displacement     0.013587     0.001200     NO 
 Predicted change in Energy=-1.158523D-04
 GradGradGradGradGradGradGradGradGradGradGradGradGradGradGradGradGradGrad

                          Input orientation:                          
 ---------------------------------------------------------------------
 Center     Atomic      Atomic             Coordinates (Angstroms)
 Number     Number       Type             X           Y           Z
 ---------------------------------------------------------------------
      1          1           0       -1.159055    1.732696   -0.000087
      2          6           0       -1.253926   -0.195800    0.000224
      3          8           0       -1.912334    1.132768   -0.000413
      4          8           0       -2.085438   -1.084099   -0.000347
 ---------------------------------------------------------------------
                    Distance matrix (angstroms):
                    1          2          3          4
     1  H    0.000000
     2  C    1.930829   0.000000
     3  O    0.962987   1.482766   0.000000
     4  O    2.965219   1.216753   2.223614   0.000000
 Stoichiometry    CHO2(1-)
 Framework group  C1[X(CHO2)]
 Deg. of freedom     6
 Full point group                 C1      NOp   1
 Largest Abelian subgroup         C1      NOp   1
 Largest concise Abelian subgroup C1      NOp   1
                         Standard orientation:                         
 ---------------------------------------------------------------------
 Center     Atomic      Atomic             Coordinates (Angstroms)
 Number     Number       Type             X           Y           Z
 ---------------------------------------------------------------------
      1          1           0        1.741212    0.447492    0.000158
      2          6           0       -0.187674    0.534086   -0.000024
      3          8           0        1.073215   -0.246140   -0.000018
      4          8           0       -1.150111   -0.210361    0.000016
 ---------------------------------------------------------------------
 Rotational constants (GHZ):          95.7019026          11.7506449          10.4656344
 Standard basis: 6-31+G(d,p) (6D, 7F)
 There are    62 symmetry adapted cartesian basis functions of A   symmetry.
 There are    62 symmetry adapted basis functions of A   symmetry.
    62 basis functions,   103 primitive gaussians,    62 cartesian basis functions
    12 alpha electrons       12 beta electrons
       nuclear repulsion energy        60.7051309992 Hartrees.
 NAtoms=    4 NActive=    4 NUniq=    4 SFac= 1.00D+00 NAtFMM=   60 NAOKFM=F Big=F
 Integral buffers will be    131072 words long.
 Raffenetti 2 integral format.
 Two-electron integral symmetry is turned on.
 One-electron integrals computed using PRISM.
 NBasis=    62 RedAO= T EigKep=  4.45D-03  NBF=    62
 NBsUse=    62 1.00D-06 EigRej= -1.00D+00 NBFU=    62
 Initial guess from the checkpoint file:  "/scratch/gongke2021/1-H-Tz-HCOO-/Gau-25617.chk"
 B after Tr=    -0.000000    0.000000    0.000000
         Rot=    0.999996    0.000000   -0.000000   -0.002704 Ang=   0.31 deg.
 ExpMin= 4.38D-02 ExpMax= 5.48D+03 ExpMxC= 8.25D+02 IAcc=2 IRadAn=         4 AccDes= 0.00D+00
 Harris functional with IExCor= 1009 and IRadAn=       4 diagonalized for initial guess.
 HarFok:  IExCor= 1009 AccDes= 0.00D+00 IRadAn=         4 IDoV= 1 UseB2=F ITyADJ=14
 ICtDFT=  3500011 ScaDFX=  1.000000  1.000000  1.000000  1.000000
 FoFCou: FMM=F IPFlag=           0 FMFlag=      100000 FMFlg1=           0
         NFxFlg=           0 DoJE=T BraDBF=F KetDBF=T FulRan=T
         wScrn=  0.000000 ICntrl=       500 IOpCl=  0 I1Cent=   200000004 NGrid=           0
         NMat0=    1 NMatS0=      1 NMatT0=    0 NMatD0=    1 NMtDS0=    0 NMtDT0=    0
 Petite list used in FoFCou.
 Keep R1 ints in memory in canonical form, NReq=19599261.
 Requested convergence on RMS density matrix=1.00D-08 within 128 cycles.
 Requested convergence on MAX density matrix=1.00D-06.
 Requested convergence on             energy=1.00D-06.
 No special actions if energy rises.
 SCF Done:  E(RM062X) =  -189.076419288     A.U. after   11 cycles
            NFock= 11  Conv=0.77D-08     -V/T= 2.0081
 Calling FoFJK, ICntrl=      2127 FMM=F ISym2X=0 I1Cent= 0 IOpClX= 0 NMat=1 NMatS=1 NMatT=0.
 ***** Axes restored to original set *****
 -------------------------------------------------------------------
 Center     Atomic                   Forces (Hartrees/Bohr)
 Number     Number              X              Y              Z
 -------------------------------------------------------------------
      1        1          -0.000054715   -0.000223115    0.000003499
      2        6          -0.000941192   -0.001000404   -0.000004035
      3        8          -0.000016526   -0.000000421   -0.000003147
      4        8           0.001012432    0.001223940    0.000003683
 -------------------------------------------------------------------
 Cartesian Forces:  Max     0.001223940 RMS     0.000609836

 GradGradGradGradGradGradGradGradGradGradGradGradGradGradGradGradGradGrad
 Berny optimization.
 Using GEDIIS/GDIIS optimizer.
 FormGI is forming the generalized inverse of G from B-inverse, IUseBI=4.
 Internal  Forces:  Max     0.001586840 RMS     0.000669506
 Search for a local minimum.
 Step number   5 out of a maximum of   20
 All quantities printed in internal units (Hartrees-Bohrs-Radians)
 Mixed Optimization -- En-DIIS/RFO-DIIS
 Update second derivatives using D2CorX and points    1    2    3    4    5
 DE= -1.55D-04 DEPred=-1.16D-04 R= 1.34D+00
 TightC=F SS=  1.41D+00  RLast= 4.88D-02 DXNew= 8.4853D-01 1.4644D-01
 Trust test= 1.34D+00 RLast= 4.88D-02 DXMaxT set to 5.05D-01
 The second derivative matrix:
                          R1        R2        R3        A1        A2
           R1           0.53626
           R2           0.00167   0.16529
           R3           0.01030   0.15591   0.98169
           A1           0.03138   0.07915   0.11759   0.47450
           A2           0.00931   0.03852   0.02443   0.05369   0.17269
           D1           0.00006   0.00004  -0.00008   0.00000   0.00000
                          D1
           D1           0.02138
 ITU=  1  1  1  1  0
 Use linear search instead of GDIIS.
     Eigenvalues ---    0.02138   0.11429   0.17432   0.45296   0.54562
     Eigenvalues ---    1.04323
 RFO step:  Lambda=-2.29391150D-06 EMin= 2.13796512D-02
 Quartic linear search produced a step of  0.05276.
 Iteration  1 RMS(Cart)=  0.00099853 RMS(Int)=  0.00000077
 Iteration  2 RMS(Cart)=  0.00000060 RMS(Int)=  0.00000000
 Variable       Old X    -DE/DX   Delta X   Delta X   Delta X     New X
                                 (Linear)    (Quad)   (Total)
    R1        1.81978  -0.00018   0.00007  -0.00036  -0.00028   1.81950
    R2        2.80202  -0.00017   0.00241  -0.00119   0.00121   2.80323
    R3        2.29933  -0.00159  -0.00058  -0.00119  -0.00177   2.29756
    A1        1.92910  -0.00022  -0.00028   0.00024  -0.00004   1.92906
    A2        1.78325  -0.00025  -0.00064  -0.00085  -0.00149   1.78176
    D1       -3.14137  -0.00001   0.00002  -0.00031  -0.00029   3.14152
         Item               Value     Threshold  Converged?
 Maximum Force            0.001587     0.000450     NO 
 RMS     Force            0.000670     0.000300     NO 
 Maximum Displacement     0.001465     0.001800     YES
 RMS     Displacement     0.000999     0.001200     YES
 Predicted change in Energy=-1.492795D-06
 GradGradGradGradGradGradGradGradGradGradGradGradGradGradGradGradGradGrad

                          Input orientation:                          
 ---------------------------------------------------------------------
 Center     Atomic      Atomic             Coordinates (Angstroms)
 Number     Number       Type             X           Y           Z
 ---------------------------------------------------------------------
      1          1           0       -1.158853    1.731921   -0.000005
      2          6           0       -1.254090   -0.195940    0.000148
      3          8           0       -1.912871    1.133160   -0.000487
      4          8           0       -2.084939   -1.083575   -0.000279
 ---------------------------------------------------------------------
                    Distance matrix (angstroms):
                    1          2          3          4
     1  H    0.000000
     2  C    1.930212   0.000000
     3  O    0.962838   1.483408   0.000000
     4  O    2.963892   1.215815   2.223403   0.000000
 Stoichiometry    CHO2(1-)
 Framework group  C1[X(CHO2)]
 Deg. of freedom     6
 Full point group                 C1      NOp   1
 Largest Abelian subgroup         C1      NOp   1
 Largest concise Abelian subgroup C1      NOp   1
                         Standard orientation:                         
 ---------------------------------------------------------------------
 Center     Atomic      Atomic             Coordinates (Angstroms)
 Number     Number       Type             X           Y           Z
 ---------------------------------------------------------------------
      1          1           0        1.739977    0.448765   -0.000048
      2          6           0       -0.188357    0.533905    0.000007
      3          8           0        1.073444   -0.246067    0.000005
      4          8           0       -1.149674   -0.210458   -0.000005
 ---------------------------------------------------------------------
 Rotational constants (GHZ):          95.7234446          11.7531892          10.4679102
 Standard basis: 6-31+G(d,p) (6D, 7F)
 There are    62 symmetry adapted cartesian basis functions of A   symmetry.
 There are    62 symmetry adapted basis functions of A   symmetry.
    62 basis functions,   103 primitive gaussians,    62 cartesian basis functions
    12 alpha electrons       12 beta electrons
       nuclear repulsion energy        60.7171025858 Hartrees.
 NAtoms=    4 NActive=    4 NUniq=    4 SFac= 1.00D+00 NAtFMM=   60 NAOKFM=F Big=F
 Integral buffers will be    131072 words long.
 Raffenetti 2 integral format.
 Two-electron integral symmetry is turned on.
 One-electron integrals computed using PRISM.
 NBasis=    62 RedAO= T EigKep=  4.44D-03  NBF=    62
 NBsUse=    62 1.00D-06 EigRej= -1.00D+00 NBFU=    62
 Initial guess from the checkpoint file:  "/scratch/gongke2021/1-H-Tz-HCOO-/Gau-25617.chk"
 B after Tr=     0.000000    0.000000    0.000000
         Rot=    1.000000    0.000000    0.000000   -0.000152 Ang=   0.02 deg.
 Keep R1 ints in memory in canonical form, NReq=19599261.
 Requested convergence on RMS density matrix=1.00D-08 within 128 cycles.
 Requested convergence on MAX density matrix=1.00D-06.
 Requested convergence on             energy=1.00D-06.
 No special actions if energy rises.
 SCF Done:  E(RM062X) =  -189.076421039     A.U. after    9 cycles
            NFock=  9  Conv=0.42D-08     -V/T= 2.0081
 Calling FoFJK, ICntrl=      2127 FMM=F ISym2X=0 I1Cent= 0 IOpClX= 0 NMat=1 NMatS=1 NMatT=0.
 ***** Axes restored to original set *****
 -------------------------------------------------------------------
 Center     Atomic                   Forces (Hartrees/Bohr)
 Number     Number              X              Y              Z
 -------------------------------------------------------------------
      1        1           0.000010719   -0.000027408   -0.000001050
      2        6          -0.000192147   -0.000104213    0.000000921
      3        8           0.000012103   -0.000081800    0.000000963
      4        8           0.000169326    0.000213421   -0.000000834
 -------------------------------------------------------------------
 Cartesian Forces:  Max     0.000213421 RMS     0.000103966

 GradGradGradGradGradGradGradGradGradGradGradGradGradGradGradGradGradGrad
 Berny optimization.
 Using GEDIIS/GDIIS optimizer.
 FormGI is forming the generalized inverse of G from B-inverse, IUseBI=4.
 Internal  Forces:  Max     0.000273018 RMS     0.000122383
 Search for a local minimum.
 Step number   6 out of a maximum of   20
 All quantities printed in internal units (Hartrees-Bohrs-Radians)
 Mixed Optimization -- En-DIIS/RFO-DIIS
 Swapping is turned off.
 Update second derivatives using D2CorX and points    1    2    3    4    5
                                                      6
 DE= -1.75D-06 DEPred=-1.49D-06 R= 1.17D+00
 TightC=F SS=  1.41D+00  RLast= 2.65D-03 DXNew= 8.4853D-01 7.9390D-03
 Trust test= 1.17D+00 RLast= 2.65D-03 DXMaxT set to 5.05D-01
 The second derivative matrix:
                          R1        R2        R3        A1        A2
           R1           0.53779
           R2          -0.00042   0.15937
           R3           0.00450   0.11461   0.82174
           A1           0.02770   0.07665   0.09399   0.46896
           A2           0.00791   0.03234  -0.00551   0.04886   0.16721
           D1           0.00022  -0.00005   0.00095   0.00008   0.00014
                          D1
           D1           0.02139
 ITU=  1  1  1  1  1  0
     Eigenvalues ---    0.02139   0.11608   0.17040   0.45341   0.54542
     Eigenvalues ---    0.86978
 En-DIIS/RFO-DIIS/Sim-DIIS IScMMF=       -3 using points:     6    5
 RFO step:  Lambda=-1.22558190D-07.
 DidBck=F Rises=F RFO-DIIS coefs:    1.03497   -0.03497
 Iteration  1 RMS(Cart)=  0.00028572 RMS(Int)=  0.00000001
 Iteration  2 RMS(Cart)=  0.00000001 RMS(Int)=  0.00000000
 Variable       Old X    -DE/DX   Delta X   Delta X   Delta X     New X
                                 (Linear)    (Quad)   (Total)
    R1        1.81950  -0.00001  -0.00001  -0.00001  -0.00002   1.81948
    R2        2.80323  -0.00011   0.00004  -0.00049  -0.00045   2.80279
    R3        2.29756  -0.00027  -0.00006  -0.00022  -0.00028   2.29728
    A1        1.92906  -0.00004  -0.00000   0.00006   0.00006   1.92912
    A2        1.78176  -0.00005  -0.00005  -0.00016  -0.00022   1.78154
    D1        3.14152   0.00000  -0.00001   0.00011   0.00010  -3.14156
         Item               Value     Threshold  Converged?
 Maximum Force            0.000273     0.000450     YES
 RMS     Force            0.000122     0.000300     YES
 Maximum Displacement     0.000424     0.001800     YES
 RMS     Displacement     0.000286     0.001200     YES
 Predicted change in Energy=-6.549247D-08
 Optimization completed.
    -- Stationary point found.
                           ----------------------------
                           !   Optimized Parameters   !
                           ! (Angstroms and Degrees)  !
 --------------------------                            --------------------------
 ! Name  Definition              Value          Derivative Info.                !
 --------------------------------------------------------------------------------
 ! R1    R(1,3)                  0.9628         -DE/DX =    0.0                 !
 ! R2    R(2,3)                  1.4834         -DE/DX =   -0.0001              !
 ! R3    R(2,4)                  1.2158         -DE/DX =   -0.0003              !
 ! A1    A(3,2,4)              110.5269         -DE/DX =    0.0                 !
 ! A2    A(1,3,2)              102.0871         -DE/DX =    0.0                 !
 ! D1    D(4,2,3,1)           -180.0039         -DE/DX =    0.0                 !
 --------------------------------------------------------------------------------
 GradGradGradGradGradGradGradGradGradGradGradGradGradGradGradGradGradGrad

                          Input orientation:                          
 ---------------------------------------------------------------------
 Center     Atomic      Atomic             Coordinates (Angstroms)
 Number     Number       Type             X           Y           Z
 ---------------------------------------------------------------------
      1          1           0       -1.158853    1.731921   -0.000005
      2          6           0       -1.254090   -0.195940    0.000148
      3          8           0       -1.912871    1.133160   -0.000487
      4          8           0       -2.084939   -1.083575   -0.000279
 ---------------------------------------------------------------------
                    Distance matrix (angstroms):
                    1          2          3          4
     1  H    0.000000
     2  C    1.930212   0.000000
     3  O    0.962838   1.483408   0.000000
     4  O    2.963892   1.215815   2.223403   0.000000
 Stoichiometry    CHO2(1-)
 Framework group  C1[X(CHO2)]
 Deg. of freedom     6
 Full point group                 C1      NOp   1
 Largest Abelian subgroup         C1      NOp   1
 Largest concise Abelian subgroup C1      NOp   1
                         Standard orientation:                         
 ---------------------------------------------------------------------
 Center     Atomic      Atomic             Coordinates (Angstroms)
 Number     Number       Type             X           Y           Z
 ---------------------------------------------------------------------
      1          1           0        1.739977    0.448765   -0.000048
      2          6           0       -0.188357    0.533905    0.000007
      3          8           0        1.073444   -0.246067    0.000005
      4          8           0       -1.149674   -0.210458   -0.000005
 ---------------------------------------------------------------------
 Rotational constants (GHZ):          95.7234446          11.7531892          10.4679102

 **********************************************************************

            Population analysis using the SCF density.

 **********************************************************************

 Orbital symmetries:
       Occupied  (A) (A) (A) (A) (A) (A) (A) (A) (A) (A) (A) (A)
       Virtual   (A) (A) (A) (A) (A) (A) (A) (A) (A) (A) (A) (A)
                 (A) (A) (A) (A) (A) (A) (A) (A) (A) (A) (A) (A)
                 (A) (A) (A) (A) (A) (A) (A) (A) (A) (A) (A) (A)
                 (A) (A) (A) (A) (A) (A) (A) (A) (A) (A) (A) (A)
                 (A) (A)
 The electronic state is 1-A.
 Alpha  occ. eigenvalues --  -19.43534 -19.40555 -10.39976  -0.95357  -0.88065
 Alpha  occ. eigenvalues --   -0.41854  -0.32314  -0.27507  -0.25049  -0.18723
 Alpha  occ. eigenvalues --   -0.15417  -0.02717
 Alpha virt. eigenvalues --    0.20731   0.21831   0.22478   0.23763   0.31019
 Alpha virt. eigenvalues --    0.34716   0.37275   0.40369   0.41419   0.44679
 Alpha virt. eigenvalues --    0.44772   0.47327   0.49691   0.52883   0.55961
 Alpha virt. eigenvalues --    0.70575   0.94170   0.94248   1.05285   1.23282
 Alpha virt. eigenvalues --    1.33862   1.37367   1.43770   1.47628   1.50700
 Alpha virt. eigenvalues --    1.50765   1.59314   1.70393   1.75769   1.79356
 Alpha virt. eigenvalues --    1.79434   1.81537   1.91355   2.05382   2.12119
 Alpha virt. eigenvalues --    2.16782   2.32620   2.58126   2.58686   2.71378
 Alpha virt. eigenvalues --    2.75118   2.82307   2.93003   3.04767   3.19440
 Alpha virt. eigenvalues --    3.37412   3.69836   4.32562   4.39823   4.57683
          Condensed to atoms (all electrons):
               1          2          3          4
     1  H    0.464022   0.018520   0.192078   0.014147
     2  C    0.018520   6.483533  -0.517681   0.330032
     3  O    0.192078  -0.517681   8.924412  -0.129368
     4  O    0.014147   0.330032  -0.129368   8.312577
 Mulliken charges:
               1
     1  H    0.311233
     2  C   -0.314404
     3  O   -0.469441
     4  O   -0.527388
 Sum of Mulliken charges =  -1.00000
 Mulliken charges with hydrogens summed into heavy atoms:
               1
     2  C   -0.314404
     3  O   -0.158208
     4  O   -0.527388
 Electronic spatial extent (au):  <R**2>=            144.8167
 Charge=             -1.0000 electrons
 Dipole moment (field-independent basis, Debye):
    X=              1.8826    Y=             -0.2966    Z=             -0.0001  Tot=              1.9058
 Quadrupole moment (field-independent basis, Debye-Ang):
   XX=            -23.9124   YY=            -25.8493   ZZ=            -21.1801
   XY=              1.7203   XZ=             -0.0002   YZ=             -0.0001
 Traceless Quadrupole moment (field-independent basis, Debye-Ang):
   XX=             -0.2652   YY=             -2.2020   ZZ=              2.4672
   XY=              1.7203   XZ=             -0.0002   YZ=             -0.0001
 Octapole moment (field-independent basis, Debye-Ang**2):
  XXX=              8.7905  YYY=            -14.2888  ZZZ=             -0.0001  XYY=             -0.0623
  XXY=              2.4494  XXZ=             -0.0004  XZZ=             -0.8581  YZZ=             -3.0897
  YYZ=             -0.0001  XYZ=             -0.0001
 Hexadecapole moment (field-independent basis, Debye-Ang**3):
 XXXX=           -130.1986 YYYY=            -74.7164 ZZZZ=            -31.7261 XXXY=              6.1084
 XXXZ=             -0.0007 YYYX=              0.5518 YYYZ=             -0.0002 ZZZX=             -0.0001
 ZZZY=             -0.0001 XXYY=            -32.9834 XXZZ=            -28.3414 YYZZ=            -16.9825
 XXYZ=             -0.0002 YYXZ=             -0.0000 ZZXY=              0.2575
 N-N= 6.071710258581D+01 E-N=-5.725403688520D+02  KE= 1.875645605842D+02
 1\1\GINC-NODE3\FOpt\RM062X\6-31+G(d,p)\C1H1O2(1-)\GONGKE2021\06-May-20
 23\0\\# opt freq 6-31+g(d,p) m062x\\"Sketch 2"\\-1,1\H,-1.1588533571,1
 .7319209141,-0.0000052826\C,-1.254090322,-0.1959402349,0.0001479474\O,
 -1.9128708247,1.1331597599,-0.0004867829\O,-2.0849394962,-1.0835754391
 ,-0.000278882\\Version=ES64L-G16RevA.03\State=1-A\HF=-189.076421\RMSD=
 4.180e-09\RMSF=1.040e-04\Dipole=-0.0470297,0.7483415,-0.0001059\Quadru
 pole=-1.3868801,-0.4474226,1.8343027,1.3905311,-0.0023049,0.0014098\PG
 =C01 [X(C1H1O2)]\\@


 OPTIMIST - A PESSIMIST WHO LACKS EXPERIENCE
 Job cpu time:       0 days  0 hours  4 minutes 24.9 seconds.
 Elapsed time:       0 days  0 hours  0 minutes 15.3 seconds.
 File lengths (MBytes):  RWF=      6 Int=      0 D2E=      0 Chk=      1 Scr=      1
 Normal termination of Gaussian 16 at Sat May  6 04:44:07 2023.
 Link1:  Proceeding to internal job step number  2.
 ----------------------------------------------------------------------
 #N Geom=AllCheck Guess=TCheck SCRF=Check GenChk RM062X/6-31+G(d,p) Fre
 q
 ----------------------------------------------------------------------
 1/10=4,29=7,30=1,38=1,40=1/1,3;
 2/12=2,40=1/2;
 3/5=1,6=6,7=111,11=2,14=-4,25=1,30=1,70=2,71=2,74=-55,116=1,140=1/1,2,3;
 4/5=101/1;
 5/5=2,38=6,98=1/2;
 8/6=4,10=90,11=11/1;
 11/6=1,8=1,9=11,15=111,16=1/1,2,10;
 10/6=1/2;
 6/7=2,8=2,9=2,10=2,28=1/1;
 7/8=1,10=1,25=1/1,2,3,16;
 1/10=4,30=1/3;
 99//99;
 Structure from the checkpoint file:  "/scratch/gongke2021/1-H-Tz-HCOO-/Gau-25617.chk"
 ----------
 "Sketch 2"
 ----------
 Charge = -1 Multiplicity = 1
 Redundant internal coordinates found in file.  (old form).
 H,0,-1.1588533571,1.7319209141,-0.0000052826
 C,0,-1.254090322,-0.1959402349,0.0001479474
 O,0,-1.9128708247,1.1331597599,-0.0004867829
 O,0,-2.0849394962,-1.0835754391,-0.000278882
 Recover connectivity data from disk.

 GradGradGradGradGradGradGradGradGradGradGradGradGradGradGradGradGradGrad
 Berny optimization.
 Initialization pass.
                           ----------------------------
                           !    Initial Parameters    !
                           ! (Angstroms and Degrees)  !
 --------------------------                            --------------------------
 ! Name  Definition              Value          Derivative Info.                !
 --------------------------------------------------------------------------------
 ! R1    R(1,3)                  0.9628         calculate D2E/DX2 analytically  !
 ! R2    R(2,3)                  1.4834         calculate D2E/DX2 analytically  !
 ! R3    R(2,4)                  1.2158         calculate D2E/DX2 analytically  !
 ! A1    A(3,2,4)              110.5269         calculate D2E/DX2 analytically  !
 ! A2    A(1,3,2)              102.0871         calculate D2E/DX2 analytically  !
 ! D1    D(4,2,3,1)            179.9961         calculate D2E/DX2 analytically  !
 --------------------------------------------------------------------------------
 Trust Radius=3.00D-01 FncErr=1.00D-07 GrdErr=1.00D-07 EigMax=2.50D+02 EigMin=1.00D-04
 Number of steps in this run=      2 maximum allowed number of steps=      2.
 GradGradGradGradGradGradGradGradGradGradGradGradGradGradGradGradGradGrad

                          Input orientation:                          
 ---------------------------------------------------------------------
 Center     Atomic      Atomic             Coordinates (Angstroms)
 Number     Number       Type             X           Y           Z
 ---------------------------------------------------------------------
      1          1           0       -1.158853    1.731921   -0.000005
      2          6           0       -1.254090   -0.195940    0.000148
      3          8           0       -1.912871    1.133160   -0.000487
      4          8           0       -2.084939   -1.083575   -0.000279
 ---------------------------------------------------------------------
                    Distance matrix (angstroms):
                    1          2          3          4
     1  H    0.000000
     2  C    1.930212   0.000000
     3  O    0.962838   1.483408   0.000000
     4  O    2.963892   1.215815   2.223403   0.000000
 Stoichiometry    CHO2(1-)
 Framework group  C1[X(CHO2)]
 Deg. of freedom     6
 Full point group                 C1      NOp   1
 Largest Abelian subgroup         C1      NOp   1
 Largest concise Abelian subgroup C1      NOp   1
                         Standard orientation:                         
 ---------------------------------------------------------------------
 Center     Atomic      Atomic             Coordinates (Angstroms)
 Number     Number       Type             X           Y           Z
 ---------------------------------------------------------------------
      1          1           0        1.739977    0.448765   -0.000048
      2          6           0       -0.188357    0.533905    0.000007
      3          8           0        1.073444   -0.246067    0.000005
      4          8           0       -1.149674   -0.210458   -0.000005
 ---------------------------------------------------------------------
 Rotational constants (GHZ):          95.7234446          11.7531892          10.4679102
 Standard basis: 6-31+G(d,p) (6D, 7F)
 There are    62 symmetry adapted cartesian basis functions of A   symmetry.
 There are    62 symmetry adapted basis functions of A   symmetry.
    62 basis functions,   103 primitive gaussians,    62 cartesian basis functions
    12 alpha electrons       12 beta electrons
       nuclear repulsion energy        60.7171025858 Hartrees.
 NAtoms=    4 NActive=    4 NUniq=    4 SFac= 1.00D+00 NAtFMM=   60 NAOKFM=F Big=F
 Integral buffers will be    131072 words long.
 Raffenetti 2 integral format.
 Two-electron integral symmetry is turned on.
 One-electron integrals computed using PRISM.
 NBasis=    62 RedAO= T EigKep=  4.44D-03  NBF=    62
 NBsUse=    62 1.00D-06 EigRej= -1.00D+00 NBFU=    62
 Initial guess from the checkpoint file:  "/scratch/gongke2021/1-H-Tz-HCOO-/Gau-25617.chk"
 B after Tr=    -0.000000    0.000000    0.000000
         Rot=    1.000000    0.000000   -0.000000   -0.000000 Ang=   0.00 deg.
 Keep R1 ints in memory in canonical form, NReq=19599261.
 Requested convergence on RMS density matrix=1.00D-08 within 128 cycles.
 Requested convergence on MAX density matrix=1.00D-06.
 Requested convergence on             energy=1.00D-06.
 No special actions if energy rises.
 SCF Done:  E(RM062X) =  -189.076421039     A.U. after    1 cycles
            NFock=  1  Conv=0.12D-08     -V/T= 2.0081
 DoSCS=F DFT=T ScalE2(SS,OS)=  1.000000  1.000000
 Range of M.O.s used for correlation:     1    62
 NBasis=    62 NAE=    12 NBE=    12 NFC=     0 NFV=     0
 NROrb=     62 NOA=    12 NOB=    12 NVA=    50 NVB=    50
 Symmetrizing basis deriv contribution to polar:
 IMax=3 JMax=2 DiffMx= 0.00D+00
 G2DrvN: will do     5 centers at a time, making    1 passes.
 Calling FoFCou, ICntrl=  3107 FMM=F I1Cent=   0 AccDes= 0.00D+00.
 End of G2Drv F.D. properties file   721 does not exist.
 End of G2Drv F.D. properties file   722 does not exist.
 End of G2Drv F.D. properties file   788 does not exist.
          IDoAtm=1111
          Differentiating once with respect to electric field.
                with respect to dipole field.
          Differentiating once with respect to nuclear coordinates.
 Keep R1 ints in memory in canonical form, NReq=19532879.
          There are    15 degrees of freedom in the 1st order CPHF.  IDoFFX=6 NUNeed=     3.
     12 vectors produced by pass  0 Test12= 4.00D-15 6.67D-09 XBig12= 3.13D+01 4.08D+00.
 AX will form    12 AO Fock derivatives at one time.
     12 vectors produced by pass  1 Test12= 4.00D-15 6.67D-09 XBig12= 5.93D+00 8.11D-01.
     12 vectors produced by pass  2 Test12= 4.00D-15 6.67D-09 XBig12= 2.45D-01 1.42D-01.
     12 vectors produced by pass  3 Test12= 4.00D-15 6.67D-09 XBig12= 1.12D-02 2.60D-02.
     12 vectors produced by pass  4 Test12= 4.00D-15 6.67D-09 XBig12= 1.14D-04 2.49D-03.
     12 vectors produced by pass  5 Test12= 4.00D-15 6.67D-09 XBig12= 5.50D-07 1.54D-04.
     12 vectors produced by pass  6 Test12= 4.00D-15 6.67D-09 XBig12= 2.63D-09 1.25D-05.
      4 vectors produced by pass  7 Test12= 4.00D-15 6.67D-09 XBig12= 1.29D-11 6.81D-07.
      3 vectors produced by pass  8 Test12= 4.00D-15 6.67D-09 XBig12= 3.92D-14 3.78D-08.
 InvSVY:  IOpt=1 It=  1 EMax= 1.11D-15
 Solved reduced A of dimension    91 with    12 vectors.
 Isotropic polarizability for W=    0.000000       42.25 Bohr**3.
 End of Minotr F.D. properties file   721 does not exist.
 End of Minotr F.D. properties file   722 does not exist.
 End of Minotr F.D. properties file   788 does not exist.

 **********************************************************************

            Population analysis using the SCF density.

 **********************************************************************

 Orbital symmetries:
       Occupied  (A) (A) (A) (A) (A) (A) (A) (A) (A) (A) (A) (A)
       Virtual   (A) (A) (A) (A) (A) (A) (A) (A) (A) (A) (A) (A)
                 (A) (A) (A) (A) (A) (A) (A) (A) (A) (A) (A) (A)
                 (A) (A) (A) (A) (A) (A) (A) (A) (A) (A) (A) (A)
                 (A) (A) (A) (A) (A) (A) (A) (A) (A) (A) (A) (A)
                 (A) (A)
 The electronic state is 1-A.
 Alpha  occ. eigenvalues --  -19.43534 -19.40555 -10.39976  -0.95357  -0.88065
 Alpha  occ. eigenvalues --   -0.41854  -0.32314  -0.27507  -0.25049  -0.18723
 Alpha  occ. eigenvalues --   -0.15417  -0.02717
 Alpha virt. eigenvalues --    0.20731   0.21831   0.22478   0.23763   0.31019
 Alpha virt. eigenvalues --    0.34716   0.37275   0.40369   0.41419   0.44679
 Alpha virt. eigenvalues --    0.44772   0.47327   0.49691   0.52883   0.55961
 Alpha virt. eigenvalues --    0.70575   0.94170   0.94248   1.05285   1.23282
 Alpha virt. eigenvalues --    1.33862   1.37367   1.43770   1.47628   1.50700
 Alpha virt. eigenvalues --    1.50765   1.59314   1.70393   1.75769   1.79356
 Alpha virt. eigenvalues --    1.79434   1.81537   1.91355   2.05382   2.12119
 Alpha virt. eigenvalues --    2.16782   2.32620   2.58126   2.58686   2.71378
 Alpha virt. eigenvalues --    2.75118   2.82307   2.93003   3.04767   3.19440
 Alpha virt. eigenvalues --    3.37412   3.69836   4.32562   4.39823   4.57683
          Condensed to atoms (all electrons):
               1          2          3          4
     1  H    0.464022   0.018520   0.192078   0.014147
     2  C    0.018520   6.483533  -0.517682   0.330032
     3  O    0.192078  -0.517682   8.924412  -0.129368
     4  O    0.014147   0.330032  -0.129368   8.312577
 Mulliken charges:
               1
     1  H    0.311233
     2  C   -0.314404
     3  O   -0.469441
     4  O   -0.527388
 Sum of Mulliken charges =  -1.00000
 Mulliken charges with hydrogens summed into heavy atoms:
               1
     2  C   -0.314404
     3  O   -0.158208
     4  O   -0.527388
 APT charges:
               1
     1  H    0.184491
     2  C    0.707908
     3  O   -0.927528
     4  O   -0.964871
 Sum of APT charges =  -1.00000
 APT charges with hydrogens summed into heavy atoms:
               1
     2  C    0.707908
     3  O   -0.743036
     4  O   -0.964871
 Electronic spatial extent (au):  <R**2>=            144.8167
 Charge=             -1.0000 electrons
 Dipole moment (field-independent basis, Debye):
    X=              1.8826    Y=             -0.2966    Z=             -0.0001  Tot=              1.9058
 Quadrupole moment (field-independent basis, Debye-Ang):
   XX=            -23.9124   YY=            -25.8493   ZZ=            -21.1801
   XY=              1.7203   XZ=             -0.0002   YZ=             -0.0001
 Traceless Quadrupole moment (field-independent basis, Debye-Ang):
   XX=             -0.2652   YY=             -2.2020   ZZ=              2.4672
   XY=              1.7203   XZ=             -0.0002   YZ=             -0.0001
 Octapole moment (field-independent basis, Debye-Ang**2):
  XXX=              8.7905  YYY=            -14.2888  ZZZ=             -0.0001  XYY=             -0.0623
  XXY=              2.4494  XXZ=             -0.0004  XZZ=             -0.8581  YZZ=             -3.0897
  YYZ=             -0.0001  XYZ=             -0.0001
 Hexadecapole moment (field-independent basis, Debye-Ang**3):
 XXXX=           -130.1986 YYYY=            -74.7164 ZZZZ=            -31.7261 XXXY=              6.1084
 XXXZ=             -0.0007 YYYX=              0.5518 YYYZ=             -0.0002 ZZZX=             -0.0001
 ZZZY=             -0.0001 XXYY=            -32.9834 XXZZ=            -28.3414 YYZZ=            -16.9825
 XXYZ=             -0.0002 YYXZ=             -0.0000 ZZXY=              0.2575
 N-N= 6.071710258581D+01 E-N=-5.725403687952D+02  KE= 1.875645605593D+02
  Exact polarizability:  47.208   2.814  43.783  -0.000   0.000  35.762
 Approx polarizability:  48.600   4.163  37.833  -0.000  -0.000  31.847
 Calling FoFJK, ICntrl=    100127 FMM=F ISym2X=0 I1Cent= 0 IOpClX= 0 NMat=1 NMatS=1 NMatT=0.
 Full mass-weighted force constant matrix:
 Low frequencies ---  -36.7843    0.0015    0.0015    0.0018   15.1552   15.4466
 Low frequencies ---  516.5819  560.6768  716.5873
 Diagonal vibrational polarizability:
       22.6872486       6.0063386       7.5325575
 Harmonic frequencies (cm**-1), IR intensities (KM/Mole), Raman scattering
 activities (A**4/AMU), depolarization ratios for plane and unpolarized
 incident light, reduced masses (AMU), force constants (mDyne/A),
 and normal coordinates:
                      1                      2                      3
                      A                      A                      A
 Frequencies --    516.5217               560.6764               716.5866
 Red. masses --      1.1615                11.3252                 5.3486
 Frc consts  --      0.1826                 2.0976                 1.6182
 IR Inten    --     74.6769               151.3419               138.6196
  Atom  AN      X      Y      Z        X      Y      Z        X      Y      Z
     1   1     0.00   0.00   0.99    -0.01   0.53   0.00     0.53  -0.59   0.00
     2   6     0.00  -0.00  -0.08    -0.31  -0.10  -0.00    -0.34   0.43  -0.00
     3   8    -0.00   0.00  -0.06     0.64  -0.10  -0.00     0.06  -0.17  -0.00
     4   8     0.00  -0.00   0.05    -0.41   0.14   0.00     0.16  -0.12   0.00
                      4                      5                      6
                      A                      A                      A
 Frequencies --   1143.6206              1730.2418              3898.3368
 Red. masses --      1.2588                11.6095                 1.0661
 Frc consts  --      0.9700                20.4776                 9.5457
 IR Inten    --    217.3887               443.3193                 8.3533
  Atom  AN      X      Y      Z        X      Y      Z        X      Y      Z
     1   1     0.76  -0.64   0.00    -0.28   0.26  -0.00     0.69   0.72  -0.00
     2   6     0.03  -0.05   0.00     0.53   0.52   0.00     0.00  -0.00  -0.00
     3   8     0.01   0.09  -0.00     0.04  -0.06   0.00    -0.04  -0.04   0.00
     4   8    -0.08  -0.01  -0.00    -0.42  -0.35  -0.00    -0.00   0.00   0.00

 -------------------
 - Thermochemistry -
 -------------------
 Temperature   298.150 Kelvin.  Pressure   1.00000 Atm.
 Atom     1 has atomic number  1 and mass   1.00783
 Atom     2 has atomic number  6 and mass  12.00000
 Atom     3 has atomic number  8 and mass  15.99491
 Atom     4 has atomic number  8 and mass  15.99491
 Molecular mass:    44.99765 amu.
 Principal axes and moments of inertia in atomic units:
                           1         2         3
     Eigenvalues --    18.85370 153.55332 172.40702
           X            0.99978   0.02099  -0.00000
           Y           -0.02099   0.99978  -0.00000
           Z            0.00000   0.00000   1.00000
 This molecule is an asymmetric top.
 Rotational symmetry number  1.
 Rotational temperatures (Kelvin)      4.59400     0.56406     0.50238
 Rotational constants (GHZ):          95.72344    11.75319    10.46791
 Zero-point vibrational energy      51236.0 (Joules/Mol)
                                   12.24569 (Kcal/Mol)
 Warning -- explicit consideration of   2 degrees of freedom as
           vibrations may cause significant error
 Vibrational temperatures:    743.16   806.69  1031.01  1645.42  2489.43
          (Kelvin)           5608.84
 
 Zero-point correction=                           0.019515 (Hartree/Particle)
 Thermal correction to Energy=                    0.022871
 Thermal correction to Enthalpy=                  0.023816
 Thermal correction to Gibbs Free Energy=        -0.004531
 Sum of electronic and zero-point Energies=           -189.056906
 Sum of electronic and thermal Energies=              -189.053550
 Sum of electronic and thermal Enthalpies=            -189.052605
 Sum of electronic and thermal Free Energies=         -189.080952
 
                     E (Thermal)             CV                S
                      KCal/Mol        Cal/Mol-Kelvin    Cal/Mol-Kelvin
 Total                   14.352              9.367             59.661
 Electronic               0.000              0.000              0.000
 Translational            0.889              2.981             37.338
 Rotational               0.889              2.981             20.840
 Vibrational             12.575              3.405              1.484
 Vibration     1          0.872              1.213              0.618
 Vibration     2          0.916              1.116              0.522
                       Q            Log10(Q)             Ln(Q)
 Total Bot       0.121425D+03          2.084307          4.799294
 Total V=0       0.114937D+12         11.060460         25.467650
 Vib (Bot)       0.127973D-08         -8.892883        -20.476619
 Vib (Bot)    1  0.313497D+00         -0.503767         -1.159967
 Vib (Bot)    2  0.277022D+00         -0.557486         -1.283658
 Vib (V=0)       0.121135D+01          0.083270          0.191737
 Vib (V=0)    1  0.109015D+01          0.037487          0.086318
 Vib (V=0)    2  0.107161D+01          0.030038          0.069165
 Electronic      0.100000D+01          0.000000          0.000000
 Translational   0.118642D+08          7.074239         16.289037
 Rotational      0.799744D+04          3.902951          8.986877
 ***** Axes restored to original set *****
 -------------------------------------------------------------------
 Center     Atomic                   Forces (Hartrees/Bohr)
 Number     Number              X              Y              Z
 -------------------------------------------------------------------
      1        1           0.000010723   -0.000027404   -0.000001049
      2        6          -0.000192158   -0.000104223    0.000000916
      3        8           0.000012100   -0.000081801    0.000000965
      4        8           0.000169335    0.000213428   -0.000000832
 -------------------------------------------------------------------
 Cartesian Forces:  Max     0.000213428 RMS     0.000103971
 FormGI is forming the generalized inverse of G from B-inverse, IUseBI=4.

 GradGradGradGradGradGradGradGradGradGradGradGradGradGradGradGradGradGrad
 Berny optimization.
 Internal  Forces:  Max     0.000273029 RMS     0.000122386
 Search for a local minimum.
 Step number   1 out of a maximum of    2
 All quantities printed in internal units (Hartrees-Bohrs-Radians)
 Second derivative matrix not updated -- analytic derivatives used.
 The second derivative matrix:
                          R1        R2        R3        A1        A2
           R1           0.54610
           R2          -0.00133   0.13247
           R3           0.00319   0.10135   0.80088
           A1           0.02423   0.06639   0.08271   0.44144
           A2           0.00729   0.02715   0.01194   0.05497   0.14268
           D1          -0.00000   0.00000   0.00000   0.00000   0.00000
                          D1
           D1           0.02832
 ITU=  0
     Eigenvalues ---    0.02832   0.10045   0.13991   0.43380   0.55068
     Eigenvalues ---    0.83873
 Angle between quadratic step and forces=  45.76 degrees.
 Linear search not attempted -- first point.
 Iteration  1 RMS(Cart)=  0.00032379 RMS(Int)=  0.00000001
 Iteration  2 RMS(Cart)=  0.00000001 RMS(Int)=  0.00000000
 Variable       Old X    -DE/DX   Delta X   Delta X   Delta X     New X
                                 (Linear)    (Quad)   (Total)
    R1        1.81950  -0.00001   0.00000  -0.00002  -0.00002   1.81948
    R2        2.80323  -0.00011   0.00000  -0.00058  -0.00058   2.80266
    R3        2.29756  -0.00027   0.00000  -0.00027  -0.00027   2.29729
    A1        1.92906  -0.00004   0.00000   0.00007   0.00007   1.92912
    A2        1.78176  -0.00005   0.00000  -0.00022  -0.00022   1.78154
    D1        3.14152   0.00000   0.00000   0.00007   0.00007   3.14159
         Item               Value     Threshold  Converged?
 Maximum Force            0.000273     0.000450     YES
 RMS     Force            0.000122     0.000300     YES
 Maximum Displacement     0.000470     0.001800     YES
 RMS     Displacement     0.000324     0.001200     YES
 Predicted change in Energy=-7.132943D-08
 Optimization completed.
    -- Stationary point found.
                           ----------------------------
                           !   Optimized Parameters   !
                           ! (Angstroms and Degrees)  !
 --------------------------                            --------------------------
 ! Name  Definition              Value          Derivative Info.                !
 --------------------------------------------------------------------------------
 ! R1    R(1,3)                  0.9628         -DE/DX =    0.0                 !
 ! R2    R(2,3)                  1.4834         -DE/DX =   -0.0001              !
 ! R3    R(2,4)                  1.2158         -DE/DX =   -0.0003              !
 ! A1    A(3,2,4)              110.5269         -DE/DX =    0.0                 !
 ! A2    A(1,3,2)              102.0871         -DE/DX =    0.0                 !
 ! D1    D(4,2,3,1)            179.9961         -DE/DX =    0.0                 !
 --------------------------------------------------------------------------------
 GradGradGradGradGradGradGradGradGradGradGradGradGradGradGradGradGradGrad


 ----------------------------------------------------------------------

 Electric dipole moment (input orientation):
 (Debye = 10**-18 statcoulomb cm , SI units = C m)
                  (au)            (Debye)         (10**-30 SI)
   Tot        0.749818D+00      0.190585D+01      0.635722D+01
   x         -0.470297D-01     -0.119538D+00     -0.398735D+00
   y          0.748341D+00      0.190209D+01      0.634470D+01
   z         -0.105856D-03     -0.269059D-03     -0.897484D-03

 Dipole polarizability, Alpha (input orientation).
 (esu units = cm**3 , SI units = C**2 m**2 J**-1)
 Alpha(0;0):
               (au)            (10**-24 esu)      (10**-40 SI)
   iso        0.422509D+02      0.626094D+01      0.696624D+01
   aniso      0.112834D+02      0.167202D+01      0.186038D+01
   xx         0.443360D+02      0.656992D+01      0.731003D+01
   yx         0.308373D+01      0.456962D+00      0.508438D+00
   yy         0.466552D+02      0.691359D+01      0.769240D+01
   zx         0.536004D-02      0.794276D-03      0.883751D-03
   zy         0.789040D-03      0.116924D-03      0.130095D-03
   zz         0.357615D+02      0.529931D+01      0.589628D+01

 ----------------------------------------------------------------------

 Dipole orientation:
     1         -1.97639648         -0.12467864          3.40376697
     6         -2.38372694         -0.15005484         -0.22090142
     8         -3.46657311         -0.21727039          2.36387142
     8         -4.05269336         -0.25391042         -1.79650841

 Electric dipole moment (dipole orientation):
 (Debye = 10**-18 statcoulomb cm , SI units = C m)
                  (au)            (Debye)         (10**-30 SI)
   Tot        0.749818D+00      0.190585D+01      0.635722D+01
   x          0.000000D+00      0.000000D+00      0.000000D+00
   y          0.000000D+00      0.000000D+00      0.000000D+00
   z          0.749818D+00      0.190585D+01      0.635722D+01

 Dipole polarizability, Alpha (dipole orientation).
 (esu units = cm**3 , SI units = C**2 m**2 J**-1)
 Alpha(0;0):
               (au)            (10**-24 esu)      (10**-40 SI)
   iso        0.422509D+02      0.626094D+01      0.696624D+01
   aniso      0.112834D+02      0.167202D+01      0.186038D+01
   xx         0.446967D+02      0.662337D+01      0.736949D+01
   yx         0.555680D+00      0.823433D-01      0.916193D-01
   yy         0.357961D+02      0.530443D+01      0.590198D+01
   zx         0.319845D+01      0.473962D+00      0.527354D+00
   zy         0.199070D+00      0.294992D-01      0.328223D-01
   zz         0.462600D+02      0.685503D+01      0.762725D+01

 ----------------------------------------------------------------------
 1\1\GINC-NODE3\Freq\RM062X\6-31+G(d,p)\C1H1O2(1-)\GONGKE2021\06-May-20
 23\0\\#N Geom=AllCheck Guess=TCheck SCRF=Check GenChk RM062X/6-31+G(d,
 p) Freq\\"Sketch 2"\\-1,1\H,-1.1588533571,1.7319209141,-0.0000052826\C
 ,-1.254090322,-0.1959402349,0.0001479474\O,-1.9128708247,1.1331597599,
 -0.0004867829\O,-2.0849394962,-1.0835754391,-0.000278882\\Version=ES64
 L-G16RevA.03\State=1-A\HF=-189.076421\RMSD=1.191e-09\RMSF=1.040e-04\Ze
 roPoint=0.0195147\Thermal=0.0228714\Dipole=-0.0470297,0.7483414,-0.000
 1059\DipoleDeriv=0.0733275,-0.1177497,-0.0001093,-0.0379334,0.2366421,
 -0.0000198,-0.0001209,-0.000091,0.2435049,0.8273504,0.5157239,0.000901
 1,-0.0946699,1.8973223,-0.0004319,0.0009675,-0.0000165,-0.6009498,-0.7
 650356,0.7804103,-0.0003514,0.5116302,-1.6203476,0.0005276,-0.0003051,
 0.0007163,-0.3972004,-1.1356422,-1.1783846,-0.0004404,-0.3790269,-1.51
 36169,-0.000076,-0.0005415,-0.0006088,-0.2453548\Polar=44.3360426,3.08
 37301,46.6552098,0.00536,0.000789,35.7615358\Quadrupole=-1.3868801,-0.
 4474226,1.8343027,1.3905309,-0.0023048,0.0014098\PG=C01 [X(C1H1O2)]\NI
 mag=0\\0.34761141,0.24595087,0.24146435,0.00021915,0.00015228,0.008636
 24,0.00802059,-0.03610938,0.00001533,0.55548296,0.01490782,-0.00959587
 ,0.00001181,0.30201379,0.41558708,0.00001025,-0.00002490,-0.00847189,0
 .00032508,0.00014251,0.00790744,-0.35677489,-0.21721406,-0.00022925,-0
 .12963813,0.01001469,-0.00009650,0.43651056,-0.26198174,-0.21516199,-0
 .00016802,0.06186527,-0.02239409,0.00004638,0.23590203,0.33917837,-0.0
 0022443,-0.00013549,-0.00771085,-0.00010168,0.00000904,0.00756204,0.00
 028259,0.00013233,0.00697332,0.00114288,0.00737258,-0.00000523,-0.4338
 6542,-0.32693629,-0.00023883,0.04990246,-0.03578556,0.00004352,0.38282
 008,0.00112306,-0.01670649,0.00000394,-0.32776968,-0.38359712,-0.00016
 399,-0.02870266,-0.10162229,-0.00000589,0.35534927,0.50192590,-0.00000
 498,0.00000811,0.00754650,-0.00023873,-0.00016336,-0.00699759,0.000043
 17,-0.00001069,-0.00682451,0.00020054,0.00016594,0.00627560\\-0.000010
 72,0.00002740,0.00000105,0.00019216,0.00010422,-0.00000092,-0.00001210
 ,0.00008180,-0.00000097,-0.00016933,-0.00021343,0.00000083\\\@


 THE 2ND LAW OF THERMODYNAMICS HAS THE SAME
 DEGREE OF TRUTH AS THE STATEMENT THAT IF YOU THROW
 A TUMBLERFULL OF WATER INTO THE SEA, YOU CANNOT GET
 THE SAME TUMBLERFULL OF WATER OUT AGAIN.
          - J.C. MAXWELL, LETTER TO LORD RAYLEIGH, DECEMBER 6,1870
 Job cpu time:       0 days  0 hours  1 minutes 43.5 seconds.
 Elapsed time:       0 days  0 hours  0 minutes  5.7 seconds.
 File lengths (MBytes):  RWF=      6 Int=      0 D2E=      0 Chk=      1 Scr=      1
 Normal termination of Gaussian 16 at Sat May  6 04:44:14 2023.
