 Entering Gaussian System, Link 0=/opt/soft/g16b/g16/g16
 Initial command:
 /opt/soft/g16b/g16/l1.exe "/scratch/gongke2021/1-H-Tz-HCOO-/Gau-4976.inp" -scrdir="/scratch/gongke2021/1-H-Tz-HCOO-/"
 Entering Link 1 = /opt/soft/g16b/g16/l1.exe PID=      4977.
  
 Copyright (c) 1988,1990,1992,1993,1995,1998,2003,2009,2016,
            Gaussian, Inc.  All Rights Reserved.
  
 This is part of the Gaussian(R) 16 program.  It is based on
 the Gaussian(R) 09 system (copyright 2009, Gaussian, Inc.),
 the Gaussian(R) 03 system (copyright 2003, Gaussian, Inc.),
 the Gaussian(R) 98 system (copyright 1998, Gaussian, Inc.),
 the Gaussian(R) 94 system (copyright 1995, Gaussian, Inc.),
 the Gaussian 92(TM) system (copyright 1992, Gaussian, Inc.),
 the Gaussian 90(TM) system (copyright 1990, Gaussian, Inc.),
 the Gaussian 88(TM) system (copyright 1988, Gaussian, Inc.),
 the Gaussian 86(TM) system (copyright 1986, Carnegie Mellon
 University), and the Gaussian 82(TM) system (copyright 1983,
 Carnegie Mellon University). Gaussian is a federally registered
 trademark of Gaussian, Inc.
  
 This software contains proprietary and confidential information,
 including trade secrets, belonging to Gaussian, Inc.
  
 This software is provided under written license and may be
 used, copied, transmitted, or stored only in accord with that
 written license.
  
 The following legend is applicable only to US Government
 contracts under FAR:
  
                    RESTRICTED RIGHTS LEGEND
  
 Use, reproduction and disclosure by the US Government is
 subject to restrictions as set forth in subparagraphs (a)
 and (c) of the Commercial Computer Software - Restricted
 Rights clause in FAR 52.227-19.
  
 Gaussian, Inc.
 340 Quinnipiac St., Bldg. 40, Wallingford CT 06492
  
  
 ---------------------------------------------------------------
 Warning -- This program may not be used in any manner that
 competes with the business of Gaussian, Inc. or will provide
 assistance to any competitor of Gaussian, Inc.  The licensee
 of this program is prohibited from giving any competitor of
 Gaussian, Inc. access to this program.  By using this program,
 the user acknowledges that Gaussian, Inc. is engaged in the
 business of creating and licensing software in the field of
 computational chemistry and represents and warrants to the
 licensee that it is not a competitor of Gaussian, Inc. and that
 it will not use this program in any manner prohibited above.
 ---------------------------------------------------------------
  

 Cite this work as:
 Gaussian 16, Revision A.03,
 M. J. Frisch, G. W. Trucks, H. B. Schlegel, G. E. Scuseria, 
 M. A. Robb, J. R. Cheeseman, G. Scalmani, V. Barone, 
 G. A. Petersson, H. Nakatsuji, X. Li, M. Caricato, A. V. Marenich, 
 J. Bloino, B. G. Janesko, R. Gomperts, B. Mennucci, H. P. Hratchian, 
 J. V. Ortiz, A. F. Izmaylov, J. L. Sonnenberg, D. Williams-Young, 
 F. Ding, F. Lipparini, F. Egidi, J. Goings, B. Peng, A. Petrone, 
 T. Henderson, D. Ranasinghe, V. G. Zakrzewski, J. Gao, N. Rega, 
 G. Zheng, W. Liang, M. Hada, M. Ehara, K. Toyota, R. Fukuda, 
 J. Hasegawa, M. Ishida, T. Nakajima, Y. Honda, O. Kitao, H. Nakai, 
 T. Vreven, K. Throssell, J. A. Montgomery, Jr., J. E. Peralta, 
 F. Ogliaro, M. J. Bearpark, J. J. Heyd, E. N. Brothers, K. N. Kudin, 
 V. N. Staroverov, T. A. Keith, R. Kobayashi, J. Normand, 
 K. Raghavachari, A. P. Rendell, J. C. Burant, S. S. Iyengar, 
 J. Tomasi, M. Cossi, J. M. Millam, M. Klene, C. Adamo, R. Cammi, 
 J. W. Ochterski, R. L. Martin, K. Morokuma, O. Farkas, 
 J. B. Foresman, and D. J. Fox, Gaussian, Inc., Wallingford CT, 2016.
 
 ******************************************
 Gaussian 16:  ES64L-G16RevA.03 25-Dec-2016
                13-Oct-2023 
 ******************************************
 %mem=10GB
 %nprocshared=20
 Will use up to   20 processors via shared memory.
 ----------------------------
 # opt freq 6-31+g(d,p) m062x
 ----------------------------
 1/18=20,19=15,26=3,38=1/1,3;
 2/9=110,12=2,17=6,18=5,40=1/2;
 3/5=1,6=6,7=111,11=2,25=1,30=1,71=1,74=-55/1,2,3;
 4//1;
 5/5=2,38=5/2;
 6/7=2,8=2,9=2,10=2,28=1/1;
 7//1,2,3,16;
 1/18=20,19=15,26=3/3(2);
 2/9=110/2;
 99//99;
 2/9=110/2;
 3/5=1,6=6,7=111,11=2,25=1,30=1,71=1,74=-55/1,2,3;
 4/5=5,16=3,69=1/1;
 5/5=2,38=5/2;
 7//1,2,3,16;
 1/18=20,19=15,26=3/3(-5);
 2/9=110/2;
 6/7=2,8=2,9=2,10=2,19=2,28=1/1;
 99/9=1/99;
 ----------
 "Sketch 2"
 ----------
 Symbolic Z-matrix:
 Charge =  1 Multiplicity = 1
 H                    -1.1293    1.73848  -0.00013 
 C                    -1.34882  -0.13544   0.00019 
 O                    -1.8857    1.12093  -0.00033 
 O                    -2.04693  -1.13841  -0.00036 
 

 GradGradGradGradGradGradGradGradGradGradGradGradGradGradGradGradGradGrad
 Berny optimization.
 Initialization pass.
                           ----------------------------
                           !    Initial Parameters    !
                           ! (Angstroms and Degrees)  !
 --------------------------                            --------------------------
 ! Name  Definition              Value          Derivative Info.                !
 --------------------------------------------------------------------------------
 ! R1    R(1,3)                  0.9765         estimate D2E/DX2                !
 ! R2    R(2,3)                  1.3663         estimate D2E/DX2                !
 ! R3    R(2,4)                  1.222          estimate D2E/DX2                !
 ! A1    A(3,2,4)              122.022          estimate D2E/DX2                !
 ! A2    A(1,3,2)              106.0909         estimate D2E/DX2                !
 ! D1    D(4,2,3,1)           -179.9746         estimate D2E/DX2                !
 --------------------------------------------------------------------------------
 Trust Radius=3.00D-01 FncErr=1.00D-07 GrdErr=1.00D-06 EigMax=2.50D+02 EigMin=1.00D-04
 Number of steps in this run=     20 maximum allowed number of steps=    100.
 GradGradGradGradGradGradGradGradGradGradGradGradGradGradGradGradGradGrad

                          Input orientation:                          
 ---------------------------------------------------------------------
 Center     Atomic      Atomic             Coordinates (Angstroms)
 Number     Number       Type             X           Y           Z
 ---------------------------------------------------------------------
      1          1           0       -1.129302    1.738481   -0.000128
      2          6           0       -1.348819   -0.135436    0.000193
      3          8           0       -1.885702    1.120930   -0.000331
      4          8           0       -2.046931   -1.138410   -0.000357
 ---------------------------------------------------------------------
                    Distance matrix (angstroms):
                    1          2          3          4
     1  H    0.000000
     2  C    1.886731   0.000000
     3  O    0.976478   1.366272   0.000000
     4  O    3.019693   1.222014   2.265085   0.000000
 Stoichiometry    CHO2(1+)
 Framework group  C1[X(CHO2)]
 Deg. of freedom     6
 Full point group                 C1      NOp   1
 Largest Abelian subgroup         C1      NOp   1
 Largest concise Abelian subgroup C1      NOp   1
                         Standard orientation:                         
 ---------------------------------------------------------------------
 Center     Atomic      Atomic             Coordinates (Angstroms)
 Number     Number       Type             X           Y           Z
 ---------------------------------------------------------------------
      1          1           0        1.761579    0.458808    0.000299
      2          6           0       -0.125006    0.435382   -0.000057
      3          8           0        1.068706   -0.229260   -0.000029
      4          8           0       -1.195149   -0.154627    0.000034
 ---------------------------------------------------------------------
 Rotational constants (GHZ):         136.9996053          11.3878503          10.5139009
 Standard basis: 6-31+G(d,p) (6D, 7F)
 There are    62 symmetry adapted cartesian basis functions of A   symmetry.
 There are    62 symmetry adapted basis functions of A   symmetry.
    62 basis functions,   103 primitive gaussians,    62 cartesian basis functions
    11 alpha electrons       11 beta electrons
       nuclear repulsion energy        61.7489558522 Hartrees.
 NAtoms=    4 NActive=    4 NUniq=    4 SFac= 1.00D+00 NAtFMM=   60 NAOKFM=F Big=F
 Integral buffers will be    131072 words long.
 Raffenetti 2 integral format.
 Two-electron integral symmetry is turned on.
 One-electron integrals computed using PRISM.
 NBasis=    62 RedAO= T EigKep=  4.32D-03  NBF=    62
 NBsUse=    62 1.00D-06 EigRej= -1.00D+00 NBFU=    62
 ExpMin= 4.38D-02 ExpMax= 5.48D+03 ExpMxC= 8.25D+02 IAcc=3 IRadAn=         5 AccDes= 0.00D+00
 Harris functional with IExCor= 1009 and IRadAn=       5 diagonalized for initial guess.
 HarFok:  IExCor= 1009 AccDes= 0.00D+00 IRadAn=         5 IDoV= 1 UseB2=F ITyADJ=14
 ICtDFT=  3500011 ScaDFX=  1.000000  1.000000  1.000000  1.000000
 FoFCou: FMM=F IPFlag=           0 FMFlag=      100000 FMFlg1=           0
         NFxFlg=           0 DoJE=T BraDBF=F KetDBF=T FulRan=T
         wScrn=  0.000000 ICntrl=       500 IOpCl=  0 I1Cent=   200000004 NGrid=           0
         NMat0=    1 NMatS0=      1 NMatT0=    0 NMatD0=    1 NMtDS0=    0 NMtDT0=    0
 Petite list used in FoFCou.
 Keep R1 ints in memory in canonical form, NReq=19599261.
 Requested convergence on RMS density matrix=1.00D-08 within 128 cycles.
 Requested convergence on MAX density matrix=1.00D-06.
 Requested convergence on             energy=1.00D-06.
 No special actions if energy rises.
 SCF Done:  E(RM062X) =  -188.633341833     A.U. after   13 cycles
            NFock= 13  Conv=0.46D-08     -V/T= 2.0109

 **********************************************************************

            Population analysis using the SCF density.

 **********************************************************************

 Orbital symmetries:
       Occupied  (A) (A) (A) (A) (A) (A) (A) (A) (A) (A) (A)
       Virtual   (A) (A) (A) (A) (A) (A) (A) (A) (A) (A) (A) (A)
                 (A) (A) (A) (A) (A) (A) (A) (A) (A) (A) (A) (A)
                 (A) (A) (A) (A) (A) (A) (A) (A) (A) (A) (A) (A)
                 (A) (A) (A) (A) (A) (A) (A) (A) (A) (A) (A) (A)
                 (A) (A) (A)
 The electronic state is 1-A.
 Alpha  occ. eigenvalues --  -20.09840 -20.08858 -11.11300  -1.59758  -1.52425
 Alpha  occ. eigenvalues --   -1.05304  -0.93484  -0.89833  -0.88005  -0.79456
 Alpha  occ. eigenvalues --   -0.76299
 Alpha virt. eigenvalues --   -0.45798  -0.30950  -0.19459  -0.12765  -0.11893
 Alpha virt. eigenvalues --   -0.11494  -0.04995  -0.02962   0.00258   0.00391
 Alpha virt. eigenvalues --    0.02337   0.03987   0.05537   0.07511   0.09449
 Alpha virt. eigenvalues --    0.13004   0.17264   0.37460   0.39880   0.47821
 Alpha virt. eigenvalues --    0.69831   0.79039   0.86738   0.88343   0.93263
 Alpha virt. eigenvalues --    0.96612   0.97065   1.04170   1.08438   1.15799
 Alpha virt. eigenvalues --    1.21007   1.25549   1.27532   1.33944   1.47747
 Alpha virt. eigenvalues --    1.53280   1.53291   1.75057   1.98414   2.00948
 Alpha virt. eigenvalues --    2.11406   2.22200   2.25424   2.37482   2.53068
 Alpha virt. eigenvalues --    2.58088   2.83146   3.14014   3.77393   3.83212
 Alpha virt. eigenvalues --    3.97014
          Condensed to atoms (all electrons):
               1          2          3          4
     1  H    0.288195   0.002555   0.241759   0.005249
     2  C    0.002555   4.485813   0.293378   0.512738
     3  O    0.241759   0.293378   7.749168  -0.060247
     4  O    0.005249   0.512738  -0.060247   7.485961
 Mulliken charges:
               1
     1  H    0.462243
     2  C    0.705516
     3  O   -0.224058
     4  O    0.056299
 Sum of Mulliken charges =   1.00000
 Mulliken charges with hydrogens summed into heavy atoms:
               1
     2  C    0.705516
     3  O    0.238185
     4  O    0.056299
 Electronic spatial extent (au):  <R**2>=            117.4243
 Charge=              1.0000 electrons
 Dipole moment (field-independent basis, Debye):
    X=              2.4676    Y=              2.6585    Z=              0.0005  Tot=              3.6272
 Quadrupole moment (field-independent basis, Debye-Ang):
   XX=             -7.6944   YY=            -12.3249   ZZ=            -14.3788
   XY=              2.1928   XZ=              0.0014   YZ=              0.0003
 Traceless Quadrupole moment (field-independent basis, Debye-Ang):
   XX=              3.7716   YY=             -0.8589   ZZ=             -2.9128
   XY=              2.1928   XZ=              0.0014   YZ=              0.0003
 Octapole moment (field-independent basis, Debye-Ang**2):
  XXX=             13.4338  YYY=              0.4181  ZZZ=              0.0003  XYY=              1.0803
  XXY=              2.8562  XXZ=              0.0029  XZZ=              0.0746  YZZ=              0.1134
  YYZ=              0.0002  XYZ=              0.0007
 Hexadecapole moment (field-independent basis, Debye-Ang**3):
 XXXX=            -66.4156 YYYY=            -16.2917 ZZZZ=            -10.5066 XXXY=              7.7862
 XXXZ=              0.0051 YYYX=              1.8229 YYYZ=              0.0002 ZZZX=              0.0006
 ZZZY=              0.0001 XXYY=            -15.7963 XXZZ=            -17.6848 YYZZ=             -4.5319
 XXYZ=              0.0012 YYXZ=              0.0005 ZZXY=              0.4747
 N-N= 6.174895585221D+01 E-N=-5.589596126047D+02  KE= 1.866033703177D+02
 Calling FoFJK, ICntrl=      2127 FMM=F ISym2X=0 I1Cent= 0 IOpClX= 0 NMat=1 NMatS=1 NMatT=0.
 ***** Axes restored to original set *****
 -------------------------------------------------------------------
 Center     Atomic                   Forces (Hartrees/Bohr)
 Number     Number              X              Y              Z
 -------------------------------------------------------------------
      1        1          -0.000406951    0.022977259   -0.000000313
      2        6          -0.219014646   -0.053473536   -0.000185746
      3        8           0.085948341   -0.064566874    0.000071395
      4        8           0.133473256    0.095063151    0.000114663
 -------------------------------------------------------------------
 Cartesian Forces:  Max     0.219014646 RMS     0.086488495

 GradGradGradGradGradGradGradGradGradGradGradGradGradGradGradGradGradGrad
 Berny optimization.
 FormGI is forming the generalized inverse of G from B-inverse, IUseBI=4.
 Internal  Forces:  Max     0.154274753 RMS     0.088082076
 Search for a local minimum.
 Step number   1 out of a maximum of   20
 All quantities printed in internal units (Hartrees-Bohrs-Radians)
 Mixed Optimization -- RFO/linear search
 Second derivative matrix not updated -- first step.
 The second derivative matrix:
                          R1        R2        R3        A1        A2
           R1           0.52075
           R2           0.00000   0.51700
           R3           0.00000   0.00000   0.94497
           A1           0.00000   0.00000   0.00000   0.25000
           A2           0.00000   0.00000   0.00000   0.00000   0.16000
           D1           0.00000   0.00000   0.00000   0.00000   0.00000
                          D1
           D1           0.02138
 ITU=  0
     Eigenvalues ---    0.02138   0.16000   0.25000   0.51700   0.52075
     Eigenvalues ---    0.94497
 RFO step:  Lambda=-8.51087194D-02 EMin= 2.13793727D-02
 Linear search not attempted -- first point.
 Maximum step size (   0.300) exceeded in Quadratic search.
    -- Step size scaled by   0.670
 Iteration  1 RMS(Cart)=  0.09418143 RMS(Int)=  0.02101140
 Iteration  2 RMS(Cart)=  0.02411585 RMS(Int)=  0.00053166
 Iteration  3 RMS(Cart)=  0.00058307 RMS(Int)=  0.00000006
 Iteration  4 RMS(Cart)=  0.00000006 RMS(Int)=  0.00000000
 Variable       Old X    -DE/DX   Delta X   Delta X   Delta X     New X
                                 (Linear)    (Quad)   (Total)
    R1        1.84528   0.01422   0.00000   0.01572   0.01572   1.86099
    R2        2.58188  -0.07186   0.00000  -0.07993  -0.07993   2.50195
    R3        2.30927  -0.15427   0.00000  -0.10031  -0.10031   2.20896
    A1        2.12969   0.12757   0.00000   0.25497   0.25497   2.38466
    A2        1.85164   0.03332   0.00000   0.09105   0.09105   1.94269
    D1       -3.14115  -0.00001   0.00000  -0.00006  -0.00006  -3.14121
         Item               Value     Threshold  Converged?
 Maximum Force            0.154275     0.000450     NO 
 RMS     Force            0.088082     0.000300     NO 
 Maximum Displacement     0.226868     0.001800     NO 
 RMS     Displacement     0.115409     0.001200     NO 
 Predicted change in Energy=-4.174375D-02
 GradGradGradGradGradGradGradGradGradGradGradGradGradGradGradGradGradGrad

                          Input orientation:                          
 ---------------------------------------------------------------------
 Center     Atomic      Atomic             Coordinates (Angstroms)
 Number     Number       Type             X           Y           Z
 ---------------------------------------------------------------------
      1          1           0       -1.096350    1.752701   -0.000096
      2          6           0       -1.468872   -0.126535    0.000065
      3          8           0       -1.864819    1.136847   -0.000312
      4          8           0       -1.980712   -1.177448   -0.000281
 ---------------------------------------------------------------------
                    Distance matrix (angstroms):
                    1          2          3          4
     1  H    0.000000
     2  C    1.915802   0.000000
     3  O    0.984795   1.323973   0.000000
     4  O    3.060697   1.168931   2.317194   0.000000
 Stoichiometry    CHO2(1+)
 Framework group  C1[X(CHO2)]
 Deg. of freedom     6
 Full point group                 C1      NOp   1
 Largest Abelian subgroup         C1      NOp   1
 Largest concise Abelian subgroup C1      NOp   1
                         Standard orientation:                         
 ---------------------------------------------------------------------
 Center     Atomic      Atomic             Coordinates (Angstroms)
 Number     Number       Type             X           Y           Z
 ---------------------------------------------------------------------
      1          1           0        1.776342    0.516905    0.000218
      2          6           0       -0.128488    0.312151   -0.000058
      3          8           0        1.094897   -0.194048   -0.000015
      4          8           0       -1.220574   -0.104678    0.000031
 ---------------------------------------------------------------------
 Rotational constants (GHZ):         230.6986780          10.9075984          10.4151622
 Standard basis: 6-31+G(d,p) (6D, 7F)
 There are    62 symmetry adapted cartesian basis functions of A   symmetry.
 There are    62 symmetry adapted basis functions of A   symmetry.
    62 basis functions,   103 primitive gaussians,    62 cartesian basis functions
    11 alpha electrons       11 beta electrons
       nuclear repulsion energy        62.8696577884 Hartrees.
 NAtoms=    4 NActive=    4 NUniq=    4 SFac= 1.00D+00 NAtFMM=   60 NAOKFM=F Big=F
 Integral buffers will be    131072 words long.
 Raffenetti 2 integral format.
 Two-electron integral symmetry is turned on.
 One-electron integrals computed using PRISM.
 NBasis=    62 RedAO= T EigKep=  3.98D-03  NBF=    62
 NBsUse=    62 1.00D-06 EigRej= -1.00D+00 NBFU=    62
 Initial guess from the checkpoint file:  "/scratch/gongke2021/1-H-Tz-HCOO-/Gau-4977.chk"
 B after Tr=    -0.000000   -0.000000   -0.000000
         Rot=    1.000000    0.000042    0.000000   -0.000720 Ang=   0.08 deg.
 ExpMin= 4.38D-02 ExpMax= 5.48D+03 ExpMxC= 8.25D+02 IAcc=2 IRadAn=         4 AccDes= 0.00D+00
 Harris functional with IExCor= 1009 and IRadAn=       4 diagonalized for initial guess.
 HarFok:  IExCor= 1009 AccDes= 0.00D+00 IRadAn=         4 IDoV= 1 UseB2=F ITyADJ=14
 ICtDFT=  3500011 ScaDFX=  1.000000  1.000000  1.000000  1.000000
 FoFCou: FMM=F IPFlag=           0 FMFlag=      100000 FMFlg1=           0
         NFxFlg=           0 DoJE=T BraDBF=F KetDBF=T FulRan=T
         wScrn=  0.000000 ICntrl=       500 IOpCl=  0 I1Cent=   200000004 NGrid=           0
         NMat0=    1 NMatS0=      1 NMatT0=    0 NMatD0=    1 NMtDS0=    0 NMtDT0=    0
 Petite list used in FoFCou.
 Keep R1 ints in memory in canonical form, NReq=19599261.
 Requested convergence on RMS density matrix=1.00D-08 within 128 cycles.
 Requested convergence on MAX density matrix=1.00D-06.
 Requested convergence on             energy=1.00D-06.
 No special actions if energy rises.
 SCF Done:  E(RM062X) =  -188.681981743     A.U. after   12 cycles
            NFock= 12  Conv=0.36D-08     -V/T= 2.0101
 Calling FoFJK, ICntrl=      2127 FMM=F ISym2X=0 I1Cent= 0 IOpClX= 0 NMat=1 NMatS=1 NMatT=0.
 ***** Axes restored to original set *****
 -------------------------------------------------------------------
 Center     Atomic                   Forces (Hartrees/Bohr)
 Number     Number              X              Y              Z
 -------------------------------------------------------------------
      1        1          -0.001609420    0.011103216    0.000000476
      2        6          -0.138711466   -0.008192972   -0.000110608
      3        8           0.064264053   -0.063870421    0.000050113
      4        8           0.076056833    0.060960177    0.000060020
 -------------------------------------------------------------------
 Cartesian Forces:  Max     0.138711466 RMS     0.055635697

 GradGradGradGradGradGradGradGradGradGradGradGradGradGradGradGradGradGrad
 Berny optimization.
 Using GEDIIS/GDIIS optimizer.
 FormGI is forming the generalized inverse of G from B-inverse, IUseBI=4.
 Internal  Forces:  Max     0.092089195 RMS     0.059684190
 Search for a local minimum.
 Step number   2 out of a maximum of   20
 All quantities printed in internal units (Hartrees-Bohrs-Radians)
 Mixed Optimization -- RFO/linear search
 Update second derivatives using D2CorX and points    1    2
 DE= -4.86D-02 DEPred=-4.17D-02 R= 1.17D+00
 TightC=F SS=  1.41D+00  RLast= 3.00D-01 DXNew= 5.0454D-01 9.0000D-01
 Trust test= 1.17D+00 RLast= 3.00D-01 DXMaxT set to 5.05D-01
 The second derivative matrix:
                          R1        R2        R3        A1        A2
           R1           0.52273
           R2           0.00973   0.46148
           R3          -0.00695  -0.11784   0.90166
           A1           0.00027   0.08067   0.06332   0.18908
           A2           0.00359   0.01729  -0.01289   0.00075   0.16651
           D1          -0.00000  -0.00000   0.00001  -0.00000  -0.00000
                          D1
           D1           0.02138
 ITU=  1  0
 Use linear search instead of GDIIS.
     Eigenvalues ---    0.02138   0.15443   0.16620   0.46306   0.52359
     Eigenvalues ---    0.93418
 RFO step:  Lambda=-9.20541519D-03 EMin= 2.13793731D-02
 Quartic linear search produced a step of  1.67609.
 Iteration  1 RMS(Cart)=  0.11503819 RMS(Int)=  0.11460097
 Iteration  2 RMS(Cart)=  0.09428702 RMS(Int)=  0.03072571
 Iteration  3 RMS(Cart)=  0.03394094 RMS(Int)=  0.00108867
 Iteration  4 RMS(Cart)=  0.00112486 RMS(Int)=  0.00000019
 Iteration  5 RMS(Cart)=  0.00000021 RMS(Int)=  0.00000000
 Variable       Old X    -DE/DX   Delta X   Delta X   Delta X     New X
                                 (Linear)    (Quad)   (Total)
    R1        1.86099   0.00569   0.02634  -0.01660   0.00974   1.87074
    R2        2.50195  -0.06909  -0.13397  -0.11997  -0.25395   2.24800
    R3        2.20896  -0.08811  -0.16813   0.01655  -0.15158   2.05738
    A1        2.38466   0.09209   0.42736   0.06054   0.48790   2.87256
    A2        1.94269   0.01800   0.15261  -0.09015   0.06246   2.00515
    D1       -3.14121  -0.00001  -0.00010   0.00023   0.00014  -3.14107
         Item               Value     Threshold  Converged?
 Maximum Force            0.092089     0.000450     NO 
 RMS     Force            0.059684     0.000300     NO 
 Maximum Displacement     0.417198     0.001800     NO 
 RMS     Displacement     0.234164     0.001200     NO 
 Predicted change in Energy=-4.827217D-02
 GradGradGradGradGradGradGradGradGradGradGradGradGradGradGradGradGradGrad

                          Input orientation:                          
 ---------------------------------------------------------------------
 Center     Atomic      Atomic             Coordinates (Angstroms)
 Number     Number       Type             X           Y           Z
 ---------------------------------------------------------------------
      1          1           0       -1.035129    1.662182   -0.000090
      2          6           0       -1.689644   -0.057671   -0.000101
      3          8           0       -1.862904    1.119235   -0.000239
      4          8           0       -1.823077   -1.138180   -0.000193
 ---------------------------------------------------------------------
                    Distance matrix (angstroms):
                    1          2          3          4
     1  H    0.000000
     2  C    1.840186   0.000000
     3  O    0.989951   1.189591   0.000000
     4  O    2.909104   1.088717   2.257766   0.000000
 Stoichiometry    CHO2(1+)
 Framework group  C1[X(CHO2)]
 Deg. of freedom     6
 Full point group                 C1      NOp   1
 Largest Abelian subgroup         C1      NOp   1
 Largest concise Abelian subgroup C1      NOp   1
                         Standard orientation:                         
 ---------------------------------------------------------------------
 Center     Atomic      Atomic             Coordinates (Angstroms)
 Number     Number       Type             X           Y           Z
 ---------------------------------------------------------------------
      1          1           0        1.637874    0.671829    0.000063
      2          6           0       -0.105298    0.082222   -0.000058
      3          8           0        1.064288   -0.135019    0.000011
      4          8           0       -1.190049   -0.010626    0.000024
 ---------------------------------------------------------------------
 Rotational constants (GHZ):         639.3393203          11.5973919          11.3907674
 Standard basis: 6-31+G(d,p) (6D, 7F)
 There are    62 symmetry adapted cartesian basis functions of A   symmetry.
 There are    62 symmetry adapted basis functions of A   symmetry.
    62 basis functions,   103 primitive gaussians,    62 cartesian basis functions
    11 alpha electrons       11 beta electrons
       nuclear repulsion energy        67.1403922204 Hartrees.
 NAtoms=    4 NActive=    4 NUniq=    4 SFac= 1.00D+00 NAtFMM=   60 NAOKFM=F Big=F
 Integral buffers will be    131072 words long.
 Raffenetti 2 integral format.
 Two-electron integral symmetry is turned on.
 One-electron integrals computed using PRISM.
 NBasis=    62 RedAO= T EigKep=  1.22D-03  NBF=    62
 NBsUse=    62 1.00D-06 EigRej= -1.00D+00 NBFU=    62
 Initial guess from the checkpoint file:  "/scratch/gongke2021/1-H-Tz-HCOO-/Gau-4977.chk"
 B after Tr=    -0.000000    0.000000   -0.000000
         Rot=    0.999999    0.000169    0.000001   -0.001162 Ang=   0.13 deg.
 ExpMin= 4.38D-02 ExpMax= 5.48D+03 ExpMxC= 8.25D+02 IAcc=2 IRadAn=         4 AccDes= 0.00D+00
 Harris functional with IExCor= 1009 and IRadAn=       4 diagonalized for initial guess.
 HarFok:  IExCor= 1009 AccDes= 0.00D+00 IRadAn=         4 IDoV= 1 UseB2=F ITyADJ=14
 ICtDFT=  3500011 ScaDFX=  1.000000  1.000000  1.000000  1.000000
 FoFCou: FMM=F IPFlag=           0 FMFlag=      100000 FMFlg1=           0
         NFxFlg=           0 DoJE=T BraDBF=F KetDBF=T FulRan=T
         wScrn=  0.000000 ICntrl=       500 IOpCl=  0 I1Cent=   200000004 NGrid=           0
         NMat0=    1 NMatS0=      1 NMatT0=    0 NMatD0=    1 NMtDS0=    0 NMtDT0=    0
 Petite list used in FoFCou.
 Keep R1 ints in memory in canonical form, NReq=19599261.
 Requested convergence on RMS density matrix=1.00D-08 within 128 cycles.
 Requested convergence on MAX density matrix=1.00D-06.
 Requested convergence on             energy=1.00D-06.
 No special actions if energy rises.
 SCF Done:  E(RM062X) =  -188.716401205     A.U. after   12 cycles
            NFock= 12  Conv=0.70D-08     -V/T= 2.0060
 Calling FoFJK, ICntrl=      2127 FMM=F ISym2X=0 I1Cent= 0 IOpClX= 0 NMat=1 NMatS=1 NMatT=0.
 ***** Axes restored to original set *****
 -------------------------------------------------------------------
 Center     Atomic                   Forces (Hartrees/Bohr)
 Number     Number              X              Y              Z
 -------------------------------------------------------------------
      1        1          -0.004848955    0.010135422   -0.000000687
      2        6          -0.013092813    0.034675156   -0.000012202
      3        8           0.016630948    0.070078766    0.000007164
      4        8           0.001310820   -0.114889343    0.000005725
 -------------------------------------------------------------------
 Cartesian Forces:  Max     0.114889343 RMS     0.040711310

 GradGradGradGradGradGradGradGradGradGradGradGradGradGradGradGradGradGrad
 Berny optimization.
 Using GEDIIS/GDIIS optimizer.
 FormGI is forming the generalized inverse of G from B-inverse, IUseBI=4.
 Internal  Forces:  Max     0.113862528 RMS     0.058352863
 Search for a local minimum.
 Step number   3 out of a maximum of   20
 All quantities printed in internal units (Hartrees-Bohrs-Radians)
 Mixed Optimization -- RFO/linear search
 Update second derivatives using D2CorX and points    2    3
 DE= -3.44D-02 DEPred=-4.83D-02 R= 7.13D-01
 TightC=F SS=  1.41D+00  RLast= 5.74D-01 DXNew= 8.4853D-01 1.7221D+00
 Trust test= 7.13D-01 RLast= 5.74D-01 DXMaxT set to 8.49D-01
 The second derivative matrix:
                          R1        R2        R3        A1        A2
           R1           0.52262
           R2           0.00754   0.62277
           R3          -0.01026   0.10846   1.21877
           A1          -0.00150   0.05310   0.02082   0.15931
           A2           0.00288   0.03011   0.00414  -0.01006   0.16537
           D1          -0.00000   0.00000   0.00002  -0.00001  -0.00000
                          D1
           D1           0.02138
 ITU=  1  1  0
 Use linear search instead of GDIIS.
     Eigenvalues ---    0.02138   0.14411   0.17268   0.52159   0.61157
     Eigenvalues ---    1.23890
 RFO step:  Lambda=-2.16135878D-02 EMin= 2.13793730D-02
 Quartic linear search produced a step of -0.15672.
 Iteration  1 RMS(Cart)=  0.10098941 RMS(Int)=  0.00574897
 Iteration  2 RMS(Cart)=  0.00594156 RMS(Int)=  0.00001481
 Iteration  3 RMS(Cart)=  0.00001419 RMS(Int)=  0.00000000
 Iteration  4 RMS(Cart)=  0.00000000 RMS(Int)=  0.00000000
 Variable       Old X    -DE/DX   Delta X   Delta X   Delta X     New X
                                 (Linear)    (Quad)   (Total)
    R1        1.87074   0.00150  -0.00153   0.00478   0.00325   1.87398
    R2        2.24800   0.07764   0.03980   0.04269   0.08249   2.33049
    R3        2.05738   0.11386   0.02376   0.05604   0.07980   2.13718
    A1        2.87256   0.03164  -0.07647   0.25576   0.17929   3.05185
    A2        2.00515   0.02083  -0.00979   0.11964   0.10985   2.11500
    D1       -3.14107  -0.00000  -0.00002   0.00001  -0.00002  -3.14109
         Item               Value     Threshold  Converged?
 Maximum Force            0.113863     0.000450     NO 
 RMS     Force            0.058353     0.000300     NO 
 Maximum Displacement     0.137085     0.001800     NO 
 RMS     Displacement     0.098674     0.001200     NO 
 Predicted change in Energy=-1.198891D-02
 GradGradGradGradGradGradGradGradGradGradGradGradGradGradGradGradGradGrad

                          Input orientation:                          
 ---------------------------------------------------------------------
 Center     Atomic      Atomic             Coordinates (Angstroms)
 Number     Number       Type             X           Y           Z
 ---------------------------------------------------------------------
      1          1           0       -1.016793    1.715988   -0.000087
      2          6           0       -1.762186   -0.077065   -0.000153
      3          8           0       -1.833910    1.154090   -0.000216
      4          8           0       -1.797865   -1.207447   -0.000166
 ---------------------------------------------------------------------
                    Distance matrix (angstroms):
                    1          2          3          4
     1  H    0.000000
     2  C    1.941816   0.000000
     3  O    0.991670   1.233242   0.000000
     4  O    3.025979   1.130945   2.361812   0.000000
 Stoichiometry    CHO2(1+)
 Framework group  C1[X(CHO2)]
 Deg. of freedom     6
 Full point group                 C1      NOp   1
 Largest Abelian subgroup         C1      NOp   1
 Largest concise Abelian subgroup C1      NOp   1
                         Standard orientation:                         
 ---------------------------------------------------------------------
 Center     Atomic      Atomic             Coordinates (Angstroms)
 Number     Number       Type             X           Y           Z
 ---------------------------------------------------------------------
      1          1           0        1.708071    0.684142   -0.000089
      2          6           0       -0.112731    0.009360   -0.000023
      3          8           0        1.114683   -0.110401    0.000039
      4          8           0       -1.243644    0.017864   -0.000011
 ---------------------------------------------------------------------
 Rotational constants (GHZ):         798.6838467          10.6013077          10.4624348
 Standard basis: 6-31+G(d,p) (6D, 7F)
 There are    62 symmetry adapted cartesian basis functions of A   symmetry.
 There are    62 symmetry adapted basis functions of A   symmetry.
    62 basis functions,   103 primitive gaussians,    62 cartesian basis functions
    11 alpha electrons       11 beta electrons
       nuclear repulsion energy        64.6987282020 Hartrees.
 NAtoms=    4 NActive=    4 NUniq=    4 SFac= 1.00D+00 NAtFMM=   60 NAOKFM=F Big=F
 Integral buffers will be    131072 words long.
 Raffenetti 2 integral format.
 Two-electron integral symmetry is turned on.
 One-electron integrals computed using PRISM.
 NBasis=    62 RedAO= T EigKep=  1.07D-03  NBF=    62
 NBsUse=    62 1.00D-06 EigRej= -1.00D+00 NBFU=    62
 Initial guess from the checkpoint file:  "/scratch/gongke2021/1-H-Tz-HCOO-/Gau-4977.chk"
 B after Tr=     0.000000   -0.000000   -0.000000
         Rot=    1.000000    0.000126    0.000006   -0.000221 Ang=   0.03 deg.
 ExpMin= 4.38D-02 ExpMax= 5.48D+03 ExpMxC= 8.25D+02 IAcc=2 IRadAn=         4 AccDes= 0.00D+00
 Harris functional with IExCor= 1009 and IRadAn=       4 diagonalized for initial guess.
 HarFok:  IExCor= 1009 AccDes= 0.00D+00 IRadAn=         4 IDoV= 1 UseB2=F ITyADJ=14
 ICtDFT=  3500011 ScaDFX=  1.000000  1.000000  1.000000  1.000000
 FoFCou: FMM=F IPFlag=           0 FMFlag=      100000 FMFlg1=           0
         NFxFlg=           0 DoJE=T BraDBF=F KetDBF=T FulRan=T
         wScrn=  0.000000 ICntrl=       500 IOpCl=  0 I1Cent=   200000004 NGrid=           0
         NMat0=    1 NMatS0=      1 NMatT0=    0 NMatD0=    1 NMtDS0=    0 NMtDT0=    0
 Petite list used in FoFCou.
 Keep R1 ints in memory in canonical form, NReq=19599261.
 Requested convergence on RMS density matrix=1.00D-08 within 128 cycles.
 Requested convergence on MAX density matrix=1.00D-06.
 Requested convergence on             energy=1.00D-06.
 No special actions if energy rises.
 SCF Done:  E(RM062X) =  -188.725768272     A.U. after   12 cycles
            NFock= 12  Conv=0.27D-08     -V/T= 2.0086
 Calling FoFJK, ICntrl=      2127 FMM=F ISym2X=0 I1Cent= 0 IOpClX= 0 NMat=1 NMatS=1 NMatT=0.
 ***** Axes restored to original set *****
 -------------------------------------------------------------------
 Center     Atomic                   Forces (Hartrees/Bohr)
 Number     Number              X              Y              Z
 -------------------------------------------------------------------
      1        1          -0.000851278   -0.001950831    0.000000244
      2        6           0.000585457   -0.000456821   -0.000006523
      3        8           0.000356896   -0.015555309    0.000003058
      4        8          -0.000091075    0.017962961    0.000003221
 -------------------------------------------------------------------
 Cartesian Forces:  Max     0.017962961 RMS     0.006891137

 GradGradGradGradGradGradGradGradGradGradGradGradGradGradGradGradGradGrad
 Berny optimization.
 Using GEDIIS/GDIIS optimizer.
 FormGI is forming the generalized inverse of G from B-inverse, IUseBI=4.
 Internal  Forces:  Max     0.017951268 RMS     0.010298754
 Search for a local minimum.
 Step number   4 out of a maximum of   20
 All quantities printed in internal units (Hartrees-Bohrs-Radians)
 Mixed Optimization -- RFO/linear search
 Update second derivatives using D2CorX and points    3    4
 DE= -9.37D-03 DEPred=-1.20D-02 R= 7.81D-01
 TightC=F SS=  1.41D+00  RLast= 2.40D-01 DXNew= 1.4270D+00 7.1872D-01
 Trust test= 7.81D-01 RLast= 2.40D-01 DXMaxT set to 8.49D-01
 The second derivative matrix:
                          R1        R2        R3        A1        A2
           R1           0.52293
           R2           0.01436   0.72835
           R3          -0.00144   0.22516   1.33563
           A1           0.00032   0.06386   0.02210   0.15113
           A2           0.00442   0.05048   0.02457  -0.00981   0.16894
           D1          -0.00000  -0.00000   0.00001  -0.00001  -0.00000
                          D1
           D1           0.02138
 ITU=  1  1  1  0
 Use linear search instead of GDIIS.
     Eigenvalues ---    0.02138   0.13610   0.17271   0.52150   0.66411
     Eigenvalues ---    1.41258
 RFO step:  Lambda=-6.94554265D-05 EMin= 2.13793730D-02
 Quartic linear search produced a step of -0.14376.
 Iteration  1 RMS(Cart)=  0.01374750 RMS(Int)=  0.00004637
 Iteration  2 RMS(Cart)=  0.00003474 RMS(Int)=  0.00000000
 Iteration  3 RMS(Cart)=  0.00000000 RMS(Int)=  0.00000000
 Variable       Old X    -DE/DX   Delta X   Delta X   Delta X     New X
                                 (Linear)    (Quad)   (Total)
    R1        1.87398  -0.00181  -0.00047  -0.00242  -0.00288   1.87110
    R2        2.33049  -0.01745  -0.01186  -0.00819  -0.02004   2.31045
    R3        2.13718  -0.01795  -0.01147   0.00127  -0.01020   2.12697
    A1        3.05185  -0.00141  -0.02577   0.01549  -0.01028   3.04157
    A2        2.11500  -0.00211  -0.01579   0.00466  -0.01113   2.10387
    D1       -3.14109  -0.00000   0.00000  -0.00003  -0.00003  -3.14111
         Item               Value     Threshold  Converged?
 Maximum Force            0.017951     0.000450     NO 
 RMS     Force            0.010299     0.000300     NO 
 Maximum Displacement     0.020457     0.001800     NO 
 RMS     Displacement     0.013757     0.001200     NO 
 Predicted change in Energy=-2.642117D-04
 GradGradGradGradGradGradGradGradGradGradGradGradGradGradGradGradGradGrad

                          Input orientation:                          
 ---------------------------------------------------------------------
 Center     Atomic      Atomic             Coordinates (Angstroms)
 Number     Number       Type             X           Y           Z
 ---------------------------------------------------------------------
      1          1           0       -1.018630    1.705666   -0.000087
      2          6           0       -1.757770   -0.071772   -0.000152
      3          8           0       -1.836995    1.148293   -0.000217
      4          8           0       -1.797359   -1.196622   -0.000167
 ---------------------------------------------------------------------
                    Distance matrix (angstroms):
                    1          2          3          4
     1  H    0.000000
     2  C    1.924997   0.000000
     3  O    0.990144   1.222635   0.000000
     4  O    3.004945   1.125546   2.345250   0.000000
 Stoichiometry    CHO2(1+)
 Framework group  C1[X(CHO2)]
 Deg. of freedom     6
 Full point group                 C1      NOp   1
 Largest Abelian subgroup         C1      NOp   1
 Largest concise Abelian subgroup C1      NOp   1
                         Standard orientation:                         
 ---------------------------------------------------------------------
 Center     Atomic      Atomic             Coordinates (Angstroms)
 Number     Number       Type             X           Y           Z
 ---------------------------------------------------------------------
      1          1           0        1.694121    0.684817   -0.000090
      2          6           0       -0.109973    0.013354   -0.000025
      3          8           0        1.106229   -0.111906    0.000040
      4          8           0       -1.235515    0.016288   -0.000010
 ---------------------------------------------------------------------
 Rotational constants (GHZ):         790.5824005          10.7539880          10.6096688
 Standard basis: 6-31+G(d,p) (6D, 7F)
 There are    62 symmetry adapted cartesian basis functions of A   symmetry.
 There are    62 symmetry adapted basis functions of A   symmetry.
    62 basis functions,   103 primitive gaussians,    62 cartesian basis functions
    11 alpha electrons       11 beta electrons
       nuclear repulsion energy        65.1170793473 Hartrees.
 NAtoms=    4 NActive=    4 NUniq=    4 SFac= 1.00D+00 NAtFMM=   60 NAOKFM=F Big=F
 Integral buffers will be    131072 words long.
 Raffenetti 2 integral format.
 Two-electron integral symmetry is turned on.
 One-electron integrals computed using PRISM.
 NBasis=    62 RedAO= T EigKep=  1.05D-03  NBF=    62
 NBsUse=    62 1.00D-06 EigRej= -1.00D+00 NBFU=    62
 Initial guess from the checkpoint file:  "/scratch/gongke2021/1-H-Tz-HCOO-/Gau-4977.chk"
 B after Tr=    -0.000000    0.000000    0.000000
         Rot=    1.000000   -0.000000    0.000000   -0.000029 Ang=  -0.00 deg.
 ExpMin= 4.38D-02 ExpMax= 5.48D+03 ExpMxC= 8.25D+02 IAcc=2 IRadAn=         4 AccDes= 0.00D+00
 Harris functional with IExCor= 1009 and IRadAn=       4 diagonalized for initial guess.
 HarFok:  IExCor= 1009 AccDes= 0.00D+00 IRadAn=         4 IDoV= 1 UseB2=F ITyADJ=14
 ICtDFT=  3500011 ScaDFX=  1.000000  1.000000  1.000000  1.000000
 FoFCou: FMM=F IPFlag=           0 FMFlag=      100000 FMFlg1=           0
         NFxFlg=           0 DoJE=T BraDBF=F KetDBF=T FulRan=T
         wScrn=  0.000000 ICntrl=       500 IOpCl=  0 I1Cent=   200000004 NGrid=           0
         NMat0=    1 NMatS0=      1 NMatT0=    0 NMatD0=    1 NMtDS0=    0 NMtDT0=    0
 Petite list used in FoFCou.
 Keep R1 ints in memory in canonical form, NReq=19599261.
 Requested convergence on RMS density matrix=1.00D-08 within 128 cycles.
 Requested convergence on MAX density matrix=1.00D-06.
 Requested convergence on             energy=1.00D-06.
 No special actions if energy rises.
 SCF Done:  E(RM062X) =  -188.726062892     A.U. after   10 cycles
            NFock= 10  Conv=0.34D-08     -V/T= 2.0082
 Calling FoFJK, ICntrl=      2127 FMM=F ISym2X=0 I1Cent= 0 IOpClX= 0 NMat=1 NMatS=1 NMatT=0.
 ***** Axes restored to original set *****
 -------------------------------------------------------------------
 Center     Atomic                   Forces (Hartrees/Bohr)
 Number     Number              X              Y              Z
 -------------------------------------------------------------------
      1        1          -0.000582308    0.000258803    0.000000218
      2        6          -0.001095416   -0.003126727   -0.000006576
      3        8           0.001277489    0.000020285    0.000002843
      4        8           0.000400234    0.002847639    0.000003515
 -------------------------------------------------------------------
 Cartesian Forces:  Max     0.003126727 RMS     0.001331794

 GradGradGradGradGradGradGradGradGradGradGradGradGradGradGradGradGradGrad
 Berny optimization.
 Using GEDIIS/GDIIS optimizer.
 FormGI is forming the generalized inverse of G from B-inverse, IUseBI=4.
 Internal  Forces:  Max     0.002860044 RMS     0.001276371
 Search for a local minimum.
 Step number   5 out of a maximum of   20
 All quantities printed in internal units (Hartrees-Bohrs-Radians)
 Mixed Optimization -- RFO/linear search
 Update second derivatives using D2CorX and points    3    4    5
 DE= -2.95D-04 DEPred=-2.64D-04 R= 1.12D+00
 TightC=F SS=  1.41D+00  RLast= 2.73D-02 DXNew= 1.4270D+00 8.1820D-02
 Trust test= 1.12D+00 RLast= 2.73D-02 DXMaxT set to 8.49D-01
 The second derivative matrix:
                          R1        R2        R3        A1        A2
           R1           0.52111
           R2           0.00687   0.75146
           R3          -0.01762   0.14981   1.18228
           A1          -0.00305   0.04042  -0.01013   0.14524
           A2           0.00372   0.05881   0.01621  -0.01322   0.17098
           D1          -0.00000  -0.00002  -0.00001  -0.00001  -0.00001
                          D1
           D1           0.02138
 ITU=  1  1  1  1  0
 Use linear search instead of GDIIS.
     Eigenvalues ---    0.02138   0.13319   0.17421   0.52014   0.71294
     Eigenvalues ---    1.23059
 RFO step:  Lambda=-1.69587546D-05 EMin= 2.13793715D-02
 Quartic linear search produced a step of  0.01311.
 Iteration  1 RMS(Cart)=  0.00270191 RMS(Int)=  0.00000664
 Iteration  2 RMS(Cart)=  0.00000764 RMS(Int)=  0.00000000
 Iteration  3 RMS(Cart)=  0.00000000 RMS(Int)=  0.00000000
 Variable       Old X    -DE/DX   Delta X   Delta X   Delta X     New X
                                 (Linear)    (Quad)   (Total)
    R1        1.87110  -0.00034  -0.00004  -0.00071  -0.00074   1.87036
    R2        2.31045   0.00023  -0.00026   0.00031   0.00005   2.31050
    R3        2.12697  -0.00286  -0.00013  -0.00235  -0.00248   2.12449
    A1        3.04157   0.00064  -0.00013   0.00492   0.00479   3.04636
    A2        2.10387   0.00101  -0.00015   0.00669   0.00654   2.11041
    D1       -3.14111  -0.00000  -0.00000  -0.00003  -0.00003  -3.14114
         Item               Value     Threshold  Converged?
 Maximum Force            0.002860     0.000450     NO 
 RMS     Force            0.001276     0.000300     NO 
 Maximum Displacement     0.003616     0.001800     NO 
 RMS     Displacement     0.002699     0.001200     NO 
 Predicted change in Energy=-8.500024D-06
 GradGradGradGradGradGradGradGradGradGradGradGradGradGradGradGradGradGrad

                          Input orientation:                          
 ---------------------------------------------------------------------
 Center     Atomic      Atomic             Coordinates (Angstroms)
 Number     Number       Type             X           Y           Z
 ---------------------------------------------------------------------
      1          1           0       -1.019005    1.707472   -0.000087
      2          6           0       -1.759551   -0.072876   -0.000154
      3          8           0       -1.835081    1.147450   -0.000216
      4          8           0       -1.797117   -1.196481   -0.000165
 ---------------------------------------------------------------------
                    Distance matrix (angstroms):
                    1          2          3          4
     1  H    0.000000
     2  C    1.928224   0.000000
     3  O    0.989750   1.222662   0.000000
     4  O    3.006393   1.124232   2.344238   0.000000
 Stoichiometry    CHO2(1+)
 Framework group  C1[X(CHO2)]
 Deg. of freedom     6
 Full point group                 C1      NOp   1
 Largest Abelian subgroup         C1      NOp   1
 Largest concise Abelian subgroup C1      NOp   1
                         Standard orientation:                         
 ---------------------------------------------------------------------
 Center     Atomic      Atomic             Coordinates (Angstroms)
 Number     Number       Type             X           Y           Z
 ---------------------------------------------------------------------
      1          1           0        1.696834    0.682897   -0.000089
      2          6           0       -0.110692    0.011408   -0.000022
      3          8           0        1.105824   -0.111025    0.000039
      4          8           0       -1.234910    0.017106   -0.000011
 ---------------------------------------------------------------------
 Rotational constants (GHZ):         797.8421848          10.7602405          10.6170517
 Standard basis: 6-31+G(d,p) (6D, 7F)
 There are    62 symmetry adapted cartesian basis functions of A   symmetry.
 There are    62 symmetry adapted basis functions of A   symmetry.
    62 basis functions,   103 primitive gaussians,    62 cartesian basis functions
    11 alpha electrons       11 beta electrons
       nuclear repulsion energy        65.1474953660 Hartrees.
 NAtoms=    4 NActive=    4 NUniq=    4 SFac= 1.00D+00 NAtFMM=   60 NAOKFM=F Big=F
 Integral buffers will be    131072 words long.
 Raffenetti 2 integral format.
 Two-electron integral symmetry is turned on.
 One-electron integrals computed using PRISM.
 NBasis=    62 RedAO= T EigKep=  1.05D-03  NBF=    62
 NBsUse=    62 1.00D-06 EigRej= -1.00D+00 NBFU=    62
 Initial guess from the checkpoint file:  "/scratch/gongke2021/1-H-Tz-HCOO-/Gau-4977.chk"
 B after Tr=     0.000000    0.000000    0.000000
         Rot=    1.000000   -0.000000   -0.000000    0.000088 Ang=  -0.01 deg.
 Keep R1 ints in memory in canonical form, NReq=19599261.
 Requested convergence on RMS density matrix=1.00D-08 within 128 cycles.
 Requested convergence on MAX density matrix=1.00D-06.
 Requested convergence on             energy=1.00D-06.
 No special actions if energy rises.
 SCF Done:  E(RM062X) =  -188.726071130     A.U. after    9 cycles
            NFock=  9  Conv=0.65D-08     -V/T= 2.0082
 Calling FoFJK, ICntrl=      2127 FMM=F ISym2X=0 I1Cent= 0 IOpClX= 0 NMat=1 NMatS=1 NMatT=0.
 ***** Axes restored to original set *****
 -------------------------------------------------------------------
 Center     Atomic                   Forces (Hartrees/Bohr)
 Number     Number              X              Y              Z
 -------------------------------------------------------------------
      1        1          -0.000194228    0.000013453    0.000000255
      2        6           0.000010541    0.000964879   -0.000005711
      3        8           0.000260094   -0.000351432    0.000002404
      4        8          -0.000076407   -0.000626901    0.000003053
 -------------------------------------------------------------------
 Cartesian Forces:  Max     0.000964879 RMS     0.000360446

 GradGradGradGradGradGradGradGradGradGradGradGradGradGradGradGradGradGrad
 Berny optimization.
 Using GEDIIS/GDIIS optimizer.
 FormGI is forming the generalized inverse of G from B-inverse, IUseBI=4.
 Internal  Forces:  Max     0.000629037 RMS     0.000316364
 Search for a local minimum.
 Step number   6 out of a maximum of   20
 All quantities printed in internal units (Hartrees-Bohrs-Radians)
 Mixed Optimization -- En-DIIS/RFO-DIIS
 Update second derivatives using D2CorX and points    3    4    5    6
 DE= -8.24D-06 DEPred=-8.50D-06 R= 9.69D-01
 TightC=F SS=  1.41D+00  RLast= 8.51D-03 DXNew= 1.4270D+00 2.5537D-02
 Trust test= 9.69D-01 RLast= 8.51D-03 DXMaxT set to 8.49D-01
 The second derivative matrix:
                          R1        R2        R3        A1        A2
           R1           0.51476
           R2           0.00093   0.75408
           R3          -0.03878   0.07085   1.43471
           A1           0.00061   0.04525  -0.04343   0.15870
           A2           0.01547   0.07592   0.03796  -0.01754   0.14869
           D1          -0.00002  -0.00003  -0.00012   0.00001   0.00003
                          D1
           D1           0.02138
 ITU=  1  1  1  1  1  0
 Use linear search instead of GDIIS.
     Eigenvalues ---    0.02138   0.12276   0.16898   0.51374   0.75912
     Eigenvalues ---    1.44635
 RFO step:  Lambda=-9.33568543D-07 EMin= 2.13793220D-02
 Quartic linear search produced a step of -0.03197.
 Iteration  1 RMS(Cart)=  0.00091761 RMS(Int)=  0.00000083
 Iteration  2 RMS(Cart)=  0.00000078 RMS(Int)=  0.00000000
 Variable       Old X    -DE/DX   Delta X   Delta X   Delta X     New X
                                 (Linear)    (Quad)   (Total)
    R1        1.87036  -0.00015   0.00002  -0.00034  -0.00032   1.87004
    R2        2.31050  -0.00034  -0.00000  -0.00065  -0.00065   2.30984
    R3        2.12449   0.00063   0.00008   0.00033   0.00041   2.12490
    A1        3.04636  -0.00012  -0.00015  -0.00011  -0.00026   3.04610
    A2        2.11041   0.00023  -0.00021   0.00196   0.00175   2.11216
    D1       -3.14114  -0.00000   0.00000  -0.00003  -0.00003  -3.14117
         Item               Value     Threshold  Converged?
 Maximum Force            0.000629     0.000450     NO 
 RMS     Force            0.000316     0.000300     NO 
 Maximum Displacement     0.001328     0.001800     YES
 RMS     Displacement     0.000917     0.001200     YES
 Predicted change in Energy=-4.756240D-07
 GradGradGradGradGradGradGradGradGradGradGradGradGradGradGradGradGradGrad

                          Input orientation:                          
 ---------------------------------------------------------------------
 Center     Atomic      Atomic             Coordinates (Angstroms)
 Number     Number       Type             X           Y           Z
 ---------------------------------------------------------------------
      1          1           0       -1.019366    1.708174   -0.000087
      2          6           0       -1.759347   -0.072939   -0.000155
      3          8           0       -1.834493    1.147066   -0.000215
      4          8           0       -1.797548   -1.196737   -0.000165
 ---------------------------------------------------------------------
                    Distance matrix (angstroms):
                    1          2          3          4
     1  H    0.000000
     2  C    1.928713   0.000000
     3  O    0.989582   1.222317   0.000000
     4  O    3.007338   1.124448   2.344095   0.000000
 Stoichiometry    CHO2(1+)
 Framework group  C1[X(CHO2)]
 Deg. of freedom     6
 Full point group                 C1      NOp   1
 Largest Abelian subgroup         C1      NOp   1
 Largest concise Abelian subgroup C1      NOp   1
                         Standard orientation:                         
 ---------------------------------------------------------------------
 Center     Atomic      Atomic             Coordinates (Angstroms)
 Number     Number       Type             X           Y           Z
 ---------------------------------------------------------------------
      1          1           0        1.697991    0.681751   -0.000089
      2          6           0       -0.110537    0.011557   -0.000021
      3          8           0        1.105625   -0.110950    0.000039
      4          8           0       -1.234972    0.017064   -0.000012
 ---------------------------------------------------------------------
 Rotational constants (GHZ):         800.0240856          10.7605122          10.6177016
 Standard basis: 6-31+G(d,p) (6D, 7F)
 There are    62 symmetry adapted cartesian basis functions of A   symmetry.
 There are    62 symmetry adapted basis functions of A   symmetry.
    62 basis functions,   103 primitive gaussians,    62 cartesian basis functions
    11 alpha electrons       11 beta electrons
       nuclear repulsion energy        65.1497584899 Hartrees.
 NAtoms=    4 NActive=    4 NUniq=    4 SFac= 1.00D+00 NAtFMM=   60 NAOKFM=F Big=F
 Integral buffers will be    131072 words long.
 Raffenetti 2 integral format.
 Two-electron integral symmetry is turned on.
 One-electron integrals computed using PRISM.
 NBasis=    62 RedAO= T EigKep=  1.05D-03  NBF=    62
 NBsUse=    62 1.00D-06 EigRej= -1.00D+00 NBFU=    62
 Initial guess from the checkpoint file:  "/scratch/gongke2021/1-H-Tz-HCOO-/Gau-4977.chk"
 B after Tr=     0.000000   -0.000000   -0.000000
         Rot=    1.000000   -0.000000   -0.000000    0.000038 Ang=  -0.00 deg.
 Keep R1 ints in memory in canonical form, NReq=19599261.
 Requested convergence on RMS density matrix=1.00D-08 within 128 cycles.
 Requested convergence on MAX density matrix=1.00D-06.
 Requested convergence on             energy=1.00D-06.
 No special actions if energy rises.
 SCF Done:  E(RM062X) =  -188.726071734     A.U. after    7 cycles
            NFock=  7  Conv=0.88D-08     -V/T= 2.0082
 Calling FoFJK, ICntrl=      2127 FMM=F ISym2X=0 I1Cent= 0 IOpClX= 0 NMat=1 NMatS=1 NMatT=0.
 ***** Axes restored to original set *****
 -------------------------------------------------------------------
 Center     Atomic                   Forces (Hartrees/Bohr)
 Number     Number              X              Y              Z
 -------------------------------------------------------------------
      1        1          -0.000055831    0.000030157    0.000000253
      2        6           0.000036826    0.000099329   -0.000005325
      3        8           0.000062627   -0.000018076    0.000002210
      4        8          -0.000043622   -0.000111411    0.000002862
 -------------------------------------------------------------------
 Cartesian Forces:  Max     0.000111411 RMS     0.000053115

 GradGradGradGradGradGradGradGradGradGradGradGradGradGradGradGradGradGrad
 Berny optimization.
 Using GEDIIS/GDIIS optimizer.
 FormGI is forming the generalized inverse of G from B-inverse, IUseBI=4.
 Internal  Forces:  Max     0.000112779 RMS     0.000073056
 Search for a local minimum.
 Step number   7 out of a maximum of   20
 All quantities printed in internal units (Hartrees-Bohrs-Radians)
 Mixed Optimization -- En-DIIS/RFO-DIIS
 Swapping is turned off.
 Update second derivatives using D2CorX and points    3    4    5    6    7
 DE= -6.04D-07 DEPred=-4.76D-07 R= 1.27D+00
 Trust test= 1.27D+00 RLast= 1.95D-03 DXMaxT set to 8.49D-01
 The second derivative matrix:
                          R1        R2        R3        A1        A2
           R1           0.51228
           R2           0.00972   0.81386
           R3          -0.02689   0.05026   1.38966
           A1          -0.01328   0.01100   0.00554   0.15521
           A2           0.02985   0.09294  -0.01432   0.00430   0.11300
           D1          -0.00012  -0.00024   0.00019  -0.00004   0.00019
                          D1
           D1           0.02138
 ITU=  0  1  1  1  1  1  0
     Eigenvalues ---    0.02138   0.09841   0.15478   0.51309   0.82289
     Eigenvalues ---    1.39486
 En-DIIS/RFO-DIIS/Sim-DIIS IScMMF=       -3 using points:     7    6
 RFO step:  Lambda=-1.77446938D-07.
 DidBck=F Rises=F RFO-DIIS coefs:    1.57643   -0.57643
 Iteration  1 RMS(Cart)=  0.00074327 RMS(Int)=  0.00000046
 Iteration  2 RMS(Cart)=  0.00000041 RMS(Int)=  0.00000000
 Variable       Old X    -DE/DX   Delta X   Delta X   Delta X     New X
                                 (Linear)    (Quad)   (Total)
    R1        1.87004  -0.00003  -0.00018   0.00005  -0.00013   1.86991
    R2        2.30984   0.00001  -0.00038   0.00027  -0.00011   2.30974
    R3        2.12490   0.00011   0.00024  -0.00014   0.00010   2.12499
    A1        3.04610  -0.00009  -0.00015  -0.00044  -0.00059   3.04551
    A2        2.11216   0.00010   0.00101   0.00008   0.00108   2.11324
    D1       -3.14117  -0.00000  -0.00002  -0.00002  -0.00004  -3.14121
         Item               Value     Threshold  Converged?
 Maximum Force            0.000113     0.000450     YES
 RMS     Force            0.000073     0.000300     YES
 Maximum Displacement     0.001100     0.001800     YES
 RMS     Displacement     0.000743     0.001200     YES
 Predicted change in Energy=-8.872358D-08
 Optimization completed.
    -- Stationary point found.
                           ----------------------------
                           !   Optimized Parameters   !
                           ! (Angstroms and Degrees)  !
 --------------------------                            --------------------------
 ! Name  Definition              Value          Derivative Info.                !
 --------------------------------------------------------------------------------
 ! R1    R(1,3)                  0.9896         -DE/DX =    0.0                 !
 ! R2    R(2,3)                  1.2223         -DE/DX =    0.0                 !
 ! R3    R(2,4)                  1.1244         -DE/DX =    0.0001              !
 ! A1    A(3,2,4)              174.5285         -DE/DX =   -0.0001              !
 ! A2    A(1,3,2)              121.0177         -DE/DX =    0.0001              !
 ! D1    D(4,2,3,1)           -179.9759         -DE/DX =    0.0                 !
 --------------------------------------------------------------------------------
 GradGradGradGradGradGradGradGradGradGradGradGradGradGradGradGradGradGrad

                          Input orientation:                          
 ---------------------------------------------------------------------
 Center     Atomic      Atomic             Coordinates (Angstroms)
 Number     Number       Type             X           Y           Z
 ---------------------------------------------------------------------
      1          1           0       -1.019366    1.708174   -0.000087
      2          6           0       -1.759347   -0.072939   -0.000155
      3          8           0       -1.834493    1.147066   -0.000215
      4          8           0       -1.797548   -1.196737   -0.000165
 ---------------------------------------------------------------------
                    Distance matrix (angstroms):
                    1          2          3          4
     1  H    0.000000
     2  C    1.928713   0.000000
     3  O    0.989582   1.222317   0.000000
     4  O    3.007338   1.124448   2.344095   0.000000
 Stoichiometry    CHO2(1+)
 Framework group  C1[X(CHO2)]
 Deg. of freedom     6
 Full point group                 C1      NOp   1
 Largest Abelian subgroup         C1      NOp   1
 Largest concise Abelian subgroup C1      NOp   1
                         Standard orientation:                         
 ---------------------------------------------------------------------
 Center     Atomic      Atomic             Coordinates (Angstroms)
 Number     Number       Type             X           Y           Z
 ---------------------------------------------------------------------
      1          1           0        1.697991    0.681751   -0.000089
      2          6           0       -0.110537    0.011557   -0.000021
      3          8           0        1.105625   -0.110950    0.000039
      4          8           0       -1.234972    0.017064   -0.000012
 ---------------------------------------------------------------------
 Rotational constants (GHZ):         800.0240856          10.7605122          10.6177016

 **********************************************************************

            Population analysis using the SCF density.

 **********************************************************************

 Orbital symmetries:
       Occupied  (A) (A) (A) (A) (A) (A) (A) (A) (A) (A) (A)
       Virtual   (A) (A) (A) (A) (A) (A) (A) (A) (A) (A) (A) (A)
                 (A) (A) (A) (A) (A) (A) (A) (A) (A) (A) (A) (A)
                 (A) (A) (A) (A) (A) (A) (A) (A) (A) (A) (A) (A)
                 (A) (A) (A) (A) (A) (A) (A) (A) (A) (A) (A) (A)
                 (A) (A) (A)
 The electronic state is 1-A.
 Alpha  occ. eigenvalues --  -20.08950 -20.06676 -11.08987  -1.63534  -1.58958
 Alpha  occ. eigenvalues --   -1.11181  -0.94171  -0.92352  -0.92164  -0.80663
 Alpha  occ. eigenvalues --   -0.77928
 Alpha virt. eigenvalues --   -0.27147  -0.24586  -0.23542  -0.14563  -0.11759
 Alpha virt. eigenvalues --   -0.11332  -0.07172  -0.04300  -0.01992   0.00053
 Alpha virt. eigenvalues --    0.05408   0.06189   0.09336   0.09404   0.11909
 Alpha virt. eigenvalues --    0.14357   0.44590   0.44774   0.50898   0.60605
 Alpha virt. eigenvalues --    0.68199   0.81893   0.87463   0.88452   0.89172
 Alpha virt. eigenvalues --    1.00406   1.02261   1.07999   1.08867   1.14439
 Alpha virt. eigenvalues --    1.14880   1.19218   1.29700   1.34992   1.60489
 Alpha virt. eigenvalues --    1.69878   1.70721   1.79947   1.83765   2.09188
 Alpha virt. eigenvalues --    2.19816   2.29839   2.50654   2.71186   2.77971
 Alpha virt. eigenvalues --    2.99069   3.07608   3.20445   3.85423   4.30123
 Alpha virt. eigenvalues --    4.56009
          Condensed to atoms (all electrons):
               1          2          3          4
     1  H    0.221890  -0.011937   0.277255  -0.000139
     2  C   -0.011937   4.307959   0.372780   0.469819
     3  O    0.277255   0.372780   7.759031  -0.076348
     4  O   -0.000139   0.469819  -0.076348   7.648262
 Mulliken charges:
               1
     1  H    0.512931
     2  C    0.861380
     3  O   -0.332717
     4  O   -0.041594
 Sum of Mulliken charges =   1.00000
 Mulliken charges with hydrogens summed into heavy atoms:
               1
     2  C    0.861380
     3  O    0.180214
     4  O   -0.041594
 Electronic spatial extent (au):  <R**2>=            116.5143
 Charge=              1.0000 electrons
 Dipole moment (field-independent basis, Debye):
    X=              2.8795    Y=              1.7920    Z=             -0.0003  Tot=              3.3916
 Quadrupole moment (field-independent basis, Debye-Ang):
   XX=             -8.0380   YY=            -12.3149   ZZ=            -13.8648
   XY=              3.3607   XZ=             -0.0005   YZ=             -0.0002
 Traceless Quadrupole moment (field-independent basis, Debye-Ang):
   XX=              3.3679   YY=             -0.9090   ZZ=             -2.4589
   XY=              3.3607   XZ=             -0.0005   YZ=             -0.0002
 Octapole moment (field-independent basis, Debye-Ang**2):
  XXX=             12.7490  YYY=              1.6130  ZZZ=             -0.0001  XYY=              2.5277
  XXY=              5.9356  XXZ=             -0.0007  XZZ=              0.1335  YZZ=              0.2395
  YYZ=             -0.0002  XYZ=             -0.0003
 Hexadecapole moment (field-independent basis, Debye-Ang**3):
 XXXX=            -71.5791 YYYY=             -9.8023 ZZZZ=             -9.7682 XXXY=             11.3325
 XXXZ=             -0.0021 YYYX=              3.1308 YYYZ=             -0.0000 ZZZX=             -0.0008
 ZZZY=              0.0001 XXYY=            -13.7972 XXZZ=            -17.9540 YYZZ=             -3.3907
 XXYZ=             -0.0006 YYXZ=             -0.0005 ZZXY=              0.4958
 N-N= 6.514975848991D+01 E-N=-5.660505697443D+02  KE= 1.871986738119D+02
 1\1\GINC-NODE2\FOpt\RM062X\6-31+G(d,p)\C1H1O2(1+)\GONGKE2021\13-Oct-20
 23\0\\# opt freq 6-31+g(d,p) m062x\\"Sketch 2"\\1,1\H,-1.0193662517,1.
 7081744334,-0.0000873503\C,-1.7593471794,-0.072938533,-0.0001554053\O,
 -1.8344926927,1.1470664972,-0.0002153504\O,-1.7975478761,-1.1967373975
 ,-0.0001648941\\Version=ES64L-G16RevA.03\State=1-A\HF=-188.7260717\RMS
 D=8.798e-09\RMSF=5.312e-05\Dipole=0.7485183,1.104637,0.0001315\Quadrup
 ole=-0.4769533,2.3050567,-1.8281033,2.6145474,0.0001718,0.0003514\PG=C
 01 [X(C1H1O2)]\\@


 BUT 'GLORY' DOESN'T MEAN 'A NICE KNOCK DOWN ARGUMENT', ALICE OBJECTED.
 WHEN I USE A WORD, HUMPTY DUMPTY SAID, IN A RATHER SCORNFUL TONE,
 IT MEANS JUST WHAT I CHOOSE IT TO MEAN....
 NEITHER MORE NOR LESS....
 THE QUESTION IS, SAID ALICE,
 WHETHER YOU CAN MAKE WORDS MEAN SO MANY DIFFERENT THINGS...
 THE QUESTION IS, SAID HUMPTY DUMPTY,
 WHICH IS TO BE MASTER....
 THAT IS ALL.....

 ALICE THROUGH THE LOOKING GLASS
 Job cpu time:       0 days  0 hours  5 minutes  5.1 seconds.
 Elapsed time:       0 days  0 hours  0 minutes 17.5 seconds.
 File lengths (MBytes):  RWF=      6 Int=      0 D2E=      0 Chk=      1 Scr=      1
 Normal termination of Gaussian 16 at Fri Oct 13 23:34:45 2023.
 Link1:  Proceeding to internal job step number  2.
 ----------------------------------------------------------------------
 #N Geom=AllCheck Guess=TCheck SCRF=Check GenChk RM062X/6-31+G(d,p) Fre
 q
 ----------------------------------------------------------------------
 1/10=4,29=7,30=1,38=1,40=1/1,3;
 2/12=2,40=1/2;
 3/5=1,6=6,7=111,11=2,14=-4,25=1,30=1,70=2,71=2,74=-55,116=1,140=1/1,2,3;
 4/5=101/1;
 5/5=2,38=6,98=1/2;
 8/6=4,10=90,11=11/1;
 11/6=1,8=1,9=11,15=111,16=1/1,2,10;
 10/6=1/2;
 6/7=2,8=2,9=2,10=2,28=1/1;
 7/8=1,10=1,25=1/1,2,3,16;
 1/10=4,30=1/3;
 99//99;
 Structure from the checkpoint file:  "/scratch/gongke2021/1-H-Tz-HCOO-/Gau-4977.chk"
 ----------
 "Sketch 2"
 ----------
 Charge =  1 Multiplicity = 1
 Redundant internal coordinates found in file.  (old form).
 H,0,-1.0193662517,1.7081744334,-0.0000873503
 C,0,-1.7593471794,-0.072938533,-0.0001554053
 O,0,-1.8344926927,1.1470664972,-0.0002153504
 O,0,-1.7975478761,-1.1967373975,-0.0001648941
 Recover connectivity data from disk.

 GradGradGradGradGradGradGradGradGradGradGradGradGradGradGradGradGradGrad
 Berny optimization.
 Initialization pass.
                           ----------------------------
                           !    Initial Parameters    !
                           ! (Angstroms and Degrees)  !
 --------------------------                            --------------------------
 ! Name  Definition              Value          Derivative Info.                !
 --------------------------------------------------------------------------------
 ! R1    R(1,3)                  0.9896         calculate D2E/DX2 analytically  !
 ! R2    R(2,3)                  1.2223         calculate D2E/DX2 analytically  !
 ! R3    R(2,4)                  1.1244         calculate D2E/DX2 analytically  !
 ! A1    A(3,2,4)              174.5285         calculate D2E/DX2 analytically  !
 ! A2    A(1,3,2)              121.0177         calculate D2E/DX2 analytically  !
 ! D1    D(4,2,3,1)           -179.9759         calculate D2E/DX2 analytically  !
 --------------------------------------------------------------------------------
 Trust Radius=3.00D-01 FncErr=1.00D-07 GrdErr=1.00D-07 EigMax=2.50D+02 EigMin=1.00D-04
 Number of steps in this run=      2 maximum allowed number of steps=      2.
 GradGradGradGradGradGradGradGradGradGradGradGradGradGradGradGradGradGrad

                          Input orientation:                          
 ---------------------------------------------------------------------
 Center     Atomic      Atomic             Coordinates (Angstroms)
 Number     Number       Type             X           Y           Z
 ---------------------------------------------------------------------
      1          1           0       -1.019366    1.708174   -0.000087
      2          6           0       -1.759347   -0.072939   -0.000155
      3          8           0       -1.834493    1.147066   -0.000215
      4          8           0       -1.797548   -1.196737   -0.000165
 ---------------------------------------------------------------------
                    Distance matrix (angstroms):
                    1          2          3          4
     1  H    0.000000
     2  C    1.928713   0.000000
     3  O    0.989582   1.222317   0.000000
     4  O    3.007338   1.124448   2.344095   0.000000
 Stoichiometry    CHO2(1+)
 Framework group  C1[X(CHO2)]
 Deg. of freedom     6
 Full point group                 C1      NOp   1
 Largest Abelian subgroup         C1      NOp   1
 Largest concise Abelian subgroup C1      NOp   1
                         Standard orientation:                         
 ---------------------------------------------------------------------
 Center     Atomic      Atomic             Coordinates (Angstroms)
 Number     Number       Type             X           Y           Z
 ---------------------------------------------------------------------
      1          1           0        1.697991    0.681751   -0.000089
      2          6           0       -0.110537    0.011557   -0.000021
      3          8           0        1.105625   -0.110950    0.000039
      4          8           0       -1.234972    0.017064   -0.000012
 ---------------------------------------------------------------------
 Rotational constants (GHZ):         800.0240856          10.7605122          10.6177016
 Standard basis: 6-31+G(d,p) (6D, 7F)
 There are    62 symmetry adapted cartesian basis functions of A   symmetry.
 There are    62 symmetry adapted basis functions of A   symmetry.
    62 basis functions,   103 primitive gaussians,    62 cartesian basis functions
    11 alpha electrons       11 beta electrons
       nuclear repulsion energy        65.1497584899 Hartrees.
 NAtoms=    4 NActive=    4 NUniq=    4 SFac= 1.00D+00 NAtFMM=   60 NAOKFM=F Big=F
 Integral buffers will be    131072 words long.
 Raffenetti 2 integral format.
 Two-electron integral symmetry is turned on.
 One-electron integrals computed using PRISM.
 NBasis=    62 RedAO= T EigKep=  1.05D-03  NBF=    62
 NBsUse=    62 1.00D-06 EigRej= -1.00D+00 NBFU=    62
 Initial guess from the checkpoint file:  "/scratch/gongke2021/1-H-Tz-HCOO-/Gau-4977.chk"
 B after Tr=    -0.000000    0.000000    0.000000
         Rot=    1.000000    0.000000    0.000000   -0.000000 Ang=   0.00 deg.
 Keep R1 ints in memory in canonical form, NReq=19599261.
 Requested convergence on RMS density matrix=1.00D-08 within 128 cycles.
 Requested convergence on MAX density matrix=1.00D-06.
 Requested convergence on             energy=1.00D-06.
 No special actions if energy rises.
 SCF Done:  E(RM062X) =  -188.726071734     A.U. after    1 cycles
            NFock=  1  Conv=0.20D-08     -V/T= 2.0082
 DoSCS=F DFT=T ScalE2(SS,OS)=  1.000000  1.000000
 Range of M.O.s used for correlation:     1    62
 NBasis=    62 NAE=    11 NBE=    11 NFC=     0 NFV=     0
 NROrb=     62 NOA=    11 NOB=    11 NVA=    51 NVB=    51

 **** Warning!!: The largest alpha MO coefficient is  0.11789702D+02

 Symmetrizing basis deriv contribution to polar:
 IMax=3 JMax=2 DiffMx= 0.00D+00
 G2DrvN: will do     5 centers at a time, making    1 passes.
 Calling FoFCou, ICntrl=  3107 FMM=F I1Cent=   0 AccDes= 0.00D+00.
 End of G2Drv F.D. properties file   721 does not exist.
 End of G2Drv F.D. properties file   722 does not exist.
 End of G2Drv F.D. properties file   788 does not exist.
          IDoAtm=1111
          Differentiating once with respect to electric field.
                with respect to dipole field.
          Differentiating once with respect to nuclear coordinates.
 Keep R1 ints in memory in canonical form, NReq=19532879.
          There are    15 degrees of freedom in the 1st order CPHF.  IDoFFX=6 NUNeed=     3.
     12 vectors produced by pass  0 Test12= 3.74D-15 6.67D-09 XBig12= 1.37D+01 2.43D+00.
 AX will form    12 AO Fock derivatives at one time.
     12 vectors produced by pass  1 Test12= 3.74D-15 6.67D-09 XBig12= 3.89D+00 4.86D-01.
     12 vectors produced by pass  2 Test12= 3.74D-15 6.67D-09 XBig12= 4.71D-02 5.26D-02.
     12 vectors produced by pass  3 Test12= 3.74D-15 6.67D-09 XBig12= 3.42D-04 4.60D-03.
     12 vectors produced by pass  4 Test12= 3.74D-15 6.67D-09 XBig12= 2.22D-06 3.66D-04.
     12 vectors produced by pass  5 Test12= 3.74D-15 6.67D-09 XBig12= 8.06D-09 2.30D-05.
      9 vectors produced by pass  6 Test12= 3.74D-15 6.67D-09 XBig12= 1.62D-11 1.10D-06.
      2 vectors produced by pass  7 Test12= 3.74D-15 6.67D-09 XBig12= 2.44D-14 3.40D-08.
 InvSVY:  IOpt=1 It=  1 EMax= 2.22D-15
 Solved reduced A of dimension    83 with    12 vectors.
 Isotropic polarizability for W=    0.000000       13.23 Bohr**3.
 End of Minotr F.D. properties file   721 does not exist.
 End of Minotr F.D. properties file   722 does not exist.
 End of Minotr F.D. properties file   788 does not exist.

 **********************************************************************

            Population analysis using the SCF density.

 **********************************************************************

 Orbital symmetries:
       Occupied  (A) (A) (A) (A) (A) (A) (A) (A) (A) (A) (A)
       Virtual   (A) (A) (A) (A) (A) (A) (A) (A) (A) (A) (A) (A)
                 (A) (A) (A) (A) (A) (A) (A) (A) (A) (A) (A) (A)
                 (A) (A) (A) (A) (A) (A) (A) (A) (A) (A) (A) (A)
                 (A) (A) (A) (A) (A) (A) (A) (A) (A) (A) (A) (A)
                 (A) (A) (A)
 The electronic state is 1-A.
 Alpha  occ. eigenvalues --  -20.08950 -20.06676 -11.08987  -1.63534  -1.58958
 Alpha  occ. eigenvalues --   -1.11181  -0.94171  -0.92352  -0.92164  -0.80663
 Alpha  occ. eigenvalues --   -0.77928
 Alpha virt. eigenvalues --   -0.27147  -0.24586  -0.23542  -0.14563  -0.11759
 Alpha virt. eigenvalues --   -0.11332  -0.07172  -0.04300  -0.01992   0.00053
 Alpha virt. eigenvalues --    0.05408   0.06189   0.09336   0.09404   0.11909
 Alpha virt. eigenvalues --    0.14357   0.44590   0.44774   0.50898   0.60605
 Alpha virt. eigenvalues --    0.68199   0.81893   0.87463   0.88452   0.89172
 Alpha virt. eigenvalues --    1.00406   1.02261   1.07999   1.08867   1.14439
 Alpha virt. eigenvalues --    1.14880   1.19218   1.29700   1.34992   1.60489
 Alpha virt. eigenvalues --    1.69878   1.70721   1.79947   1.83765   2.09188
 Alpha virt. eigenvalues --    2.19816   2.29839   2.50654   2.71186   2.77971
 Alpha virt. eigenvalues --    2.99069   3.07608   3.20445   3.85423   4.30123
 Alpha virt. eigenvalues --    4.56009
          Condensed to atoms (all electrons):
               1          2          3          4
     1  H    0.221890  -0.011937   0.277255  -0.000139
     2  C   -0.011937   4.307959   0.372780   0.469819
     3  O    0.277255   0.372780   7.759031  -0.076348
     4  O   -0.000139   0.469819  -0.076348   7.648263
 Mulliken charges:
               1
     1  H    0.512931
     2  C    0.861380
     3  O   -0.332717
     4  O   -0.041594
 Sum of Mulliken charges =   1.00000
 Mulliken charges with hydrogens summed into heavy atoms:
               1
     2  C    0.861380
     3  O    0.180214
     4  O   -0.041594
 APT charges:
               1
     1  H    0.590609
     2  C    1.295410
     3  O   -0.614426
     4  O   -0.271594
 Sum of APT charges =   1.00000
 APT charges with hydrogens summed into heavy atoms:
               1
     2  C    1.295410
     3  O   -0.023816
     4  O   -0.271594
 Electronic spatial extent (au):  <R**2>=            116.5143
 Charge=              1.0000 electrons
 Dipole moment (field-independent basis, Debye):
    X=              2.8795    Y=              1.7920    Z=             -0.0003  Tot=              3.3916
 Quadrupole moment (field-independent basis, Debye-Ang):
   XX=             -8.0380   YY=            -12.3149   ZZ=            -13.8648
   XY=              3.3607   XZ=             -0.0005   YZ=             -0.0002
 Traceless Quadrupole moment (field-independent basis, Debye-Ang):
   XX=              3.3679   YY=             -0.9090   ZZ=             -2.4589
   XY=              3.3607   XZ=             -0.0005   YZ=             -0.0002
 Octapole moment (field-independent basis, Debye-Ang**2):
  XXX=             12.7490  YYY=              1.6130  ZZZ=             -0.0001  XYY=              2.5277
  XXY=              5.9356  XXZ=             -0.0007  XZZ=              0.1335  YZZ=              0.2395
  YYZ=             -0.0002  XYZ=             -0.0003
 Hexadecapole moment (field-independent basis, Debye-Ang**3):
 XXXX=            -71.5791 YYYY=             -9.8023 ZZZZ=             -9.7682 XXXY=             11.3325
 XXXZ=             -0.0021 YYYX=              3.1308 YYYZ=             -0.0000 ZZZX=             -0.0008
 ZZZY=              0.0001 XXYY=            -13.7972 XXZZ=            -17.9540 YYZZ=             -3.3907
 XXYZ=             -0.0006 YYXZ=             -0.0005 ZZXY=              0.4958
 N-N= 6.514975848991D+01 E-N=-5.660505700818D+02  KE= 1.871986739372D+02
  Exact polarizability:  23.136   0.305   8.675   0.000  -0.000   7.870
 Approx polarizability:  33.052  -0.268   9.894   0.000  -0.000   8.734
 Calling FoFJK, ICntrl=    100127 FMM=F ISym2X=0 I1Cent= 0 IOpClX= 0 NMat=1 NMatS=1 NMatT=0.
 Full mass-weighted force constant matrix:
 Low frequencies ---  -15.7405   -4.4793    0.0011    0.0012    0.0012  103.9316
 Low frequencies ---  546.0015  597.3948  984.2328
 Diagonal vibrational polarizability:
       12.8923054       2.3955128       1.1296916
 Harmonic frequencies (cm**-1), IR intensities (KM/Mole), Raman scattering
 activities (A**4/AMU), depolarization ratios for plane and unpolarized
 incident light, reduced masses (AMU), force constants (mDyne/A),
 and normal coordinates:
                      1                      2                      3
                      A                      A                      A
 Frequencies --    546.0008               597.3860               984.2327
 Red. masses --      3.7939                 8.7541                 1.4378
 Frc consts  --      0.6664                 1.8406                 0.8206
 IR Inten    --     43.1427                14.9809               284.4951
  Atom  AN      X      Y      Z        X      Y      Z        X      Y      Z
     1   1     0.62  -0.61  -0.00     0.00  -0.00  -0.59     0.80  -0.57   0.00
     2   6     0.01   0.43  -0.00    -0.00   0.00   0.72     0.01  -0.13   0.00
     3   8    -0.05  -0.09   0.00     0.00  -0.00  -0.22    -0.06   0.11  -0.00
     4   8     0.01  -0.19   0.00    -0.00  -0.00  -0.29     0.00   0.02  -0.00
                      4                      5                      6
                      A                      A                      A
 Frequencies --   1303.6214              2546.6533              3572.3505
 Red. masses --      8.6541                12.1104                 1.0697
 Frc consts  --      8.6651                46.2751                 8.0432
 IR Inten    --     11.7041               444.7743               691.8829
  Atom  AN      X      Y      Z        X      Y      Z        X      Y      Z
     1   1     0.69  -0.08   0.00    -0.26   0.07  -0.00     0.61   0.79  -0.00
     2   6    -0.15   0.01  -0.00     0.84  -0.00   0.00     0.00  -0.00   0.00
     3   8     0.53  -0.01   0.00    -0.18  -0.00  -0.00    -0.04  -0.05   0.00
     4   8    -0.46   0.01   0.00    -0.44  -0.00   0.00     0.00  -0.00   0.00

 -------------------
 - Thermochemistry -
 -------------------
 Temperature   298.150 Kelvin.  Pressure   1.00000 Atm.
 Atom     1 has atomic number  1 and mass   1.00783
 Atom     2 has atomic number  6 and mass  12.00000
 Atom     3 has atomic number  8 and mass  15.99491
 Atom     4 has atomic number  8 and mass  15.99491
 Molecular mass:    44.99765 amu.
 Principal axes and moments of inertia in atomic units:
                           1         2         3
     Eigenvalues --     2.25586 167.71889 169.97475
           X            0.99968   0.02533  -0.00001
           Y           -0.02533   0.99968   0.00018
           Z            0.00002  -0.00018   1.00000
 This molecule is an asymmetric top.
 Rotational symmetry number  1.
 Rotational temperatures (Kelvin)     38.39510     0.51642     0.50957
 Rotational constants (GHZ):         800.02409    10.76051    10.61770
 Zero-point vibrational energy      57123.1 (Joules/Mol)
                                   13.65276 (Kcal/Mol)
 Warning -- explicit consideration of   2 degrees of freedom as
           vibrations may cause significant error
 Vibrational temperatures:    785.57   859.51  1416.09  1875.62  3664.07
          (Kelvin)           5139.82
 
 Zero-point correction=                           0.021757 (Hartree/Particle)
 Thermal correction to Energy=                    0.024993
 Thermal correction to Enthalpy=                  0.025938
 Thermal correction to Gibbs Free Energy=        -0.001275
 Sum of electronic and zero-point Energies=           -188.704315
 Sum of electronic and thermal Energies=              -188.701078
 Sum of electronic and thermal Enthalpies=            -188.700134
 Sum of electronic and thermal Free Energies=         -188.727347
 
                     E (Thermal)             CV                S
                      KCal/Mol        Cal/Mol-Kelvin    Cal/Mol-Kelvin
 Total                   15.684              8.690             57.275
 Electronic               0.000              0.000              0.000
 Translational            0.889              2.981             37.338
 Rotational               0.889              2.981             18.804
 Vibrational             13.906              2.728              1.133
 Vibration     1          0.901              1.148              0.553
 Vibration     2          0.955              1.037              0.454
                       Q            Log10(Q)             Ln(Q)
 Total Bot       0.386018D+01          0.586607          1.350713
 Total V=0       0.392781D+11         10.594151         24.393933
 Vib (Bot)       0.113340D-09         -9.945616        -22.900627
 Vib (Bot)    1  0.288523D+00         -0.539819         -1.242979
 Vib (Bot)    2  0.250627D+00         -0.600973         -1.383791
 Vib (V=0)       0.115326D+01          0.061927          0.142593
 Vib (V=0)    1  0.107727D+01          0.032326          0.074434
 Vib (V=0)    2  0.105930D+01          0.025018          0.057606
 Electronic      0.100000D+01          0.000000          0.000000
 Translational   0.118642D+08          7.074239         16.289037
 Rotational      0.287068D+04          3.457985          7.962304
 ***** Axes restored to original set *****
 -------------------------------------------------------------------
 Center     Atomic                   Forces (Hartrees/Bohr)
 Number     Number              X              Y              Z
 -------------------------------------------------------------------
      1        1          -0.000055831    0.000030155    0.000000253
      2        6           0.000036825    0.000099351   -0.000005325
      3        8           0.000062629   -0.000018049    0.000002210
      4        8          -0.000043622   -0.000111458    0.000002862
 -------------------------------------------------------------------
 Cartesian Forces:  Max     0.000111458 RMS     0.000053126
 FormGI is forming the generalized inverse of G from B-inverse, IUseBI=4.

 GradGradGradGradGradGradGradGradGradGradGradGradGradGradGradGradGradGrad
 Berny optimization.
 Internal  Forces:  Max     0.000112826 RMS     0.000073067
 Search for a local minimum.
 Step number   1 out of a maximum of    2
 All quantities printed in internal units (Hartrees-Bohrs-Radians)
 Second derivative matrix not updated -- analytic derivatives used.
 The second derivative matrix:
                          R1        R2        R3        A1        A2
           R1           0.45774
           R2           0.00655   0.81807
           R3          -0.01560   0.06714   1.39839
           A1          -0.00025   0.02242   0.00254   0.14473
           A2           0.01799   0.09144  -0.00878   0.01013   0.10950
           D1          -0.00000   0.00000  -0.00000  -0.00001   0.00000
                          D1
           D1           0.00139
 ITU=  0
     Eigenvalues ---    0.00139   0.09578   0.14502   0.45799   0.82333
     Eigenvalues ---    1.40631
 Angle between quadratic step and forces=  40.91 degrees.
 Linear search not attempted -- first point.
 Iteration  1 RMS(Cart)=  0.00079203 RMS(Int)=  0.00000135
 Iteration  2 RMS(Cart)=  0.00000047 RMS(Int)=  0.00000000
 Variable       Old X    -DE/DX   Delta X   Delta X   Delta X     New X
                                 (Linear)    (Quad)   (Total)
    R1        1.87004  -0.00003   0.00000  -0.00010  -0.00010   1.86994
    R2        2.30984   0.00001   0.00000  -0.00010  -0.00010   2.30974
    R3        2.12490   0.00011   0.00000   0.00009   0.00009   2.12499
    A1        3.04610  -0.00009   0.00000  -0.00066  -0.00066   3.04544
    A2        2.11216   0.00010   0.00000   0.00113   0.00113   2.11328
    D1       -3.14117  -0.00000   0.00000  -0.00043  -0.00043   3.14159
         Item               Value     Threshold  Converged?
 Maximum Force            0.000113     0.000450     YES
 RMS     Force            0.000073     0.000300     YES
 Maximum Displacement     0.001177     0.001800     YES
 RMS     Displacement     0.000792     0.001200     YES
 Predicted change in Energy=-9.352159D-08
 Optimization completed.
    -- Stationary point found.
                           ----------------------------
                           !   Optimized Parameters   !
                           ! (Angstroms and Degrees)  !
 --------------------------                            --------------------------
 ! Name  Definition              Value          Derivative Info.                !
 --------------------------------------------------------------------------------
 ! R1    R(1,3)                  0.9896         -DE/DX =    0.0                 !
 ! R2    R(2,3)                  1.2223         -DE/DX =    0.0                 !
 ! R3    R(2,4)                  1.1244         -DE/DX =    0.0001              !
 ! A1    A(3,2,4)              174.5285         -DE/DX =   -0.0001              !
 ! A2    A(1,3,2)              121.0177         -DE/DX =    0.0001              !
 ! D1    D(4,2,3,1)            180.0241         -DE/DX =    0.0                 !
 --------------------------------------------------------------------------------
 GradGradGradGradGradGradGradGradGradGradGradGradGradGradGradGradGradGrad


 ----------------------------------------------------------------------

 Electric dipole moment (input orientation):
 (Debye = 10**-18 statcoulomb cm , SI units = C m)
                  (au)            (Debye)         (10**-30 SI)
   Tot        0.133435D+01      0.339159D+01      0.113131D+02
   x          0.748518D+00      0.190254D+01      0.634620D+01
   y          0.110464D+01      0.280771D+01      0.936550D+01
   z          0.131468D-03      0.334159D-03      0.111463D-02

 Dipole polarizability, Alpha (input orientation).
 (esu units = cm**3 , SI units = C**2 m**2 J**-1)
 Alpha(0;0):
               (au)            (10**-24 esu)      (10**-40 SI)
   iso        0.132270D+02      0.196004D+01      0.218084D+01
   aniso      0.148893D+02      0.220636D+01      0.245491D+01
   xx         0.872047D+01      0.129224D+01      0.143781D+01
   yx         0.866053D+00      0.128336D+00      0.142793D+00
   yy         0.230905D+02      0.342166D+01      0.380711D+01
   zx         0.141906D-03      0.210283D-04      0.233971D-04
   zy        -0.104516D-03     -0.154877D-04     -0.172324D-04
   zz         0.787015D+01      0.116624D+01      0.129761D+01

 ----------------------------------------------------------------------

 Dipole orientation:
     1         -2.81900741          1.91058930          1.59167617
     6         -2.21442612          1.50064659         -1.97911619
     8         -3.38221181          2.29230968         -0.15020172
     8         -1.27778415          0.86577195         -3.77767960

 Electric dipole moment (dipole orientation):
 (Debye = 10**-18 statcoulomb cm , SI units = C m)
                  (au)            (Debye)         (10**-30 SI)
   Tot        0.133435D+01      0.339159D+01      0.113131D+02
   x          0.000000D+00      0.000000D+00      0.000000D+00
   y          0.000000D+00      0.000000D+00      0.000000D+00
   z          0.133435D+01      0.339159D+01      0.113131D+02

 Dipole polarizability, Alpha (dipole orientation).
 (esu units = cm**3 , SI units = C**2 m**2 J**-1)
 Alpha(0;0):
               (au)            (10**-24 esu)      (10**-40 SI)
   iso        0.132270D+02      0.196004D+01      0.218084D+01
   aniso      0.148893D+02      0.220636D+01      0.245491D+01
   xx         0.109999D+02      0.163001D+01      0.181363D+01
   yx        -0.212154D+01     -0.314380D+00     -0.349795D+00
   yy         0.930828D+01      0.137934D+01      0.153473D+01
   zx        -0.525802D+01     -0.779158D+00     -0.866930D+00
   zy         0.356429D+01      0.528173D+00      0.587672D+00
   zz         0.193730D+02      0.287078D+01      0.319417D+01

 ----------------------------------------------------------------------
 1\1\GINC-NODE2\Freq\RM062X\6-31+G(d,p)\C1H1O2(1+)\GONGKE2021\13-Oct-20
 23\0\\#N Geom=AllCheck Guess=TCheck SCRF=Check GenChk RM062X/6-31+G(d,
 p) Freq\\"Sketch 2"\\1,1\H,-1.0193662517,1.7081744334,-0.0000873503\C,
 -1.7593471794,-0.072938533,-0.0001554053\O,-1.8344926927,1.1470664972,
 -0.0002153504\O,-1.7975478761,-1.1967373975,-0.0001648941\\Version=ES6
 4L-G16RevA.03\State=1-A\HF=-188.7260717\RMSD=1.960e-09\RMSF=5.313e-05\
 ZeroPoint=0.0217571\Thermal=0.0249935\Dipole=0.7485182,1.1046372,0.000
 1315\DipoleDeriv=0.5423744,0.2376825,-0.0000008,0.1507445,0.7314093,0.
 0000216,0.0000025,0.0000368,0.4980448,0.7171388,-0.0364172,-0.0000181,
 0.0336069,2.360063,-0.0000365,-0.0000196,-0.0000448,0.8090283,-0.18615
 57,-0.1554706,0.0000164,-0.1990747,-1.4280206,-0.0000096,0.0000158,0.0
 000156,-0.2291008,-0.0733574,-0.0457947,0.0000025,0.0147233,-0.6634518
 ,0.0000244,0.0000013,-0.0000077,-0.0779722\Polar=8.7204716,0.8660531,2
 3.0904945,0.0001419,-0.0001045,7.8701485\Quadrupole=-0.4769535,2.30505
 7,-1.8281036,2.6145474,0.0001718,0.0003514\PG=C01 [X(C1H1O2)]\NImag=0\
 \0.31168555,0.20256718,0.17745261,0.00004779,0.00002943,0.00093902,0.0
 0914913,-0.02685443,0.00000422,0.14392584,0.01262504,-0.05821166,0.000
 00489,0.06306523,2.08364942,0.00000252,-0.00000362,-0.00797854,0.00000
 466,-0.00001230,0.11663827,-0.31962985,-0.17819022,-0.00005099,-0.0885
 3954,-0.02029800,-0.00000712,0.37586213,-0.22542611,-0.13187759,-0.000
 03546,0.01477810,-0.69577674,0.00002471,0.20296250,0.90751921,-0.00004
 927,-0.00002641,0.00275061,-0.00000839,0.00002017,-0.04605794,0.000056
 68,0.00000601,0.01851643,-0.00120483,0.00247747,-0.00000101,-0.0645354
 2,-0.05539227,-0.00000005,0.03230726,0.00768551,0.00000098,0.03343299,
 0.01023389,0.01263665,0.00000115,-0.05098890,-1.32966101,-0.00000879,-
 0.00447428,-0.07986488,0.00000022,0.04522929,1.39688925,-0.00000103,0.
 00000060,0.00428891,-0.00000049,-0.00001276,-0.06260179,0.00000144,0.0
 0000474,0.02479090,0.00000009,0.00000742,0.03352198\\0.00005583,-0.000
 03016,-0.00000025,-0.00003682,-0.00009935,0.00000533,-0.00006263,0.000
 01805,-0.00000221,0.00004362,0.00011146,-0.00000286\\\@


 IT IS IMPOSSIBLE TO MEDITATE ON TIME AND THE MYSTERY 
 OF NATURE WITHOUT AN OVERWHELMING EMOTION AT THE
 LIMITATIONS OF HUMAN INTELLIGENCE.

                                         -- ALFRED NORTH WHITEHEAD
 Job cpu time:       0 days  0 hours  1 minutes 49.6 seconds.
 Elapsed time:       0 days  0 hours  0 minutes  6.0 seconds.
 File lengths (MBytes):  RWF=      6 Int=      0 D2E=      0 Chk=      1 Scr=      1
 Normal termination of Gaussian 16 at Fri Oct 13 23:34:52 2023.
