 Entering Gaussian System, Link 0=/opt/soft/g16/g16
 Initial command:
 /opt/soft/g16/l1.exe "/scratch/gongke2021/1-H-Tz-RC/Gau-17507.inp" -scrdir="/scratch/gongke2021/1-H-Tz-RC/"
 Entering Link 1 = /opt/soft/g16/l1.exe PID=     17508.
  
 Copyright (c) 1988,1990,1992,1993,1995,1998,2003,2009,2016,
            Gaussian, Inc.  All Rights Reserved.
  
 This is part of the Gaussian(R) 16 program.  It is based on
 the Gaussian(R) 09 system (copyright 2009, Gaussian, Inc.),
 the Gaussian(R) 03 system (copyright 2003, Gaussian, Inc.),
 the Gaussian(R) 98 system (copyright 1998, Gaussian, Inc.),
 the Gaussian(R) 94 system (copyright 1995, Gaussian, Inc.),
 the Gaussian 92(TM) system (copyright 1992, Gaussian, Inc.),
 the Gaussian 90(TM) system (copyright 1990, Gaussian, Inc.),
 the Gaussian 88(TM) system (copyright 1988, Gaussian, Inc.),
 the Gaussian 86(TM) system (copyright 1986, Carnegie Mellon
 University), and the Gaussian 82(TM) system (copyright 1983,
 Carnegie Mellon University). Gaussian is a federally registered
 trademark of Gaussian, Inc.
  
 This software contains proprietary and confidential information,
 including trade secrets, belonging to Gaussian, Inc.
  
 This software is provided under written license and may be
 used, copied, transmitted, or stored only in accord with that
 written license.
  
 The following legend is applicable only to US Government
 contracts under FAR:
  
                    RESTRICTED RIGHTS LEGEND
  
 Use, reproduction and disclosure by the US Government is
 subject to restrictions as set forth in subparagraphs (a)
 and (c) of the Commercial Computer Software - Restricted
 Rights clause in FAR 52.227-19.
  
 Gaussian, Inc.
 340 Quinnipiac St., Bldg. 40, Wallingford CT 06492
  
  
 ---------------------------------------------------------------
 Warning -- This program may not be used in any manner that
 competes with the business of Gaussian, Inc. or will provide
 assistance to any competitor of Gaussian, Inc.  The licensee
 of this program is prohibited from giving any competitor of
 Gaussian, Inc. access to this program.  By using this program,
 the user acknowledges that Gaussian, Inc. is engaged in the
 business of creating and licensing software in the field of
 computational chemistry and represents and warrants to the
 licensee that it is not a competitor of Gaussian, Inc. and that
 it will not use this program in any manner prohibited above.
 ---------------------------------------------------------------
  

 Cite this work as:
 Gaussian 16, Revision A.03,
 M. J. Frisch, G. W. Trucks, H. B. Schlegel, G. E. Scuseria, 
 M. A. Robb, J. R. Cheeseman, G. Scalmani, V. Barone, 
 G. A. Petersson, H. Nakatsuji, X. Li, M. Caricato, A. V. Marenich, 
 J. Bloino, B. G. Janesko, R. Gomperts, B. Mennucci, H. P. Hratchian, 
 J. V. Ortiz, A. F. Izmaylov, J. L. Sonnenberg, D. Williams-Young, 
 F. Ding, F. Lipparini, F. Egidi, J. Goings, B. Peng, A. Petrone, 
 T. Henderson, D. Ranasinghe, V. G. Zakrzewski, J. Gao, N. Rega, 
 G. Zheng, W. Liang, M. Hada, M. Ehara, K. Toyota, R. Fukuda, 
 J. Hasegawa, M. Ishida, T. Nakajima, Y. Honda, O. Kitao, H. Nakai, 
 T. Vreven, K. Throssell, J. A. Montgomery, Jr., J. E. Peralta, 
 F. Ogliaro, M. J. Bearpark, J. J. Heyd, E. N. Brothers, K. N. Kudin, 
 V. N. Staroverov, T. A. Keith, R. Kobayashi, J. Normand, 
 K. Raghavachari, A. P. Rendell, J. C. Burant, S. S. Iyengar, 
 J. Tomasi, M. Cossi, J. M. Millam, M. Klene, C. Adamo, R. Cammi, 
 J. W. Ochterski, R. L. Martin, K. Morokuma, O. Farkas, 
 J. B. Foresman, and D. J. Fox, Gaussian, Inc., Wallingford CT, 2016.
 
 ******************************************
 Gaussian 16:  ES64L-G16RevA.03 25-Dec-2016
                13-Nov-2023 
 ******************************************
 %mem=10GB
 %nprocshared=24
 Will use up to   24 processors via shared memory.
 ----------------------------
 # opt freq 6-31+g(d,p) m062x
 ----------------------------
 1/18=20,19=15,26=3,38=1/1,3;
 2/9=110,12=2,17=6,18=5,40=1/2;
 3/5=1,6=6,7=111,11=2,25=1,30=1,71=1,74=-55/1,2,3;
 4//1;
 5/5=2,38=5/2;
 6/7=2,8=2,9=2,10=2,28=1/1;
 7//1,2,3,16;
 1/18=20,19=15,26=3/3(2);
 2/9=110/2;
 99//99;
 2/9=110/2;
 3/5=1,6=6,7=111,11=2,25=1,30=1,71=1,74=-55/1,2,3;
 4/5=5,16=3,69=1/1;
 5/5=2,38=5/2;
 7//1,2,3,16;
 1/18=20,19=15,26=3/3(-5);
 2/9=110/2;
 6/7=2,8=2,9=2,10=2,19=2,28=1/1;
 99/9=1/99;
 -------------------
 Title Card Required
 -------------------
 Symbolic Z-matrix:
 Charge =  0 Multiplicity = 2
 N                    -0.01093  -0.01133   0.09712 
 N                     0.80454   1.0892    0.03032 
 C                     2.09163   0.61326  -0.03982 
 C                     1.98782  -0.75832  -0.03672 
 N                     0.70259  -1.17295   0.03529 
 H                     2.94161   1.2724   -0.08535 
 H                     2.78654  -1.48215  -0.08475 
 H                     0.38813   2.00854   0.04753 
 C                    -1.88055   0.16467   0.05664 
 O                    -2.50661  -1.01296   0.0307 
 O                    -2.41727   1.24913   0.0227 
 H                    -1.8507   -1.73194   0.03873 
 
 Add virtual bond connecting atoms C9         and N1         Dist= 3.55D+00.

 GradGradGradGradGradGradGradGradGradGradGradGradGradGradGradGradGradGrad
 Berny optimization.
 Initialization pass.
                           ----------------------------
                           !    Initial Parameters    !
                           ! (Angstroms and Degrees)  !
 --------------------------                            --------------------------
 ! Name  Definition              Value          Derivative Info.                !
 --------------------------------------------------------------------------------
 ! R1    R(1,2)                  1.3714         estimate D2E/DX2                !
 ! R2    R(1,5)                  1.3647         estimate D2E/DX2                !
 ! R3    R(1,9)                  1.8783         estimate D2E/DX2                !
 ! R4    R(2,3)                  1.3741         estimate D2E/DX2                !
 ! R5    R(2,8)                  1.0094         estimate D2E/DX2                !
 ! R6    R(3,4)                  1.3755         estimate D2E/DX2                !
 ! R7    R(3,6)                  1.0766         estimate D2E/DX2                !
 ! R8    R(4,5)                  1.3524         estimate D2E/DX2                !
 ! R9    R(4,7)                  1.079          estimate D2E/DX2                !
 ! R10   R(9,10)                 1.334          estimate D2E/DX2                !
 ! R11   R(9,11)                 1.2105         estimate D2E/DX2                !
 ! R12   R(10,12)                0.9732         estimate D2E/DX2                !
 ! A1    A(2,1,5)              111.715          estimate D2E/DX2                !
 ! A2    A(2,1,9)              121.0407         estimate D2E/DX2                !
 ! A3    A(5,1,9)              126.8137         estimate D2E/DX2                !
 ! A4    A(1,2,3)              106.3512         estimate D2E/DX2                !
 ! A5    A(1,2,8)              118.9975         estimate D2E/DX2                !
 ! A6    A(3,2,8)              134.6493         estimate D2E/DX2                !
 ! A7    A(2,3,4)              105.937          estimate D2E/DX2                !
 ! A8    A(2,3,6)              121.9815         estimate D2E/DX2                !
 ! A9    A(4,3,6)              132.0815         estimate D2E/DX2                !
 ! A10   A(3,4,5)              112.1825         estimate D2E/DX2                !
 ! A11   A(3,4,7)              127.8045         estimate D2E/DX2                !
 ! A12   A(5,4,7)              120.013          estimate D2E/DX2                !
 ! A13   A(1,5,4)              103.7881         estimate D2E/DX2                !
 ! A14   A(1,9,10)             112.6343         estimate D2E/DX2                !
 ! A15   A(1,9,11)             121.7275         estimate D2E/DX2                !
 ! A16   A(10,9,11)            125.6103         estimate D2E/DX2                !
 ! A17   A(9,10,12)            109.6165         estimate D2E/DX2                !
 ! D1    D(5,1,2,3)             -1.681          estimate D2E/DX2                !
 ! D2    D(5,1,2,8)            178.7549         estimate D2E/DX2                !
 ! D3    D(9,1,2,3)           -174.6417         estimate D2E/DX2                !
 ! D4    D(9,1,2,8)              5.7941         estimate D2E/DX2                !
 ! D5    D(2,1,5,4)              1.5377         estimate D2E/DX2                !
 ! D6    D(9,1,5,4)            174.0014         estimate D2E/DX2                !
 ! D7    D(2,1,9,10)           175.3028         estimate D2E/DX2                !
 ! D8    D(2,1,9,11)            -2.8793         estimate D2E/DX2                !
 ! D9    D(5,1,9,10)             3.4786         estimate D2E/DX2                !
 ! D10   D(5,1,9,11)          -174.7034         estimate D2E/DX2                !
 ! D11   D(1,2,3,4)              1.0828         estimate D2E/DX2                !
 ! D12   D(1,2,3,6)           -178.978          estimate D2E/DX2                !
 ! D13   D(8,2,3,4)           -179.453          estimate D2E/DX2                !
 ! D14   D(8,2,3,6)              0.4862         estimate D2E/DX2                !
 ! D15   D(2,3,4,5)             -0.1638         estimate D2E/DX2                !
 ! D16   D(2,3,4,7)            179.7496         estimate D2E/DX2                !
 ! D17   D(6,3,4,5)            179.9056         estimate D2E/DX2                !
 ! D18   D(6,3,4,7)             -0.181          estimate D2E/DX2                !
 ! D19   D(3,4,5,1)             -0.8212         estimate D2E/DX2                !
 ! D20   D(7,4,5,1)            179.2578         estimate D2E/DX2                !
 ! D21   D(1,9,10,12)            0.0259         estimate D2E/DX2                !
 ! D22   D(11,9,10,12)         178.1239         estimate D2E/DX2                !
 --------------------------------------------------------------------------------
 Trust Radius=3.00D-01 FncErr=1.00D-07 GrdErr=1.00D-06 EigMax=2.50D+02 EigMin=1.00D-04
 Number of steps in this run=     61 maximum allowed number of steps=    100.
 GradGradGradGradGradGradGradGradGradGradGradGradGradGradGradGradGradGrad

                          Input orientation:                          
 ---------------------------------------------------------------------
 Center     Atomic      Atomic             Coordinates (Angstroms)
 Number     Number       Type             X           Y           Z
 ---------------------------------------------------------------------
      1          7           0       -0.010928   -0.011327    0.097115
      2          7           0        0.804539    1.089198    0.030316
      3          6           0        2.091626    0.613260   -0.039822
      4          6           0        1.987821   -0.758318   -0.036721
      5          7           0        0.702592   -1.172946    0.035288
      6          1           0        2.941613    1.272399   -0.085346
      7          1           0        2.786540   -1.482147   -0.084754
      8          1           0        0.388130    2.008535    0.047530
      9          6           0       -1.880554    0.164668    0.056637
     10          8           0       -2.506607   -1.012964    0.030695
     11          8           0       -2.417265    1.249126    0.022703
     12          1           0       -1.850704   -1.731945    0.038725
 ---------------------------------------------------------------------
                    Distance matrix (angstroms):
                    1          2          3          4          5
     1  N    0.000000
     2  N    1.371351   0.000000
     3  C    2.197634   1.374056   0.000000
     4  C    2.137968   2.194986   1.375504   0.000000
     5  N    1.364658   2.264445   2.263976   1.352374   0.000000
     6  H    3.224708   2.148028   1.076575   2.244080   3.317752
     7  H    3.165788   3.248597   2.208089   1.078975   2.110179
     8  H    2.059502   1.009393   2.203706   3.197121   3.197008
     9  C    1.878327   2.839925   3.998594   3.978058   2.909005
    10  O    2.690000   3.922088   4.877840   4.502141   3.213187
    11  O    2.717487   3.225780   4.553936   4.841296   3.949696
    12  H    2.519665   3.874175   4.587823   3.960797   2.613774
                    6          7          8          9         10
     6  H    0.000000
     7  H    2.758908   0.000000
     8  H    2.660795   4.237302   0.000000
     9  C    4.949800   4.951137   2.923501   0.000000
    10  O    5.909268   5.315154   4.184405   1.333954   0.000000
    11  O    5.360018   5.878009   2.906469   1.210479   2.263868
    12  H    5.657542   4.645608   4.359317   1.896932   0.973246
                   11         12
    11  O    0.000000
    12  H    3.034474   0.000000
 Stoichiometry    C3H4N3O2(2)
 Framework group  C1[X(C3H4N3O2)]
 Deg. of freedom    30
 Full point group                 C1      NOp   1
 Largest Abelian subgroup         C1      NOp   1
 Largest concise Abelian subgroup C1      NOp   1
                         Standard orientation:                         
 ---------------------------------------------------------------------
 Center     Atomic      Atomic             Coordinates (Angstroms)
 Number     Number       Type             X           Y           Z
 ---------------------------------------------------------------------
      1          7           0        0.182965   -0.031545    0.076416
      2          7           0        0.976779    1.085330    0.021160
      3          6           0        2.274061    0.635620   -0.032207
      4          6           0        2.198037   -0.737782   -0.031379
      5          7           0        0.920631   -1.178419    0.023302
      6          1           0        3.111047    1.311879   -0.066020
      7          1           0        3.011824   -1.445242   -0.069285
      8          1           0        0.541636    1.996029    0.033449
      9          6           0       -1.689143    0.106588    0.011254
     10          8           0       -2.290808   -1.083457   -0.023761
     11          8           0       -2.247220    1.179985   -0.029089
     12          1           0       -1.620635   -1.789014   -0.007499
 ---------------------------------------------------------------------
 Rotational constants (GHZ):           5.0689432           1.3789025           1.0847334
 Standard basis: 6-31+G(d,p) (6D, 7F)
 There are   172 symmetry adapted cartesian basis functions of A   symmetry.
 There are   172 symmetry adapted basis functions of A   symmetry.
   172 basis functions,   284 primitive gaussians,   172 cartesian basis functions
    30 alpha electrons       29 beta electrons
       nuclear repulsion energy       352.4914597130 Hartrees.
 NAtoms=   12 NActive=   12 NUniq=   12 SFac= 1.00D+00 NAtFMM=   60 NAOKFM=F Big=F
 Integral buffers will be    131072 words long.
 Raffenetti 2 integral format.
 Two-electron integral symmetry is turned on.
 One-electron integrals computed using PRISM.
 NBasis=   172 RedAO= T EigKep=  3.88D-05  NBF=   172
 NBsUse=   172 1.00D-06 EigRej= -1.00D+00 NBFU=   172
 ExpMin= 4.38D-02 ExpMax= 5.48D+03 ExpMxC= 8.25D+02 IAcc=3 IRadAn=         5 AccDes= 0.00D+00
 Harris functional with IExCor= 1009 and IRadAn=       5 diagonalized for initial guess.
 HarFok:  IExCor= 1009 AccDes= 0.00D+00 IRadAn=         5 IDoV= 1 UseB2=F ITyADJ=14
 ICtDFT=  3500011 ScaDFX=  1.000000  1.000000  1.000000  1.000000
 FoFCou: FMM=F IPFlag=           0 FMFlag=      100000 FMFlg1=           0
         NFxFlg=           0 DoJE=T BraDBF=F KetDBF=T FulRan=T
         wScrn=  0.000000 ICntrl=       500 IOpCl=  0 I1Cent=   200000004 NGrid=           0
         NMat0=    1 NMatS0=      1 NMatT0=    0 NMatD0=    1 NMtDS0=    0 NMtDT0=    0
 Petite list used in FoFCou.
 Initial guess <Sx>= 0.0000 <Sy>= 0.0000 <Sz>= 0.5000 <S**2>= 0.7500 S= 0.5000
 Keep R1 and R2 ints in memory in canonical form, NReq=245384874.
 Requested convergence on RMS density matrix=1.00D-08 within 128 cycles.
 Requested convergence on MAX density matrix=1.00D-06.
 Requested convergence on             energy=1.00D-06.
 No special actions if energy rises.
 SCF Done:  E(UM062X) =  -431.118136148     A.U. after   24 cycles
            NFock= 24  Conv=0.13D-08     -V/T= 2.0095
 <Sx>= 0.0000 <Sy>= 0.0000 <Sz>= 0.5000 <S**2>= 0.7640 S= 0.5070
 <L.S>=  0.00000000000    
 Annihilation of the first spin contaminant:
 S**2 before annihilation     0.7640,   after     0.7501

 **********************************************************************

            Population analysis using the SCF density.

 **********************************************************************

 Orbital symmetries:
 Alpha Orbitals:
       Occupied  (A) (A) (A) (A) (A) (A) (A) (A) (A) (A) (A) (A)
                 (A) (A) (A) (A) (A) (A) (A) (A) (A) (A) (A) (A)
                 (A) (A) (A) (A) (A) (A)
       Virtual   (A) (A) (A) (A) (A) (A) (A) (A) (A) (A) (A) (A)
                 (A) (A) (A) (A) (A) (A) (A) (A) (A) (A) (A) (A)
                 (A) (A) (A) (A) (A) (A) (A) (A) (A) (A) (A) (A)
                 (A) (A) (A) (A) (A) (A) (A) (A) (A) (A) (A) (A)
                 (A) (A) (A) (A) (A) (A) (A) (A) (A) (A) (A) (A)
                 (A) (A) (A) (A) (A) (A) (A) (A) (A) (A) (A) (A)
                 (A) (A) (A) (A) (A) (A) (A) (A) (A) (A) (A) (A)
                 (A) (A) (A) (A) (A) (A) (A) (A) (A) (A) (A) (A)
                 (A) (A) (A) (A) (A) (A) (A) (A) (A) (A) (A) (A)
                 (A) (A) (A) (A) (A) (A) (A) (A) (A) (A) (A) (A)
                 (A) (A) (A) (A) (A) (A) (A) (A) (A) (A) (A) (A)
                 (A) (A) (A) (A) (A) (A) (A) (A) (A) (A)
 Beta  Orbitals:
       Occupied  (A) (A) (A) (A) (A) (A) (A) (A) (A) (A) (A) (A)
                 (A) (A) (A) (A) (A) (A) (A) (A) (A) (A) (A) (A)
                 (A) (A) (A) (A) (A)
       Virtual   (A) (A) (A) (A) (A) (A) (A) (A) (A) (A) (A) (A)
                 (A) (A) (A) (A) (A) (A) (A) (A) (A) (A) (A) (A)
                 (A) (A) (A) (A) (A) (A) (A) (A) (A) (A) (A) (A)
                 (A) (A) (A) (A) (A) (A) (A) (A) (A) (A) (A) (A)
                 (A) (A) (A) (A) (A) (A) (A) (A) (A) (A) (A) (A)
                 (A) (A) (A) (A) (A) (A) (A) (A) (A) (A) (A) (A)
                 (A) (A) (A) (A) (A) (A) (A) (A) (A) (A) (A) (A)
                 (A) (A) (A) (A) (A) (A) (A) (A) (A) (A) (A) (A)
                 (A) (A) (A) (A) (A) (A) (A) (A) (A) (A) (A) (A)
                 (A) (A) (A) (A) (A) (A) (A) (A) (A) (A) (A) (A)
                 (A) (A) (A) (A) (A) (A) (A) (A) (A) (A) (A) (A)
                 (A) (A) (A) (A) (A) (A) (A) (A) (A) (A) (A)
 The electronic state is 2-A.
 Alpha  occ. eigenvalues --  -19.75079 -19.70082 -14.87210 -14.84910 -14.79025
 Alpha  occ. eigenvalues --  -10.77672 -10.59416 -10.58294  -1.27965  -1.20690
 Alpha  occ. eigenvalues --   -1.19675  -1.01604  -0.91203  -0.76122  -0.74613
 Alpha  occ. eigenvalues --   -0.70814  -0.68480  -0.60586  -0.58381  -0.57917
 Alpha  occ. eigenvalues --   -0.54971  -0.53491  -0.51553  -0.50040  -0.44527
 Alpha  occ. eigenvalues --   -0.41516  -0.39435  -0.38587  -0.34940  -0.16486
 Alpha virt. eigenvalues --   -0.01617   0.00808   0.01866   0.02391   0.03476
 Alpha virt. eigenvalues --    0.04500   0.05018   0.06022   0.06585   0.08238
 Alpha virt. eigenvalues --    0.09149   0.09360   0.10273   0.11916   0.13209
 Alpha virt. eigenvalues --    0.14237   0.15300   0.17375   0.17911   0.19124
 Alpha virt. eigenvalues --    0.19288   0.20529   0.21980   0.23337   0.23612
 Alpha virt. eigenvalues --    0.24073   0.25738   0.26224   0.26698   0.27902
 Alpha virt. eigenvalues --    0.28670   0.28884   0.29219   0.30482   0.32055
 Alpha virt. eigenvalues --    0.32890   0.33790   0.35291   0.36792   0.38445
 Alpha virt. eigenvalues --    0.38887   0.42243   0.44447   0.47244   0.52461
 Alpha virt. eigenvalues --    0.56582   0.69096   0.71214   0.73472   0.75824
 Alpha virt. eigenvalues --    0.77999   0.84939   0.88128   0.90233   0.92752
 Alpha virt. eigenvalues --    0.94792   0.95715   0.96243   0.97677   1.00627
 Alpha virt. eigenvalues --    1.01772   1.02033   1.05646   1.09372   1.11317
 Alpha virt. eigenvalues --    1.16193   1.17033   1.17977   1.18755   1.23988
 Alpha virt. eigenvalues --    1.26483   1.27953   1.30078   1.32868   1.34067
 Alpha virt. eigenvalues --    1.35542   1.36536   1.37179   1.38800   1.40636
 Alpha virt. eigenvalues --    1.41333   1.42774   1.46969   1.51952   1.52378
 Alpha virt. eigenvalues --    1.57232   1.58063   1.62412   1.68742   1.75136
 Alpha virt. eigenvalues --    1.79252   1.83267   1.88346   1.89903   1.90682
 Alpha virt. eigenvalues --    1.95119   1.98663   2.02115   2.06340   2.08565
 Alpha virt. eigenvalues --    2.14507   2.17860   2.22359   2.24792   2.26542
 Alpha virt. eigenvalues --    2.31187   2.34298   2.34565   2.35654   2.40180
 Alpha virt. eigenvalues --    2.44626   2.46187   2.52639   2.56883   2.57511
 Alpha virt. eigenvalues --    2.59245   2.63667   2.64129   2.68820   2.68987
 Alpha virt. eigenvalues --    2.76962   2.77645   2.87246   2.92944   2.93747
 Alpha virt. eigenvalues --    2.97020   2.99255   3.07624   3.19052   3.20457
 Alpha virt. eigenvalues --    3.28494   3.46832   3.52688   3.76115   4.01338
 Alpha virt. eigenvalues --    4.16728   4.23027   4.30626   4.34682   4.42566
 Alpha virt. eigenvalues --    4.55283   4.71799
  Beta  occ. eigenvalues --  -19.75044 -19.69981 -14.86759 -14.84459 -14.78531
  Beta  occ. eigenvalues --  -10.77562 -10.59263 -10.58380  -1.27755  -1.19602
  Beta  occ. eigenvalues --   -1.19203  -1.00068  -0.90242  -0.75639  -0.73573
  Beta  occ. eigenvalues --   -0.70213  -0.67789  -0.60064  -0.58112  -0.57014
  Beta  occ. eigenvalues --   -0.52980  -0.52541  -0.51214  -0.49658  -0.43800
  Beta  occ. eigenvalues --   -0.40824  -0.37304  -0.34876  -0.32087
  Beta virt. eigenvalues --   -0.01113  -0.00482   0.00942   0.02561   0.03245
  Beta virt. eigenvalues --    0.04638   0.04641   0.04990   0.06660   0.07272
  Beta virt. eigenvalues --    0.07894   0.08408   0.09343   0.10058   0.12182
  Beta virt. eigenvalues --    0.12773   0.14294   0.15065   0.17478   0.17970
  Beta virt. eigenvalues --    0.19154   0.19491   0.20857   0.22035   0.23146
  Beta virt. eigenvalues --    0.23519   0.24313   0.25590   0.26214   0.26368
  Beta virt. eigenvalues --    0.28026   0.28748   0.29129   0.29340   0.30777
  Beta virt. eigenvalues --    0.32258   0.33015   0.33586   0.35188   0.36553
  Beta virt. eigenvalues --    0.38491   0.38893   0.42577   0.44475   0.47614
  Beta virt. eigenvalues --    0.52814   0.57033   0.69414   0.71798   0.74023
  Beta virt. eigenvalues --    0.75823   0.78307   0.85117   0.88293   0.90326
  Beta virt. eigenvalues --    0.93130   0.95688   0.96247   0.96771   0.99324
  Beta virt. eigenvalues --    1.00822   1.02238   1.04223   1.05938   1.09487
  Beta virt. eigenvalues --    1.11611   1.16364   1.17393   1.18236   1.19024
  Beta virt. eigenvalues --    1.23983   1.26992   1.28523   1.30268   1.33394
  Beta virt. eigenvalues --    1.34203   1.35687   1.37092   1.38089   1.39351
  Beta virt. eigenvalues --    1.40983   1.41828   1.42954   1.47476   1.52357
  Beta virt. eigenvalues --    1.53147   1.57462   1.58693   1.63019   1.69116
  Beta virt. eigenvalues --    1.75287   1.79375   1.83372   1.88563   1.90338
  Beta virt. eigenvalues --    1.91129   1.95612   1.98761   2.02360   2.06835
  Beta virt. eigenvalues --    2.08630   2.15045   2.19033   2.22719   2.25319
  Beta virt. eigenvalues --    2.26991   2.31532   2.34654   2.34887   2.36150
  Beta virt. eigenvalues --    2.40756   2.45020   2.46365   2.52977   2.57287
  Beta virt. eigenvalues --    2.58018   2.59437   2.64257   2.64464   2.69241
  Beta virt. eigenvalues --    2.69345   2.77613   2.78279   2.87558   2.93159
  Beta virt. eigenvalues --    2.93897   2.97350   2.99732   3.07890   3.19475
  Beta virt. eigenvalues --    3.20629   3.28856   3.46974   3.52794   3.76655
  Beta virt. eigenvalues --    4.01569   4.16818   4.23097   4.30808   4.35552
  Beta virt. eigenvalues --    4.42807   4.55514   4.72212
          Condensed to atoms (all electrons):
               1          2          3          4          5          6
     1  N    7.398306  -0.465338   0.044274   0.033236  -0.083084   0.017524
     2  N   -0.465338   7.676222  -0.009240   0.017094  -0.092302  -0.054572
     3  C    0.044274  -0.009240   5.615738   0.120776   0.001460   0.369130
     4  C    0.033236   0.017094   0.120776   5.452710   0.179437   0.003043
     5  N   -0.083084  -0.092302   0.001460   0.179437   7.269013   0.000324
     6  H    0.017524  -0.054572   0.369130   0.003043   0.000324   0.477092
     7  H    0.010791  -0.009164  -0.005785   0.375797  -0.047407  -0.000127
     8  H    0.029464   0.271556   0.015601  -0.015671   0.009248  -0.000767
     9  C    0.195037  -0.033892  -0.004404  -0.005925  -0.017334   0.000021
    10  O   -0.066909   0.006302   0.004354  -0.006235  -0.004599   0.000011
    11  O   -0.047240   0.001737  -0.001762  -0.000388   0.015435  -0.000014
    12  H    0.014508   0.007747  -0.005262   0.006291  -0.002261  -0.000000
               7          8          9         10         11         12
     1  N    0.010791   0.029464   0.195037  -0.066909  -0.047240   0.014508
     2  N   -0.009164   0.271556  -0.033892   0.006302   0.001737   0.007747
     3  C   -0.005785   0.015601  -0.004404   0.004354  -0.001762  -0.005262
     4  C    0.375797  -0.015671  -0.005925  -0.006235  -0.000388   0.006291
     5  N   -0.047407   0.009248  -0.017334  -0.004599   0.015435  -0.002261
     6  H   -0.000127  -0.000767   0.000021   0.000011  -0.000014  -0.000000
     7  H    0.500666  -0.000065   0.000227   0.000055  -0.000007  -0.000012
     8  H   -0.000065   0.335842  -0.000231   0.000586   0.001911  -0.000016
     9  C    0.000227  -0.000231   4.617303   0.198739   0.459648  -0.004027
    10  O    0.000055   0.000586   0.198739   8.125115  -0.082191   0.229906
    11  O   -0.000007   0.001911   0.459648  -0.082191   8.037460   0.008704
    12  H   -0.000012  -0.000016  -0.004027   0.229906   0.008704   0.327055
          Atomic-Atomic Spin Densities.
               1          2          3          4          5          6
     1  N    0.601705  -0.268387   0.109123   0.028656  -0.283913  -0.000038
     2  N   -0.268387   0.588618  -0.208642  -0.045077   0.137607   0.000575
     3  C    0.109123  -0.208642   0.368533   0.078206  -0.098140  -0.002696
     4  C    0.028656  -0.045077   0.078206  -0.145131  -0.041083   0.002818
     5  N   -0.283913   0.137607  -0.098140  -0.041083   0.652993  -0.000359
     6  H   -0.000038   0.000575  -0.002696   0.002818  -0.000359  -0.010192
     7  H    0.002791   0.000033  -0.001085   0.003101  -0.004124   0.000064
     8  H   -0.004850   0.006281  -0.003667   0.002469  -0.001428   0.000097
     9  C    0.045683  -0.028762   0.002331   0.000722  -0.026978   0.000024
    10  O   -0.011171   0.005124  -0.001319   0.000299   0.007651  -0.000002
    11  O   -0.016691   0.010639  -0.001513  -0.000600   0.005512  -0.000004
    12  H   -0.001866   0.000183   0.000076  -0.000100   0.001356  -0.000000
               7          8          9         10         11         12
     1  N    0.002791  -0.004850   0.045683  -0.011171  -0.016691  -0.001866
     2  N    0.000033   0.006281  -0.028762   0.005124   0.010639   0.000183
     3  C   -0.001085  -0.003667   0.002331  -0.001319  -0.001513   0.000076
     4  C    0.003101   0.002469   0.000722   0.000299  -0.000600  -0.000100
     5  N   -0.004124  -0.001428  -0.026978   0.007651   0.005512   0.001356
     6  H    0.000064   0.000097   0.000024  -0.000002  -0.000004  -0.000000
     7  H    0.002567  -0.000001  -0.000025  -0.000005  -0.000000  -0.000000
     8  H   -0.000001  -0.012198   0.000691  -0.000058  -0.000198  -0.000000
     9  C   -0.000025   0.000691   0.193705  -0.034733  -0.044986  -0.003001
    10  O   -0.000005  -0.000058  -0.034733   0.030517   0.005846   0.001573
    11  O   -0.000000  -0.000198  -0.044986   0.005846   0.079788   0.000073
    12  H   -0.000000  -0.000000  -0.003001   0.001573   0.000073   0.000880
 Mulliken charges and spin densities:
               1          2
     1  N   -0.080568   0.201044
     2  N   -0.316150   0.198192
     3  C   -0.144879   0.241208
     4  C   -0.160165  -0.115718
     5  N   -0.227930   0.349094
     6  H    0.188336  -0.009712
     7  H    0.175030   0.003317
     8  H    0.352543  -0.012862
     9  C    0.594839   0.104672
    10  O   -0.405132   0.003723
    11  O   -0.393292   0.037868
    12  H    0.417370  -0.000825
 Sum of Mulliken charges =  -0.00000   1.00000
 Mulliken charges and spin densities with hydrogens summed into heavy atoms:
               1          2
     1  N   -0.080568   0.201044
     2  N    0.036393   0.185329
     3  C    0.043457   0.231496
     4  C    0.014865  -0.112400
     5  N   -0.227930   0.349094
     9  C    0.594839   0.104672
    10  O    0.012237   0.002897
    11  O   -0.393292   0.037868
 Electronic spatial extent (au):  <R**2>=            992.1624
 Charge=             -0.0000 electrons
 Dipole moment (field-independent basis, Debye):
    X=              1.9870    Y=              0.6368    Z=             -0.0199  Tot=              2.0866
 Quadrupole moment (field-independent basis, Debye-Ang):
   XX=            -46.5317   YY=            -41.4457   ZZ=            -48.7324
   XY=              6.5211   XZ=             -0.4752   YZ=              0.2149
 Traceless Quadrupole moment (field-independent basis, Debye-Ang):
   XX=             -0.9618   YY=              4.1243   ZZ=             -3.1625
   XY=              6.5211   XZ=             -0.4752   YZ=              0.2149
 Octapole moment (field-independent basis, Debye-Ang**2):
  XXX=             26.0838  YYY=              6.1911  ZZZ=              0.0883  XYY=              0.8178
  XXY=             -7.4950  XXZ=             -0.3532  XZZ=            -11.2998  YZZ=              0.4483
  YYZ=             -0.1551  XYZ=              0.0621
 Hexadecapole moment (field-independent basis, Debye-Ang**3):
 XXXX=           -927.3570 YYYY=           -249.3754 ZZZZ=            -52.1861 XXXY=             11.0945
 XXXZ=             -1.9849 YYYX=             34.3775 YYYZ=              1.0760 ZZZX=              1.1186
 ZZZY=              0.1549 XXYY=           -188.6990 XXZZ=           -177.3728 YYZZ=            -59.9224
 XXYZ=              0.1571 YYXZ=             -0.3076 ZZXY=              0.0989
 N-N= 3.524914597130D+02 E-N=-1.711692587973D+03  KE= 4.270559324490D+02
                          Isotropic Fermi Contact Couplings
        Atom                 a.u.       MegaHertz       Gauss      10(-4) cm-1
     1  N(14)              0.11818      38.18335      13.62477      12.73659
     2  N(14)              0.05880      18.99781       6.77889       6.33699
     3  C(13)              0.02906      32.66644      11.65620      10.89635
     4  C(13)             -0.02491     -28.00128      -9.99155      -9.34022
     5  N(14)              0.09420      30.43582      10.86026      10.15230
     6  H(1)              -0.00323     -14.42812      -5.14831      -4.81270
     7  H(1)               0.00075       3.36516       1.20077       1.12250
     8  H(1)              -0.00578     -25.84745      -9.22301      -8.62178
     9  C(13)              0.06350      71.38364      25.47146      23.81102
    10  O(17)              0.00757      -4.58906      -1.63749      -1.53075
    11  O(17)              0.01594      -9.66544      -3.44887      -3.22404
    12  H(1)               0.00005       0.23791       0.08489       0.07936
 --------------------------------------------------------
       Center         ----  Spin Dipole Couplings  ----
                      3XX-RR        3YY-RR        3ZZ-RR
 --------------------------------------------------------
     1   Atom       -0.271325     -0.295719      0.567045
     2   Atom       -0.325218     -0.306780      0.631997
     3   Atom       -0.092920     -0.105781      0.198701
     4   Atom        0.050633      0.039177     -0.089810
     5   Atom       -0.378513     -0.376680      0.755193
     6   Atom        0.006510     -0.003324     -0.003186
     7   Atom        0.004560      0.001613     -0.006173
     8   Atom       -0.020888      0.029498     -0.008611
     9   Atom        0.031321     -0.056524      0.025203
    10   Atom       -0.011630     -0.021881      0.033511
    11   Atom       -0.049895     -0.097912      0.147806
    12   Atom        0.003119      0.003765     -0.006884
 --------------------------------------------------------
                        XY            XZ            YZ
 --------------------------------------------------------
     1   Atom       -0.003287     -0.261692      0.020755
     2   Atom        0.002024     -0.018446     -0.058622
     3   Atom        0.002858     -0.001752      0.002578
     4   Atom        0.005618     -0.009479      0.000189
     5   Atom        0.002425     -0.021541      0.025916
     6   Atom        0.018359     -0.001182     -0.000173
     7   Atom        0.000816     -0.000935     -0.000088
     8   Atom       -0.025794      0.000602     -0.002864
     9   Atom       -0.012406     -0.091679      0.014498
    10   Atom        0.018026     -0.064110     -0.053553
    11   Atom       -0.009566     -0.169884     -0.005492
    12   Atom        0.003705      0.000613     -0.001905
 --------------------------------------------------------


 ---------------------------------------------------------------------------------
              Anisotropic Spin Dipole Couplings in Principal Axis System
 ---------------------------------------------------------------------------------

       Atom             a.u.   MegaHertz   Gauss  10(-4) cm-1        Axes

              Baa    -0.3464   -13.361    -4.768    -4.457  0.9598 -0.0508  0.2761
     1 N(14)  Bbb    -0.2961   -11.418    -4.074    -3.809  0.0549  0.9985 -0.0074
              Bcc     0.6425    24.779     8.842     8.265 -0.2753  0.0222  0.9611
 
              Baa    -0.3256   -12.559    -4.481    -4.189  0.9982 -0.0585  0.0156
     2 N(14)  Bbb    -0.3104   -11.971    -4.271    -3.993  0.0574  0.9964  0.0631
              Bcc     0.6360    24.529     8.753     8.182 -0.0193 -0.0621  0.9979
 
              Baa    -0.1064   -14.280    -5.095    -4.763 -0.2083  0.9780 -0.0095
     3 C(13)  Bbb    -0.0923   -12.388    -4.420    -4.132  0.9780  0.2084  0.0040
              Bcc     0.1987    26.668     9.516     8.896 -0.0059  0.0084  0.9999
 
              Baa    -0.0904   -12.137    -4.331    -4.049  0.0672 -0.0044  0.9977
     4 C(13)  Bbb     0.0370     4.964     1.771     1.656 -0.3636  0.9311  0.0286
              Bcc     0.0535     7.174     2.560     2.393  0.9291  0.3647 -0.0610
 
              Baa    -0.3811   -14.699    -5.245    -4.903  0.7972 -0.6030  0.0289
     5 N(14)  Bbb    -0.3751   -14.465    -5.162    -4.825  0.6034  0.7974 -0.0068
              Bcc     0.7562    29.165    10.407     9.728 -0.0189  0.0228  0.9996
 
              Baa    -0.0174    -9.303    -3.320    -3.103 -0.6092  0.7920 -0.0409
     6 H(1)   Bbb    -0.0032    -1.711    -0.611    -0.571  0.0098  0.0591  0.9982
              Bcc     0.0206    11.015     3.930     3.674  0.7930  0.6077 -0.0437
 
              Baa    -0.0063    -3.336    -1.191    -1.113  0.0860  0.0022  0.9963
     7 H(1)   Bbb     0.0014     0.749     0.267     0.250 -0.2451  0.9693  0.0190
              Bcc     0.0048     2.587     0.923     0.863  0.9657  0.2458 -0.0838
 
              Baa    -0.0318   -16.948    -6.047    -5.653  0.9210  0.3889  0.0242
     8 H(1)   Bbb    -0.0088    -4.677    -1.669    -1.560 -0.0449  0.0444  0.9980
              Bcc     0.0405    21.624     7.716     7.213 -0.3870  0.9202 -0.0584
 
              Baa    -0.0640    -8.595    -3.067    -2.867  0.6385 -0.3071  0.7057
     9 C(13)  Bbb    -0.0580    -7.778    -2.776    -2.595  0.2872  0.9458  0.1517
              Bcc     0.1220    16.373     5.842     5.461  0.7141 -0.1058 -0.6920
 
              Baa    -0.0674     4.875     1.740     1.626  0.5622  0.5272  0.6371
    10 O(17)  Bbb    -0.0354     2.558     0.913     0.853 -0.6624  0.7484 -0.0347
              Bcc     0.1027    -7.433    -2.652    -2.480 -0.4951 -0.4025  0.7700
 
              Baa    -0.1499    10.849     3.871     3.619  0.8480  0.2074  0.4877
    11 O(17)  Bbb    -0.0956     6.916     2.468     2.307 -0.1798  0.9783 -0.1034
              Bcc     0.2455   -17.765    -6.339    -5.926 -0.4985  0.0000  0.8669
 
              Baa    -0.0074    -3.936    -1.405    -1.313 -0.1304  0.2090  0.9692
    12 H(1)   Bbb     0.0001     0.077     0.028     0.026  0.7384 -0.6318  0.2356
              Bcc     0.0072     3.859     1.377     1.287  0.6616  0.7464 -0.0720
 

 ---------------------------------------------------------------------------------

 Calling FoFJK, ICntrl=      2127 FMM=F ISym2X=0 I1Cent= 0 IOpClX= 1 NMat=1 NMatS=1 NMatT=0.
 ***** Axes restored to original set *****
 -------------------------------------------------------------------
 Center     Atomic                   Forces (Hartrees/Bohr)
 Number     Number              X              Y              Z
 -------------------------------------------------------------------
      1        7          -0.081797002   -0.004465079    0.023330164
      2        7          -0.011761673   -0.000203714   -0.003322889
      3        6           0.007620364   -0.001271290   -0.001648005
      4        6           0.001739461    0.004367079   -0.002010693
      5        7          -0.014914958    0.008281918   -0.002321004
      6        1           0.000201251   -0.000112595   -0.001560047
      7        1           0.000429036   -0.000052818   -0.000535101
      8        1           0.004333594   -0.000750703    0.001150822
      9        6           0.020443182    0.024724850   -0.034777134
     10        8           0.030315499    0.014659636    0.010194081
     11        8           0.040647223   -0.043541997    0.012082917
     12        1           0.002744023   -0.001635286   -0.000583111
 -------------------------------------------------------------------
 Cartesian Forces:  Max     0.081797002 RMS     0.020408464

 GradGradGradGradGradGradGradGradGradGradGradGradGradGradGradGradGradGrad
 Berny optimization.
 FormGI is forming the generalized inverse of G from B-inverse, IUseBI=4.
 Internal  Forces:  Max     0.093973718 RMS     0.017460808
 Search for a local minimum.
 Step number   1 out of a maximum of   61
 All quantities printed in internal units (Hartrees-Bohrs-Radians)
 Mixed Optimization -- RFO/linear search
 Second derivative matrix not updated -- first step.
 ITU=  0
     Eigenvalues ---    0.00230   0.01061   0.01164   0.01797   0.01909
     Eigenvalues ---    0.02228   0.02237   0.02387   0.02565   0.11584
     Eigenvalues ---    0.15999   0.16000   0.16000   0.16000   0.22187
     Eigenvalues ---    0.23993   0.24777   0.24993   0.25000   0.36118
     Eigenvalues ---    0.36411   0.43852   0.45959   0.46074   0.50310
     Eigenvalues ---    0.51318   0.52719   0.53321   0.58582   0.99729
 RFO step:  Lambda=-6.53813786D-02 EMin= 2.30000000D-03
 Linear search not attempted -- first point.
 Maximum step size (   0.300) exceeded in Quadratic search.
    -- Step size scaled by   0.552
 Iteration  1 RMS(Cart)=  0.07011456 RMS(Int)=  0.01245359
 Iteration  2 RMS(Cart)=  0.01990361 RMS(Int)=  0.00051860
 Iteration  3 RMS(Cart)=  0.00002220 RMS(Int)=  0.00051843
 Iteration  4 RMS(Cart)=  0.00000001 RMS(Int)=  0.00051843
 Variable       Old X    -DE/DX   Delta X   Delta X   Delta X     New X
                                 (Linear)    (Quad)   (Total)
    R1        2.59148  -0.00066   0.00000  -0.00082  -0.00075   2.59073
    R2        2.57883  -0.01377   0.00000  -0.01352  -0.01346   2.56537
    R3        3.54952  -0.09397   0.00000  -0.28625  -0.28625   3.26328
    R4        2.59659   0.00492   0.00000   0.00524   0.00523   2.60182
    R5        1.90748  -0.00245   0.00000  -0.00257  -0.00257   1.90490
    R6        2.59933  -0.00241   0.00000  -0.00192  -0.00199   2.59733
    R7        2.03443   0.00016   0.00000   0.00020   0.00020   2.03463
    R8        2.55562   0.00491   0.00000   0.00429   0.00425   2.55987
    R9        2.03897   0.00038   0.00000   0.00049   0.00049   2.03946
   R10        2.52081  -0.02720   0.00000  -0.02306  -0.02306   2.49775
   R11        2.28747  -0.05737   0.00000  -0.02980  -0.02980   2.25767
   R12        1.83917   0.00305   0.00000   0.00284   0.00284   1.84201
    A1        1.94979   0.00353   0.00000   0.00395   0.00374   1.95354
    A2        2.11256   0.00257   0.00000   0.00349   0.00300   2.11556
    A3        2.21332  -0.00690   0.00000  -0.01319  -0.01360   2.19972
    A4        1.85618  -0.00064   0.00000  -0.00023  -0.00012   1.85606
    A5        2.07690   0.00370   0.00000   0.00842   0.00834   2.08524
    A6        2.35007  -0.00305   0.00000  -0.00811  -0.00819   2.34188
    A7        1.84895  -0.00368   0.00000  -0.00501  -0.00502   1.84393
    A8        2.12898   0.00211   0.00000   0.00317   0.00317   2.13214
    A9        2.30526   0.00157   0.00000   0.00183   0.00183   2.30709
   A10        1.95795   0.00062   0.00000   0.00213   0.00210   1.96006
   A11        2.23061  -0.00058   0.00000  -0.00174  -0.00173   2.22888
   A12        2.09462  -0.00004   0.00000  -0.00040  -0.00040   2.09422
   A13        1.81144   0.00018   0.00000  -0.00086  -0.00072   1.81072
   A14        1.96584  -0.02689   0.00000  -0.04637  -0.04771   1.91813
   A15        2.12455  -0.00618   0.00000  -0.01016  -0.01144   2.11310
   A16        2.19231   0.03344   0.00000   0.05930   0.05788   2.25020
   A17        1.91317  -0.00167   0.00000  -0.00410  -0.00410   1.90907
    D1       -0.02934   0.00012   0.00000  -0.00006  -0.00010  -0.02944
    D2        3.11986  -0.00122   0.00000  -0.00833  -0.00846   3.11140
    D3       -3.04807   0.00716   0.00000   0.04769   0.04796  -3.00011
    D4        0.10113   0.00582   0.00000   0.03943   0.03961   0.14074
    D5        0.02684   0.00005   0.00000   0.00149   0.00150   0.02834
    D6        3.03690  -0.00660   0.00000  -0.04809  -0.04784   2.98905
    D7        3.05961   0.00265   0.00000   0.01767   0.01692   3.07653
    D8       -0.05025  -0.01019   0.00000  -0.07397  -0.07298  -0.12323
    D9        0.06071   0.00990   0.00000   0.07159   0.07061   0.13132
   D10       -3.04915  -0.00294   0.00000  -0.02005  -0.01930  -3.06845
   D11        0.01890  -0.00035   0.00000  -0.00153  -0.00148   0.01742
   D12       -3.12375  -0.00122   0.00000  -0.00709  -0.00708  -3.13083
   D13       -3.13205   0.00135   0.00000   0.00874   0.00878  -3.12327
   D14        0.00849   0.00047   0.00000   0.00318   0.00318   0.01167
   D15       -0.00286   0.00031   0.00000   0.00252   0.00247  -0.00039
   D16        3.13722  -0.00062   0.00000  -0.00409  -0.00411   3.13311
   D17        3.13995   0.00131   0.00000   0.00887   0.00886  -3.13438
   D18       -0.00316   0.00038   0.00000   0.00226   0.00228  -0.00088
   D19       -0.01433  -0.00021   0.00000  -0.00245  -0.00243  -0.01677
   D20        3.12864   0.00063   0.00000   0.00358   0.00358   3.13222
   D21        0.00045  -0.00680   0.00000  -0.05043  -0.05193  -0.05148
   D22        3.10885   0.00571   0.00000   0.04382   0.04532  -3.12902
         Item               Value     Threshold  Converged?
 Maximum Force            0.093974     0.000450     NO 
 RMS     Force            0.017461     0.000300     NO 
 Maximum Displacement     0.331273     0.001800     NO 
 RMS     Displacement     0.088667     0.001200     NO 
 Predicted change in Energy=-2.978237D-02
 GradGradGradGradGradGradGradGradGradGradGradGradGradGradGradGradGradGrad

                          Input orientation:                          
 ---------------------------------------------------------------------
 Center     Atomic      Atomic             Coordinates (Angstroms)
 Number     Number       Type             X           Y           Z
 ---------------------------------------------------------------------
      1          7           0       -0.076342    0.002246    0.114479
      2          7           0        0.751141    1.093010    0.043604
      3          6           0        2.034441    0.601087   -0.038811
      4          6           0        1.907781   -0.767510   -0.035933
      5          7           0        0.614958   -1.163978    0.044277
      6          1           0        2.893480    1.247596   -0.096440
      7          1           0        2.695004   -1.503373   -0.095355
      8          1           0        0.353413    2.019136    0.058742
      9          6           0       -1.792222    0.173204    0.022032
     10          8           0       -2.364305   -1.018279    0.032809
     11          8           0       -2.305146    1.252201    0.019755
     12          1           0       -1.675402   -1.707801    0.043209
 ---------------------------------------------------------------------
                    Distance matrix (angstroms):
                    1          2          3          4          5
     1  N    0.000000
     2  N    1.370955   0.000000
     3  C    2.199434   1.376822   0.000000
     4  C    2.133516   2.192185   1.374449   0.000000
     5  N    1.357536   2.261093   2.266559   1.354625   0.000000
     6  H    3.227262   2.152469   1.076681   2.244085   3.320715
     7  H    3.160898   3.246400   2.206421   1.079233   2.112173
     8  H    2.062920   1.008031   2.201416   3.192244   3.193874
     9  C    1.726852   2.704664   3.850991   3.818157   2.753737
    10  O    2.506575   3.763465   4.687904   4.279992   2.982846
    11  O    2.557133   3.060523   4.388552   4.672375   3.790189
    12  H    2.342293   3.705760   4.370426   3.705348   2.354038
                    6          7          8          9         10
     6  H    0.000000
     7  H    2.758119   0.000000
     8  H    2.659191   4.232595   0.000000
     9  C    4.808758   4.791648   2.830647   0.000000
    10  O    5.726709   5.084127   4.075851   1.321752   0.000000
    11  O    5.199926   5.710336   2.767245   1.194709   2.271289
    12  H    5.443212   4.377378   4.243394   1.884749   0.974750
                   11         12
    11  O    0.000000
    12  H    3.026341   0.000000
 Stoichiometry    C3H4N3O2(2)
 Framework group  C1[X(C3H4N3O2)]
 Deg. of freedom    30
 Full point group                 C1      NOp   1
 Largest Abelian subgroup         C1      NOp   1
 Largest concise Abelian subgroup C1      NOp   1
                         Standard orientation:                         
 ---------------------------------------------------------------------
 Center     Atomic      Atomic             Coordinates (Angstroms)
 Number     Number       Type             X           Y           Z
 ---------------------------------------------------------------------
      1          7           0        0.112293   -0.020262    0.091524
      2          7           0        0.913333    1.090697    0.031347
      3          6           0        2.209278    0.630730   -0.036441
      4          6           0        2.116463   -0.740582   -0.036280
      5          7           0        0.832985   -1.168966    0.028392
      6          1           0        3.052689    1.298334   -0.083401
      7          1           0        2.922278   -1.456698   -0.087119
      8          1           0        0.492683    2.006695    0.042648
      9          6           0       -1.606089    0.108358   -0.020904
     10          8           0       -2.148631   -1.096909   -0.017915
     11          8           0       -2.145466    1.174354   -0.028232
     12          1           0       -1.443062   -1.769211   -0.000049
 ---------------------------------------------------------------------
 Rotational constants (GHZ):           5.0630206           1.5190065           1.1695992
 Standard basis: 6-31+G(d,p) (6D, 7F)
 There are   172 symmetry adapted cartesian basis functions of A   symmetry.
 There are   172 symmetry adapted basis functions of A   symmetry.
   172 basis functions,   284 primitive gaussians,   172 cartesian basis functions
    30 alpha electrons       29 beta electrons
       nuclear repulsion energy       360.1680097739 Hartrees.
 NAtoms=   12 NActive=   12 NUniq=   12 SFac= 1.00D+00 NAtFMM=   60 NAOKFM=F Big=F
 Integral buffers will be    131072 words long.
 Raffenetti 2 integral format.
 Two-electron integral symmetry is turned on.
 One-electron integrals computed using PRISM.
 NBasis=   172 RedAO= T EigKep=  3.55D-05  NBF=   172
 NBsUse=   172 1.00D-06 EigRej= -1.00D+00 NBFU=   172
 Initial guess from the checkpoint file:  "/scratch/gongke2021/1-H-Tz-RC/Gau-17508.chk"
 B after Tr=     0.000000    0.000000   -0.000000
         Rot=    0.999999    0.000300    0.000431   -0.000928 Ang=   0.12 deg.
 Initial guess <Sx>= 0.0000 <Sy>= 0.0000 <Sz>= 0.5000 <S**2>= 0.7637 S= 0.5068
 ExpMin= 4.38D-02 ExpMax= 5.48D+03 ExpMxC= 8.25D+02 IAcc=2 IRadAn=         4 AccDes= 0.00D+00
 Harris functional with IExCor= 1009 and IRadAn=       4 diagonalized for initial guess.
 HarFok:  IExCor= 1009 AccDes= 0.00D+00 IRadAn=         4 IDoV= 1 UseB2=F ITyADJ=14
 ICtDFT=  3500011 ScaDFX=  1.000000  1.000000  1.000000  1.000000
 FoFCou: FMM=F IPFlag=           0 FMFlag=      100000 FMFlg1=           0
         NFxFlg=           0 DoJE=T BraDBF=F KetDBF=T FulRan=T
         wScrn=  0.000000 ICntrl=       500 IOpCl=  0 I1Cent=   200000004 NGrid=           0
         NMat0=    1 NMatS0=      1 NMatT0=    0 NMatD0=    1 NMtDS0=    0 NMtDT0=    0
 Petite list used in FoFCou.
 Keep R1 and R2 ints in memory in canonical form, NReq=245384874.
 Requested convergence on RMS density matrix=1.00D-08 within 128 cycles.
 Requested convergence on MAX density matrix=1.00D-06.
 Requested convergence on             energy=1.00D-06.
 No special actions if energy rises.
 SCF Done:  E(UM062X) =  -431.153503853     A.U. after   18 cycles
            NFock= 18  Conv=0.30D-08     -V/T= 2.0092
 <Sx>= 0.0000 <Sy>= 0.0000 <Sz>= 0.5000 <S**2>= 0.7632 S= 0.5066
 <L.S>=  0.00000000000    
 Annihilation of the first spin contaminant:
 S**2 before annihilation     0.7632,   after     0.7501
 Calling FoFJK, ICntrl=      2127 FMM=F ISym2X=0 I1Cent= 0 IOpClX= 1 NMat=1 NMatS=1 NMatT=0.
 ***** Axes restored to original set *****
 -------------------------------------------------------------------
 Center     Atomic                   Forces (Hartrees/Bohr)
 Number     Number              X              Y              Z
 -------------------------------------------------------------------
      1        7          -0.091980423    0.007419585    0.007014532
      2        7          -0.007074369    0.002103111   -0.002175541
      3        6           0.003591448   -0.002222511   -0.001128523
      4        6           0.002161410    0.001396945   -0.001277673
      5        7          -0.008488224    0.001534205   -0.001971460
      6        1          -0.000083175   -0.000183323   -0.000272437
      7        1           0.000109423    0.000020890    0.000098613
      8        1           0.002389064    0.000058061    0.000531282
      9        6           0.064013084   -0.000998773   -0.003703753
     10        8           0.015021713    0.008405328    0.001956498
     11        8           0.017931994   -0.016225199    0.001469594
     12        1           0.002408056   -0.001308321   -0.000541133
 -------------------------------------------------------------------
 Cartesian Forces:  Max     0.091980423 RMS     0.019538380

 GradGradGradGradGradGradGradGradGradGradGradGradGradGradGradGradGradGrad
 Berny optimization.
 Using GEDIIS/GDIIS optimizer.
 FormGI is forming the generalized inverse of G from B-inverse, IUseBI=4.
 Internal  Forces:  Max     0.099701303 RMS     0.014959789
 Search for a local minimum.
 Step number   2 out of a maximum of   61
 All quantities printed in internal units (Hartrees-Bohrs-Radians)
 Mixed Optimization -- RFO/linear search
 Update second derivatives using D2CorX and points    1    2
 DE= -3.54D-02 DEPred=-2.98D-02 R= 1.19D+00
 TightC=F SS=  1.41D+00  RLast= 3.35D-01 DXNew= 5.0454D-01 1.0039D+00
 Trust test= 1.19D+00 RLast= 3.35D-01 DXMaxT set to 5.05D-01
 ITU=  1  0
 Use linear search instead of GDIIS.
     Eigenvalues ---    0.00230   0.00468   0.01222   0.01755   0.01899
     Eigenvalues ---    0.02224   0.02230   0.02385   0.02566   0.04124
     Eigenvalues ---    0.15999   0.15999   0.16000   0.16044   0.22237
     Eigenvalues ---    0.23938   0.24489   0.24985   0.31843   0.36122
     Eigenvalues ---    0.36415   0.44035   0.46033   0.46206   0.50367
     Eigenvalues ---    0.52023   0.52713   0.53582   0.61967   1.36274
 RFO step:  Lambda=-1.02770236D-01 EMin= 2.29990209D-03
 Skip linear search -- no minimum in search direction.
 Maximum step size (   0.505) exceeded in Quadratic search.
    -- Step size scaled by   0.519
 Iteration  1 RMS(Cart)=  0.08246193 RMS(Int)=  0.04056203
 Iteration  2 RMS(Cart)=  0.04486718 RMS(Int)=  0.01254548
 Iteration  3 RMS(Cart)=  0.02007718 RMS(Int)=  0.00005890
 Iteration  4 RMS(Cart)=  0.00002628 RMS(Int)=  0.00005603
 Iteration  5 RMS(Cart)=  0.00000000 RMS(Int)=  0.00005603
 Variable       Old X    -DE/DX   Delta X   Delta X   Delta X     New X
                                 (Linear)    (Quad)   (Total)
    R1        2.59073  -0.00015   0.00000  -0.00094  -0.00092   2.58981
    R2        2.56537  -0.00494   0.00000  -0.01709  -0.01708   2.54829
    R3        3.26328  -0.09970   0.00000  -0.48936  -0.48936   2.77392
    R4        2.60182   0.00398   0.00000   0.00980   0.00980   2.61162
    R5        1.90490  -0.00088   0.00000  -0.00318  -0.00318   1.90172
    R6        2.59733  -0.00072   0.00000  -0.00216  -0.00218   2.59515
    R7        2.03463  -0.00016   0.00000  -0.00017  -0.00017   2.03446
    R8        2.55987   0.00242   0.00000   0.00636   0.00635   2.56622
    R9        2.03946   0.00006   0.00000   0.00043   0.00043   2.03989
   R10        2.49775  -0.01393   0.00000  -0.03503  -0.03503   2.46272
   R11        2.25767  -0.02235   0.00000  -0.04242  -0.04242   2.21525
   R12        1.84201   0.00262   0.00000   0.00573   0.00573   1.84774
    A1        1.95354   0.00299   0.00000   0.00977   0.00976   1.96330
    A2        2.11556   0.00447   0.00000   0.01435   0.01429   2.12985
    A3        2.19972  -0.00802   0.00000  -0.02627  -0.02628   2.17345
    A4        1.85606  -0.00220   0.00000  -0.00602  -0.00600   1.85006
    A5        2.08524   0.00317   0.00000   0.01340   0.01339   2.09863
    A6        2.34188  -0.00097   0.00000  -0.00738  -0.00739   2.33450
    A7        1.84393  -0.00030   0.00000  -0.00244  -0.00244   1.84149
    A8        2.13214   0.00026   0.00000   0.00187   0.00187   2.13402
    A9        2.30709   0.00003   0.00000   0.00056   0.00056   2.30765
   A10        1.96006  -0.00020   0.00000   0.00093   0.00091   1.96097
   A11        2.22888   0.00001   0.00000  -0.00103  -0.00102   2.22786
   A12        2.09422   0.00019   0.00000   0.00010   0.00011   2.09433
   A13        1.81072  -0.00031   0.00000  -0.00230  -0.00229   1.80843
   A14        1.91813  -0.01516   0.00000  -0.06366  -0.06368   1.85446
   A15        2.11310  -0.00297   0.00000  -0.01338  -0.01340   2.09971
   A16        2.25020   0.01800   0.00000   0.07761   0.07761   2.32781
   A17        1.90907  -0.00144   0.00000  -0.00653  -0.00653   1.90254
    D1       -0.02944  -0.00042   0.00000  -0.00198  -0.00200  -0.03144
    D2        3.11140  -0.00085   0.00000  -0.00316  -0.00322   3.10819
    D3       -3.00011   0.00375   0.00000   0.01351   0.01364  -2.98646
    D4        0.14074   0.00332   0.00000   0.01232   0.01243   0.15316
    D5        0.02834   0.00043   0.00000   0.00201   0.00201   0.03035
    D6        2.98905  -0.00242   0.00000  -0.00931  -0.00916   2.97989
    D7        3.07653  -0.00109   0.00000  -0.01348  -0.01334   3.06319
    D8       -0.12323  -0.00260   0.00000  -0.00127  -0.00132  -0.12455
    D9        0.13132   0.00231   0.00000  -0.00022  -0.00016   0.13116
   D10       -3.06845   0.00081   0.00000   0.01200   0.01186  -3.05659
   D11        0.01742   0.00019   0.00000   0.00092   0.00093   0.01835
   D12       -3.13083  -0.00015   0.00000   0.00011   0.00010  -3.13073
   D13       -3.12327   0.00071   0.00000   0.00234   0.00237  -3.12089
   D14        0.01167   0.00037   0.00000   0.00153   0.00154   0.01321
   D15       -0.00039   0.00000   0.00000   0.00010   0.00007  -0.00032
   D16        3.13311  -0.00015   0.00000   0.00003   0.00002   3.13313
   D17       -3.13438   0.00039   0.00000   0.00101   0.00101  -3.13337
   D18       -0.00088   0.00023   0.00000   0.00095   0.00096   0.00008
   D19       -0.01677  -0.00024   0.00000  -0.00119  -0.00117  -0.01794
   D20        3.13222  -0.00010   0.00000  -0.00112  -0.00112   3.13110
   D21       -0.05148  -0.00184   0.00000   0.00157   0.00173  -0.04975
   D22       -3.12902   0.00086   0.00000  -0.00734  -0.00750  -3.13652
         Item               Value     Threshold  Converged?
 Maximum Force            0.099701     0.000450     NO 
 RMS     Force            0.014960     0.000300     NO 
 Maximum Displacement     0.527589     0.001800     NO 
 RMS     Displacement     0.143120     0.001200     NO 
 Predicted change in Energy=-5.260265D-02
 GradGradGradGradGradGradGradGradGradGradGradGradGradGradGradGradGradGrad

                          Input orientation:                          
 ---------------------------------------------------------------------
 Center     Atomic      Atomic             Coordinates (Angstroms)
 Number     Number       Type             X           Y           Z
 ---------------------------------------------------------------------
      1          7           0       -0.182448    0.030825    0.116739
      2          7           0        0.665066    1.105573    0.047317
      3          6           0        1.940516    0.580123   -0.036830
      4          6           0        1.776693   -0.783367   -0.036786
      5          7           0        0.470639   -1.146663    0.043008
      6          1           0        2.816389    1.203514   -0.094040
      7          1           0        2.544464   -1.539686   -0.097998
      8          1           0        0.297879    2.042419    0.062376
      9          6           0       -1.639695    0.181235    0.024398
     10          8           0       -2.131855   -1.025471    0.027758
     11          8           0       -2.124631    1.248423    0.012521
     12          1           0       -1.396213   -1.669385    0.043904
 ---------------------------------------------------------------------
                    Distance matrix (angstroms):
                    1          2          3          4          5
     1  N    0.000000
     2  N    1.370468   0.000000
     3  C    2.198246   1.382009   0.000000
     4  C    2.127137   2.193372   1.373296   0.000000
     5  N    1.348495   2.260617   2.269076   1.357987   0.000000
     6  H    3.226864   2.158185   1.076589   2.243199   3.323351
     7  H    3.154151   3.248176   2.205014   1.079462   2.115444
     8  H    2.068859   1.006347   2.201455   3.190891   3.193817
     9  C    1.467896   2.483315   3.602884   3.550480   2.493426
    10  O    2.218979   3.516319   4.377934   3.916571   2.605359
    11  O    2.294664   2.793569   4.120010   4.398970   3.531684
    12  H    2.090274   3.456772   4.024993   3.295281   1.938653
                    6          7          8          9         10
     6  H    0.000000
     7  H    2.756647   0.000000
     8  H    2.659157   4.231352   0.000000
     9  C    4.573376   4.525897   2.686939   0.000000
    10  O    5.428474   4.706187   3.913663   1.303216   0.000000
    11  O    4.942373   5.439322   2.549799   1.172260   2.273956
    12  H    5.100843   3.945364   4.080169   1.866671   0.977781
                   11         12
    11  O    0.000000
    12  H    3.007521   0.000000
 Stoichiometry    C3H4N3O2(2)
 Framework group  C1[X(C3H4N3O2)]
 Deg. of freedom    30
 Full point group                 C1      NOp   1
 Largest Abelian subgroup         C1      NOp   1
 Largest concise Abelian subgroup C1      NOp   1
                         Standard orientation:                         
 ---------------------------------------------------------------------
 Center     Atomic      Atomic             Coordinates (Angstroms)
 Number     Number       Type             X           Y           Z
 ---------------------------------------------------------------------
      1          7           0       -0.003172    0.003376    0.093137
      2          7           0        0.809658    1.105165    0.033551
      3          6           0        2.102493    0.621553   -0.034605
      4          6           0        1.983204   -0.746553   -0.035821
      5          7           0        0.688799   -1.152212    0.028100
      6          1           0        2.958224    1.273151   -0.081381
      7          1           0        2.775911   -1.477455   -0.087162
      8          1           0        0.411978    2.029548    0.043572
      9          6           0       -1.463299    0.106195   -0.017210
     10          8           0       -1.915877   -1.115910   -0.019237
     11          8           0       -1.982573    1.157009   -0.035644
     12          1           0       -1.159896   -1.735503    0.006317
 ---------------------------------------------------------------------
 Rotational constants (GHZ):           5.0694058           1.7953090           1.3273409
 Standard basis: 6-31+G(d,p) (6D, 7F)
 There are   172 symmetry adapted cartesian basis functions of A   symmetry.
 There are   172 symmetry adapted basis functions of A   symmetry.
   172 basis functions,   284 primitive gaussians,   172 cartesian basis functions
    30 alpha electrons       29 beta electrons
       nuclear repulsion energy       374.7540175117 Hartrees.
 NAtoms=   12 NActive=   12 NUniq=   12 SFac= 1.00D+00 NAtFMM=   60 NAOKFM=F Big=F
 Integral buffers will be    131072 words long.
 Raffenetti 2 integral format.
 Two-electron integral symmetry is turned on.
 One-electron integrals computed using PRISM.
 NBasis=   172 RedAO= T EigKep=  2.92D-05  NBF=   172
 NBsUse=   172 1.00D-06 EigRej= -1.00D+00 NBFU=   172
 Initial guess from the checkpoint file:  "/scratch/gongke2021/1-H-Tz-RC/Gau-17508.chk"
 B after Tr=     0.000000   -0.000000    0.000000
         Rot=    0.999997    0.000680    0.000922   -0.002024 Ang=   0.27 deg.
 Initial guess <Sx>= 0.0000 <Sy>= 0.0000 <Sz>= 0.5000 <S**2>= 0.7631 S= 0.5065
 ExpMin= 4.38D-02 ExpMax= 5.48D+03 ExpMxC= 8.25D+02 IAcc=2 IRadAn=         4 AccDes= 0.00D+00
 Harris functional with IExCor= 1009 and IRadAn=       4 diagonalized for initial guess.
 HarFok:  IExCor= 1009 AccDes= 0.00D+00 IRadAn=         4 IDoV= 1 UseB2=F ITyADJ=14
 ICtDFT=  3500011 ScaDFX=  1.000000  1.000000  1.000000  1.000000
 FoFCou: FMM=F IPFlag=           0 FMFlag=      100000 FMFlg1=           0
         NFxFlg=           0 DoJE=T BraDBF=F KetDBF=T FulRan=T
         wScrn=  0.000000 ICntrl=       500 IOpCl=  0 I1Cent=   200000004 NGrid=           0
         NMat0=    1 NMatS0=      1 NMatT0=    0 NMatD0=    1 NMtDS0=    0 NMtDT0=    0
 Petite list used in FoFCou.
 Keep R1 and R2 ints in memory in canonical form, NReq=245384874.
 Requested convergence on RMS density matrix=1.00D-08 within 128 cycles.
 Requested convergence on MAX density matrix=1.00D-06.
 Requested convergence on             energy=1.00D-06.
 No special actions if energy rises.
 SCF Done:  E(UM062X) =  -431.189852055     A.U. after   17 cycles
            NFock= 17  Conv=0.66D-08     -V/T= 2.0079
 <Sx>= 0.0000 <Sy>= 0.0000 <Sz>= 0.5000 <S**2>= 0.7635 S= 0.5067
 <L.S>=  0.00000000000    
 Annihilation of the first spin contaminant:
 S**2 before annihilation     0.7635,   after     0.7501
 Calling FoFJK, ICntrl=      2127 FMM=F ISym2X=0 I1Cent= 0 IOpClX= 1 NMat=1 NMatS=1 NMatT=0.
 ***** Axes restored to original set *****
 -------------------------------------------------------------------
 Center     Atomic                   Forces (Hartrees/Bohr)
 Number     Number              X              Y              Z
 -------------------------------------------------------------------
      1        7          -0.038558792    0.023071891    0.000601148
      2        7           0.005120752   -0.003229997   -0.001022875
      3        6          -0.004029868   -0.000800994   -0.000249527
      4        6           0.002250596   -0.002980497   -0.000594266
      5        7           0.009369419   -0.002451902   -0.000996486
      6        1          -0.000099852   -0.000112269    0.000133998
      7        1          -0.000144025    0.000210922    0.000176533
      8        1          -0.001182440    0.001102305    0.000248460
      9        6           0.088284474   -0.043215585    0.006393297
     10        8          -0.028816767   -0.014512953   -0.001551489
     11        8          -0.031144721    0.044405046   -0.002411088
     12        1          -0.001048777   -0.001485966   -0.000727706
 -------------------------------------------------------------------
 Cartesian Forces:  Max     0.088284474 RMS     0.021004963

 GradGradGradGradGradGradGradGradGradGradGradGradGradGradGradGradGradGrad
 Berny optimization.
 Using GEDIIS/GDIIS optimizer.
 FormGI is forming the generalized inverse of G from B-inverse, IUseBI=4.
 Internal  Forces:  Max     0.053332622 RMS     0.010999561
 Search for a local minimum.
 Step number   3 out of a maximum of   61
 All quantities printed in internal units (Hartrees-Bohrs-Radians)
 Mixed Optimization -- RFO/linear search
 Update second derivatives using D2CorX and points    2    3
 DE= -3.63D-02 DEPred=-5.26D-02 R= 6.91D-01
 TightC=F SS=  1.41D+00  RLast= 5.05D-01 DXNew= 8.4853D-01 1.5161D+00
 Trust test= 6.91D-01 RLast= 5.05D-01 DXMaxT set to 8.49D-01
 ITU=  1  1  0
 Use linear search instead of GDIIS.
     Eigenvalues ---    0.00230   0.01218   0.01738   0.01895   0.02222
     Eigenvalues ---    0.02230   0.02385   0.02565   0.03916   0.13830
     Eigenvalues ---    0.15999   0.16000   0.16038   0.16141   0.22330
     Eigenvalues ---    0.24119   0.24464   0.26002   0.34050   0.36123
     Eigenvalues ---    0.36414   0.44041   0.46042   0.46242   0.50362
     Eigenvalues ---    0.51959   0.52689   0.53578   0.63433   1.48514
 RFO step:  Lambda=-1.21507944D-02 EMin= 2.29999088D-03
 Quartic linear search produced a step of  0.07054.
 Iteration  1 RMS(Cart)=  0.05373967 RMS(Int)=  0.00370190
 Iteration  2 RMS(Cart)=  0.00384423 RMS(Int)=  0.00095181
 Iteration  3 RMS(Cart)=  0.00001366 RMS(Int)=  0.00095169
 Iteration  4 RMS(Cart)=  0.00000002 RMS(Int)=  0.00095169
 Variable       Old X    -DE/DX   Delta X   Delta X   Delta X     New X
                                 (Linear)    (Quad)   (Total)
    R1        2.58981  -0.00027  -0.00006  -0.00038  -0.00023   2.58958
    R2        2.54829   0.00891  -0.00121   0.01029   0.00927   2.55755
    R3        2.77392  -0.02870  -0.03452  -0.15217  -0.18669   2.58723
    R4        2.61162  -0.00065   0.00069  -0.00115  -0.00049   2.61113
    R5        1.90172   0.00146  -0.00022   0.00159   0.00137   1.90308
    R6        2.59515  -0.00066  -0.00015  -0.00409  -0.00449   2.59066
    R7        2.03446  -0.00015  -0.00001   0.00001  -0.00001   2.03445
    R8        2.56622  -0.00180   0.00045  -0.00116  -0.00083   2.56539
    R9        2.03989  -0.00026   0.00003  -0.00031  -0.00028   2.03961
   R10        2.46272   0.02609  -0.00247   0.03469   0.03222   2.49494
   R11        2.21525   0.05333  -0.00299   0.03740   0.03441   2.24966
   R12        1.84774   0.00018   0.00040   0.00073   0.00113   1.84887
    A1        1.96330  -0.00520   0.00069  -0.02199  -0.02184   1.94145
    A2        2.12985   0.00180   0.00101  -0.00370  -0.00409   2.12575
    A3        2.17345   0.00328  -0.00185   0.01056   0.00708   2.18053
    A4        1.85006   0.00168  -0.00042   0.01206   0.01196   1.86202
    A5        2.09863  -0.00152   0.00094  -0.00723  -0.00651   2.09211
    A6        2.33450  -0.00016  -0.00052  -0.00486  -0.00560   2.32889
    A7        1.84149   0.00288  -0.00017   0.00298   0.00275   1.84424
    A8        2.13402  -0.00141   0.00013  -0.00093  -0.00079   2.13323
    A9        2.30765  -0.00147   0.00004  -0.00211  -0.00206   2.30559
   A10        1.96097  -0.00248   0.00006  -0.01072  -0.01077   1.95019
   A11        2.22786   0.00120  -0.00007   0.00455   0.00452   2.23237
   A12        2.09433   0.00128   0.00001   0.00610   0.00614   2.10047
   A13        1.80843   0.00311  -0.00016   0.01764   0.01787   1.82629
   A14        1.85446   0.03048  -0.00449   0.09999   0.09270   1.94715
   A15        2.09971  -0.00408  -0.00095  -0.02445  -0.02845   2.07125
   A16        2.32781  -0.02630   0.00547  -0.08214  -0.07914   2.24867
   A17        1.90254   0.00335  -0.00046   0.02036   0.01990   1.92244
    D1       -0.03144   0.00009  -0.00014   0.00093   0.00101  -0.03043
    D2        3.10819   0.00007  -0.00023  -0.01356  -0.01358   3.09461
    D3       -2.98646   0.00044   0.00096   0.08397   0.08440  -2.90206
    D4        0.15316   0.00042   0.00088   0.06948   0.06981   0.22298
    D5        0.03035   0.00000   0.00014   0.00210   0.00207   0.03242
    D6        2.97989  -0.00057  -0.00065  -0.08530  -0.08602   2.89387
    D7        3.06319  -0.00149  -0.00094   0.00814   0.00803   3.07122
    D8       -0.12455  -0.00006  -0.00009  -0.11938  -0.12084  -0.24540
    D9        0.13116  -0.00016  -0.00001   0.10519   0.10655   0.23770
   D10       -3.05659   0.00126   0.00084  -0.02234  -0.02233  -3.07892
   D11        0.01835   0.00002   0.00007  -0.00307  -0.00318   0.01517
   D12       -3.13073   0.00010   0.00001  -0.01059  -0.01067  -3.14140
   D13       -3.12089   0.00004   0.00017   0.01426   0.01424  -3.10666
   D14        0.01321   0.00013   0.00011   0.00674   0.00675   0.01997
   D15       -0.00032   0.00007   0.00000   0.00495   0.00497   0.00464
   D16        3.13313   0.00012   0.00000  -0.00546  -0.00539   3.12774
   D17       -3.13337  -0.00003   0.00007   0.01352   0.01349  -3.11988
   D18        0.00008   0.00003   0.00007   0.00312   0.00314   0.00322
   D19       -0.01794  -0.00007  -0.00008  -0.00457  -0.00458  -0.02252
   D20        3.13110  -0.00012  -0.00008   0.00494   0.00488   3.13598
   D21       -0.04975   0.00083   0.00012  -0.09079  -0.08826  -0.13801
   D22       -3.13652  -0.00209  -0.00053   0.05728   0.05434  -3.08217
         Item               Value     Threshold  Converged?
 Maximum Force            0.053333     0.000450     NO 
 RMS     Force            0.011000     0.000300     NO 
 Maximum Displacement     0.202390     0.001800     NO 
 RMS     Displacement     0.054413     0.001200     NO 
 Predicted change in Energy=-7.844342D-03
 GradGradGradGradGradGradGradGradGradGradGradGradGradGradGradGradGradGrad

                          Input orientation:                          
 ---------------------------------------------------------------------
 Center     Atomic      Atomic             Coordinates (Angstroms)
 Number     Number       Type             X           Y           Z
 ---------------------------------------------------------------------
      1          7           0       -0.197581    0.028549    0.148942
      2          7           0        0.649442    1.102335    0.063001
      3          6           0        1.928971    0.591067   -0.040150
      4          6           0        1.784775   -0.772217   -0.030854
      5          7           0        0.481459   -1.139295    0.066887
      6          1           0        2.795493    1.224679   -0.122078
      7          1           0        2.558165   -1.521333   -0.105754
      8          1           0        0.275875    2.037537    0.068779
      9          6           0       -1.550387    0.161999   -0.014010
     10          8           0       -2.161466   -1.007711    0.024224
     11          8           0       -2.024628    1.253469    0.017624
     12          1           0       -1.503314   -1.731539    0.035756
 ---------------------------------------------------------------------
                    Distance matrix (angstroms):
                    1          2          3          4          5
     1  N    0.000000
     2  N    1.370347   0.000000
     3  C    2.207806   1.381749   0.000000
     4  C    2.145527   2.193566   1.370920   0.000000
     5  N    1.353399   2.247919   2.258517   1.357546   0.000000
     6  H    3.234605   2.157488   1.076586   2.239971   3.313432
     7  H    3.171930   3.248898   2.205090   1.079313   2.118600
     8  H    2.065579   1.007069   2.199288   3.190834   3.183477
     9  C    1.369104   2.393619   3.505811   3.463574   2.414189
    10  O    2.224013   3.514968   4.392256   3.953645   2.646543
    11  O    2.203582   2.678722   4.009122   4.314777   3.465287
    12  H    2.194461   3.558925   4.144977   3.425823   2.071484
                    6          7          8          9         10
     6  H    0.000000
     7  H    2.756298   0.000000
     8  H    2.654362   4.231414   0.000000
     9  C    4.475225   4.440970   2.619108   0.000000
    10  O    5.438420   4.749275   3.900788   1.320265   0.000000
    11  O    4.822231   5.358800   2.430986   1.190467   2.265326
    12  H    5.219567   4.069375   4.168037   1.894777   0.978379
                   11         12
    11  O    0.000000
    12  H    3.030242   0.000000
 Stoichiometry    C3H4N3O2(2)
 Framework group  C1[X(C3H4N3O2)]
 Deg. of freedom    30
 Full point group                 C1      NOp   1
 Largest Abelian subgroup         C1      NOp   1
 Largest concise Abelian subgroup C1      NOp   1
                         Standard orientation:                         
 ---------------------------------------------------------------------
 Center     Atomic      Atomic             Coordinates (Angstroms)
 Number     Number       Type             X           Y           Z
 ---------------------------------------------------------------------
      1          7           0       -0.031792   -0.002634    0.120613
      2          7           0        0.796024    1.086692    0.043536
      3          6           0        2.085745    0.599246   -0.047261
      4          6           0        1.966712   -0.766478   -0.040046
      5          7           0        0.669513   -1.157664    0.044681
      6          1           0        2.941160    1.248832   -0.120347
      7          1           0        2.754529   -1.501111   -0.107692
      8          1           0        0.405179    2.014820    0.046090
      9          6           0       -1.385167    0.105880   -0.055585
     10          8           0       -1.974847   -1.074957   -0.023936
     11          8           0       -1.879810    1.188370   -0.028092
     12          1           0       -1.303560   -1.786496   -0.006276
 ---------------------------------------------------------------------
 Rotational constants (GHZ):           5.0859594           1.8431895           1.3557203
 Standard basis: 6-31+G(d,p) (6D, 7F)
 There are   172 symmetry adapted cartesian basis functions of A   symmetry.
 There are   172 symmetry adapted basis functions of A   symmetry.
   172 basis functions,   284 primitive gaussians,   172 cartesian basis functions
    30 alpha electrons       29 beta electrons
       nuclear repulsion energy       377.1415070395 Hartrees.
 NAtoms=   12 NActive=   12 NUniq=   12 SFac= 1.00D+00 NAtFMM=   60 NAOKFM=F Big=F
 Integral buffers will be    131072 words long.
 Raffenetti 2 integral format.
 Two-electron integral symmetry is turned on.
 One-electron integrals computed using PRISM.
 NBasis=   172 RedAO= T EigKep=  3.09D-05  NBF=   172
 NBsUse=   172 1.00D-06 EigRej= -1.00D+00 NBFU=   172
 Initial guess from the checkpoint file:  "/scratch/gongke2021/1-H-Tz-RC/Gau-17508.chk"
 B after Tr=    -0.000000   -0.000000   -0.000000
         Rot=    0.999959   -0.000212    0.000350    0.009096 Ang=  -1.04 deg.
 Initial guess <Sx>= 0.0000 <Sy>= 0.0000 <Sz>= 0.5000 <S**2>= 0.7635 S= 0.5067
 ExpMin= 4.38D-02 ExpMax= 5.48D+03 ExpMxC= 8.25D+02 IAcc=2 IRadAn=         4 AccDes= 0.00D+00
 Harris functional with IExCor= 1009 and IRadAn=       4 diagonalized for initial guess.
 HarFok:  IExCor= 1009 AccDes= 0.00D+00 IRadAn=         4 IDoV= 1 UseB2=F ITyADJ=14
 ICtDFT=  3500011 ScaDFX=  1.000000  1.000000  1.000000  1.000000
 FoFCou: FMM=F IPFlag=           0 FMFlag=      100000 FMFlg1=           0
         NFxFlg=           0 DoJE=T BraDBF=F KetDBF=T FulRan=T
         wScrn=  0.000000 ICntrl=       500 IOpCl=  0 I1Cent=   200000004 NGrid=           0
         NMat0=    1 NMatS0=      1 NMatT0=    0 NMatD0=    1 NMtDS0=    0 NMtDT0=    0
 Petite list used in FoFCou.
 Keep R1 and R2 ints in memory in canonical form, NReq=245384874.
 Requested convergence on RMS density matrix=1.00D-08 within 128 cycles.
 Requested convergence on MAX density matrix=1.00D-06.
 Requested convergence on             energy=1.00D-06.
 No special actions if energy rises.
 SCF Done:  E(UM062X) =  -431.195460845     A.U. after   16 cycles
            NFock= 16  Conv=0.36D-08     -V/T= 2.0078
 <Sx>= 0.0000 <Sy>= 0.0000 <Sz>= 0.5000 <S**2>= 0.7642 S= 0.5071
 <L.S>=  0.00000000000    
 Annihilation of the first spin contaminant:
 S**2 before annihilation     0.7642,   after     0.7501
 Calling FoFJK, ICntrl=      2127 FMM=F ISym2X=0 I1Cent= 0 IOpClX= 1 NMat=1 NMatS=1 NMatT=0.
 ***** Axes restored to original set *****
 -------------------------------------------------------------------
 Center     Atomic                   Forces (Hartrees/Bohr)
 Number     Number              X              Y              Z
 -------------------------------------------------------------------
      1        7           0.021586880    0.000480360   -0.003925254
      2        7           0.007534516    0.000813125   -0.000518506
      3        6          -0.005755348    0.003002890   -0.000152485
      4        6          -0.004361756   -0.002849918   -0.000536535
      5        7           0.008803843   -0.008589812   -0.000663479
      6        1          -0.000359663    0.000488322    0.000599850
      7        1          -0.000597397   -0.000130554    0.000534001
      8        1          -0.002050763    0.000878550    0.000246982
      9        6           0.018292928   -0.018264914    0.021115537
     10        8          -0.013833567   -0.011566565   -0.006347681
     11        8          -0.027206467    0.031425602   -0.009495719
     12        1          -0.002053205    0.004312914   -0.000856712
 -------------------------------------------------------------------
 Cartesian Forces:  Max     0.031425602 RMS     0.010656399

 GradGradGradGradGradGradGradGradGradGradGradGradGradGradGradGradGradGrad
 Berny optimization.
 Using GEDIIS/GDIIS optimizer.
 FormGI is forming the generalized inverse of G from B-inverse, IUseBI=4.
 Internal  Forces:  Max     0.039397545 RMS     0.008023666
 Search for a local minimum.
 Step number   4 out of a maximum of   61
 All quantities printed in internal units (Hartrees-Bohrs-Radians)
 Mixed Optimization -- RFO/linear search
 Update second derivatives using D2CorX and points    3    4
 DE= -5.61D-03 DEPred=-7.84D-03 R= 7.15D-01
 TightC=F SS=  1.41D+00  RLast= 3.35D-01 DXNew= 1.4270D+00 1.0041D+00
 Trust test= 7.15D-01 RLast= 3.35D-01 DXMaxT set to 1.00D+00
 ITU=  1  1  1  0
 Use linear search instead of GDIIS.
     Eigenvalues ---    0.00230   0.01234   0.01750   0.01897   0.02226
     Eigenvalues ---    0.02228   0.02386   0.02559   0.05011   0.15995
     Eigenvalues ---    0.15997   0.16033   0.16102   0.21401   0.22929
     Eigenvalues ---    0.24016   0.25254   0.28985   0.31774   0.36122
[...]
   D14        0.77020   0.00001   0.00000  -0.00014  -0.00014   0.77006
   D15        0.06493   0.00002   0.00000   0.00030   0.00030   0.06522
   D16       -3.06325   0.00001   0.00000   0.00027   0.00027  -3.06298
   D17        3.11839   0.00001   0.00000   0.00038   0.00038   3.11877
   D18       -0.00978   0.00000   0.00000   0.00036   0.00036  -0.00943
   D19        0.02976  -0.00001   0.00000  -0.00027  -0.00027   0.02949
   D20       -3.12404  -0.00000   0.00000  -0.00025  -0.00025  -3.12428
   D21        0.07400   0.00001   0.00000   0.00053   0.00053   0.07454
   D22       -3.10990   0.00002   0.00000   0.00065   0.00065  -3.10925
         Item               Value     Threshold  Converged?
 Maximum Force            0.000051     0.000450     YES
 RMS     Force            0.000014     0.000300     YES
 Maximum Displacement     0.001419     0.001800     YES
 RMS     Displacement     0.000462     0.001200     YES
 Predicted change in Energy=-4.451617D-08
 Optimization completed.
    -- Stationary point found.
                           ----------------------------
                           !   Optimized Parameters   !
                           ! (Angstroms and Degrees)  !
 --------------------------                            --------------------------
 ! Name  Definition              Value          Derivative Info.                !
 --------------------------------------------------------------------------------
 ! R1    R(1,2)                  1.386          -DE/DX =    0.0                 !
 ! R2    R(1,5)                  1.3612         -DE/DX =   -0.0001              !
 ! R3    R(1,9)                  1.3874         -DE/DX =    0.0                 !
 ! R4    R(2,3)                  1.39           -DE/DX =    0.0                 !
 ! R5    R(2,8)                  1.0167         -DE/DX =    0.0                 !
 ! R6    R(3,4)                  1.3733         -DE/DX =    0.0                 !
 ! R7    R(3,6)                  1.0771         -DE/DX =    0.0                 !
 ! R8    R(4,5)                  1.3499         -DE/DX =    0.0                 !
 ! R9    R(4,7)                  1.0794         -DE/DX =    0.0                 !
 ! R10   R(9,10)                 1.3335         -DE/DX =    0.0                 !
 ! R11   R(9,11)                 1.2061         -DE/DX =    0.0                 !
 ! R12   R(10,12)                0.9733         -DE/DX =    0.0                 !
 ! A1    A(2,1,5)              112.4675         -DE/DX =    0.0                 !
 ! A2    A(2,1,9)              121.2589         -DE/DX =    0.0                 !
 ! A3    A(5,1,9)              124.6704         -DE/DX =    0.0                 !
 ! A4    A(1,2,3)              104.1463         -DE/DX =    0.0                 !
 ! A5    A(1,2,8)              114.169          -DE/DX =    0.0                 !
 ! A6    A(3,2,8)              124.1341         -DE/DX =    0.0                 !
 ! A7    A(2,3,4)              106.8627         -DE/DX =    0.0                 !
 ! A8    A(2,3,6)              121.2349         -DE/DX =    0.0                 !
 ! A9    A(4,3,6)              131.7164         -DE/DX =    0.0                 !
 ! A10   A(3,4,5)              111.9449         -DE/DX =    0.0                 !
 ! A11   A(3,4,7)              128.0586         -DE/DX =    0.0                 !
 ! A12   A(5,4,7)              119.9921         -DE/DX =    0.0                 !
 ! A13   A(1,5,4)              103.8452         -DE/DX =    0.0                 !
 ! A14   A(1,9,10)             113.0226         -DE/DX =    0.0                 !
 ! A15   A(1,9,11)             121.4835         -DE/DX =    0.0                 !
 ! A16   A(10,9,11)            125.4488         -DE/DX =    0.0                 !
 ! A17   A(9,10,12)            109.698          -DE/DX =    0.0                 !
 ! D1    D(5,1,2,3)              8.963          -DE/DX =    0.0                 !
 ! D2    D(5,1,2,8)            147.3275         -DE/DX =    0.0                 !
 ! D3    D(9,1,2,3)            175.1676         -DE/DX =    0.0                 !
 ! D4    D(9,1,2,8)            -46.4678         -DE/DX =    0.0                 !
 ! D5    D(2,1,5,4)             -6.7281         -DE/DX =    0.0                 !
 ! D6    D(9,1,5,4)           -172.378          -DE/DX =    0.0                 !
 ! D7    D(2,1,9,10)          -170.8704         -DE/DX =    0.0                 !
 ! D8    D(2,1,9,11)            11.4453         -DE/DX =    0.0                 !
 ! D9    D(5,1,9,10)            -6.4115         -DE/DX =    0.0                 !
 ! D10   D(5,1,9,11)           175.9043         -DE/DX =    0.0                 !
 ! D11   D(1,2,3,4)             -7.3576         -DE/DX =    0.0                 !
 ! D12   D(1,2,3,6)            177.0491         -DE/DX =    0.0                 !
 ! D13   D(8,2,3,4)           -140.2775         -DE/DX =    0.0                 !
 ! D14   D(8,2,3,6)             44.1292         -DE/DX =    0.0                 !
 ! D15   D(2,3,4,5)              3.72           -DE/DX =    0.0                 !
 ! D16   D(2,3,4,7)           -175.5111         -DE/DX =    0.0                 !
 ! D17   D(6,3,4,5)            178.6705         -DE/DX =    0.0                 !
 ! D18   D(6,3,4,7)             -0.5606         -DE/DX =    0.0                 !
 ! D19   D(3,4,5,1)              1.7049         -DE/DX =    0.0                 !
 ! D20   D(7,4,5,1)           -178.9941         -DE/DX =    0.0                 !
 ! D21   D(1,9,10,12)            4.2401         -DE/DX =    0.0                 !
 ! D22   D(11,9,10,12)        -178.1842         -DE/DX =    0.0                 !
 --------------------------------------------------------------------------------
 GradGradGradGradGradGradGradGradGradGradGradGradGradGradGradGradGradGrad


 ----------------------------------------------------------------------

 Electric dipole moment (input orientation):
 (Debye = 10**-18 statcoulomb cm , SI units = C m)
                  (au)            (Debye)         (10**-30 SI)
   Tot        0.192740D+01      0.489897D+01      0.163412D+02
   x          0.189756D+01      0.482310D+01      0.160881D+02
   y         -0.265379D-01     -0.674527D-01     -0.224998D+00
   z         -0.336831D+00     -0.856138D+00     -0.285577D+01

 Dipole polarizability, Alpha (input orientation).
 (esu units = cm**3 , SI units = C**2 m**2 J**-1)
 Alpha(0;0):
               (au)            (10**-24 esu)      (10**-40 SI)
   iso        0.650613D+02      0.964109D+01      0.107272D+02
   aniso      0.441219D+02      0.653819D+01      0.727472D+01
   xx         0.874792D+02      0.129631D+02      0.144234D+02
   yx        -0.204516D+01     -0.303061D+00     -0.337201D+00
   yy         0.699942D+02      0.103721D+02      0.115405D+02
   zx        -0.196882D+01     -0.291749D+00     -0.324614D+00
   zy         0.183581D+01      0.272039D+00      0.302684D+00
   zz         0.377104D+02      0.558810D+01      0.621760D+01

 ----------------------------------------------------------------------

 Dipole orientation:
     7         -0.13256344         -0.08142787         -0.32987694
     7          0.51955197         -2.14883390          1.13994080
     6          0.70342096         -1.17474758          3.57242404
     6          0.47514240          1.40243025          3.37055311
     7          0.00349197          2.13274085          0.97241526
     1          1.10617209         -2.37837833          5.16376541
     1          0.64891455          2.79958385          4.84638472
     1         -0.42479064         -3.76112533          0.69280855
     6         -0.30952690         -0.26866888         -2.93907680
     8         -0.59376552          1.96495712         -4.07038566
     8         -0.28555409         -2.29007276         -3.99175279
     1         -0.49265723          3.31032941         -2.82036727

 Electric dipole moment (dipole orientation):
 (Debye = 10**-18 statcoulomb cm , SI units = C m)
                  (au)            (Debye)         (10**-30 SI)
   Tot        0.192740D+01      0.489897D+01      0.163412D+02
   x          0.000000D+00      0.000000D+00      0.000000D+00
   y          0.000000D+00      0.000000D+00      0.000000D+00
   z          0.192740D+01      0.489897D+01      0.163412D+02

 Dipole polarizability, Alpha (dipole orientation).
 (esu units = cm**3 , SI units = C**2 m**2 J**-1)
 Alpha(0;0):
               (au)            (10**-24 esu)      (10**-40 SI)
   iso        0.650613D+02      0.964109D+01      0.107272D+02
   aniso      0.441219D+02      0.653819D+01      0.727472D+01
   xx         0.385928D+02      0.571887D+01      0.636310D+01
   yx        -0.190414D+01     -0.282164D+00     -0.313950D+00
   yy         0.698933D+02      0.103571D+02      0.115239D+02
   zx         0.667062D+01      0.988483D+00      0.109984D+01
   zy         0.218165D+01      0.323287D+00      0.359706D+00
   zz         0.866977D+02      0.128473D+02      0.142945D+02

 ----------------------------------------------------------------------
 1\1\GINC-NODE4\Freq\UM062X\6-31+G(d,p)\C3H4N3O2(2)\GONGKE2021\13-Nov-2
 023\0\\#N Geom=AllCheck Guess=TCheck SCRF=Check GenChk UM062X/6-31+G(d
 ,p) Freq\\Title Card Required\\0,2\N,-0.1836336084,0.0446768839,-0.039
 1500619\N,0.6551025626,1.1317971613,0.1496010404\C,1.9334563669,0.5998
 154337,0.0275386189\C,1.7914179984,-0.7636713173,-0.0539442612\N,0.493
 9120287,-1.135479539,-0.0725688121\H,2.8071477799,1.2275111775,0.08143
 0451\H,2.567854753,-1.5125858525,-0.0897147623\H,0.3445872578,1.982338
 8879,-0.3127825389\C,-1.5582191755,0.161674946,0.1085855532\O,-2.18756
 08859,-1.0136110489,0.0813982806\O,-2.0920832631,1.2389995002,0.203696
 6482\H,-1.5351788143,-1.7339269127,0.0282767242\\Version=ES64L-G16RevA
 .03\State=2-A\HF=-431.2011507\S2=0.765499\S2-1=0.\S2A=0.750087\RMSD=2.
 536e-09\RMSF=2.468e-05\ZeroPoint=0.0853075\Thermal=0.0919923\Dipole=1.
 8975553,-0.0265379,-0.3368307\DipoleDeriv=-1.4172243,0.103417,0.076054
 8,0.3057569,0.0017497,0.0656212,0.1542156,0.0214793,-0.0740828,-0.0170
 937,0.3302822,0.0897904,0.0160273,-0.5813372,-0.1221358,-0.0445154,-0.
 3373122,-0.1403993,-0.0956155,-0.2628317,-0.0542627,-0.0230504,0.00198
 37,0.0965876,0.0842331,0.159493,-0.1711978,0.2502081,0.2441027,-0.0221
 343,-0.0897899,0.4342967,-0.0103835,0.0121708,0.0289112,-0.0465891,-0.
 3005355,-0.3670102,0.0327512,-0.2321561,-0.4577649,-0.049515,-0.030959
 3,0.0141799,-0.2100736,0.0800417,-0.0099486,0.0026483,-0.0142154,0.089
 7703,-0.0106284,-0.0301616,-0.0397902,0.2091163,0.0530404,0.0334375,0.
 0017626,0.0498702,0.0836944,-0.0039645,-0.0052396,-0.0058824,0.1603004
 ,0.1915221,-0.0159281,-0.0254374,-0.0157355,0.3299012,0.0173148,-0.000
 4764,0.1426347,0.2917449,2.7609107,-0.0810843,-0.1668529,-0.3282332,1.
 889899,0.1003732,-0.2043973,0.0798419,0.4568696,-0.7803501,-0.3210452,
 0.0068202,-0.5364487,-1.1191257,-0.0050492,-0.0260489,-0.0245245,-0.39
 50598,-1.1060752,0.2727786,0.056414,0.7932753,-1.0638702,-0.0761143,0.
 086801,-0.0400733,-0.4220046,0.3811713,0.0738301,0.0024459,0.0746995,0
 .390803,-0.002106,0.0043779,0.0010426,0.3413756\Polar=87.4792129,-2.04
 51586,69.9942125,-1.9688195,1.8358087,37.7103914\Quadrupole=-1.222035,
 2.4594348,-1.2373998,3.9031395,0.2588686,-1.5000931\PG=C01 [X(C3H4N3O2
 )]\NImag=0\\0.86389150,-0.01745890,0.64116236,-0.00951613,0.03860258,0
 .05502991,-0.16863232,-0.08294193,-0.03184137,0.60884529,-0.06483762,-
 0.20689269,-0.02156461,-0.12079746,0.76332117,-0.03191962,-0.00701681,
 -0.02794340,0.07078156,-0.15109308,0.15331627,-0.08909698,-0.02484062,
 0.00195387,-0.27261522,0.06523393,0.00752958,0.73356994,-0.00370948,-0
 .00532394,0.00284234,0.08697283,-0.14573593,0.00615902,0.14861436,0.75
 056535,-0.00404164,-0.00554444,-0.00216248,0.03353344,-0.00208862,-0.0
 3677366,0.00500159,0.04201550,0.09573718,-0.09272699,0.04403051,0.0012
 7528,-0.01932357,0.02766809,0.00128157,-0.08515793,0.01689943,-0.00210
 971,0.69756296,0.02744275,-0.01368452,-0.00375150,0.05257163,-0.043328
 47,-0.00249936,-0.00815157,-0.37926149,-0.02068691,-0.18456071,0.77582
 830,-0.00012490,-0.00015688,0.00577934,0.00638755,-0.00769146,0.012293
 92,-0.00263055,-0.01988642,-0.06022725,-0.00452035,0.04067335,0.126534
 12,-0.13659649,0.10149580,0.00554978,-0.00536881,0.00702913,0.00400637
 ,-0.04294520,-0.11458947,-0.00536600,-0.28773426,-0.04767710,-0.006335
 96,0.52274072,0.03580227,-0.23364954,-0.00816885,0.00568431,-0.0739970
 5,-0.00446764,-0.05169389,-0.03549275,0.00205611,-0.03830913,-0.114204
 90,-0.00275920,0.02419800,0.44214394,-0.00115260,-0.00163368,-0.028818
 17,-0.00014340,-0.00860912,-0.00388809,-0.00179800,-0.00246554,0.02520
 155,-0.00350831,-0.00329731,-0.05223670,0.00219678,0.01624051,0.065348
 00,-0.00351059,0.00272874,0.00085231,-0.01575107,-0.01777002,-0.001795
 24,-0.26256789,-0.14775643,-0.01069071,0.00584610,0.00121939,-0.000106
 99,0.00199521,0.00318152,0.00015858,0.27499162,0.00602957,-0.00324607,
 -0.00089110,0.01424162,0.01339746,0.00093278,-0.15640981,-0.16898265,-
 0.01265132,-0.02279678,-0.00161990,-0.00062812,-0.00101586,-0.00434202
 ,-0.00067799,0.16002032,0.16368441,-0.00115946,-0.00025138,0.00266209,
 0.00370793,0.00238167,-0.00337866,-0.01584215,-0.01399533,-0.02058739,
 0.00006068,0.00059012,0.00011580,-0.00043433,-0.00196598,0.00615618,0.
 01226660,0.01303076,0.01697910,-0.00678411,-0.00189828,0.00045274,-0.0
 0004578,-0.00364977,0.00007185,0.00959519,-0.00467677,-0.00056933,-0.2
 1191664,0.15165269,0.00730756,-0.01648597,0.02144858,0.00077509,-0.000
 30913,0.00049723,0.00004759,0.22507555,-0.00552699,0.00060544,-0.00025
 989,-0.00143629,-0.00468578,0.00090065,0.02096827,-0.00599799,-0.00090
 778,0.15682297,-0.21541590,-0.00932318,-0.00605567,0.01208499,0.000831
 13,-0.00046692,-0.00003432,0.00021765,-0.16519555,0.21225909,0.0001555
 8,0.00030263,0.00711570,-0.00211674,-0.00102832,0.00676150,0.00141943,
 -0.00078882,0.00104402,0.00660982,-0.00924777,-0.03445911,0.00072529,0
 .00067191,-0.00495507,-0.00001706,0.00025314,-0.00253403,-0.00771581,0
 .00945669,0.02575695,0.00871784,-0.02365169,0.01400440,-0.09614451,0.0
 9848146,-0.06168583,0.00099733,0.02449935,-0.01388446,-0.00787834,0.00
 138552,-0.00066465,-0.00258718,-0.00412312,-0.00076020,-0.00029916,-0.
 00054595,0.00061653,0.00060613,0.00080562,0.00107926,0.09184639,0.0070
 4480,-0.02371578,0.00607368,0.08689358,-0.31036581,0.15014162,0.005387
 66,-0.00237333,-0.00074658,-0.00040889,0.00122661,0.00075818,-0.002806
 40,-0.00088608,0.00287621,0.00015513,-0.00012698,-0.00024398,0.0000872
 2,0.00008942,0.00024481,-0.09528329,0.33784177,0.01112595,-0.01157145,
 0.00104781,-0.07359886,0.18935420,-0.09711213,0.00413598,-0.01230856,-
 0.00230801,0.00086239,-0.00212038,0.00098971,-0.00093557,-0.00289876,-
 0.00076361,-0.00033627,0.00050408,-0.00002553,-0.00023081,-0.00091829,
 0.00063235,0.06263327,-0.15973609,0.09715346,-0.26730821,-0.00393887,0
 .00248700,-0.03039685,0.00144495,0.01326470,0.01078537,-0.00798167,-0.
 00315643,0.00752951,0.00473169,0.00035571,-0.02574557,0.01286956,0.005
 04931,0.00031200,-0.00082062,0.00092816,0.00139888,0.00045260,0.000096
 56,0.00592621,-0.00281682,-0.00397601,0.68269057,0.00027818,-0.1149987
 2,-0.00231667,-0.03263599,-0.00422491,-0.00144691,-0.00820650,-0.00839
 774,0.00017234,0.00737414,-0.01000338,-0.00048432,0.02052760,0.0085562
 3,-0.00243694,-0.00118007,0.00095934,-0.00024534,0.00144226,0.00089672
 ,0.00008387,-0.00972919,-0.00046910,0.00442890,-0.16390753,1.05858961,
 0.01995443,-0.00898089,-0.04108661,-0.00754017,0.00237487,-0.00625823,
 -0.00027860,-0.00158507,-0.00137384,-0.00019050,0.00093970,0.00136610,
 -0.00149678,-0.00042747,-0.01036395,-0.00046865,0.00019040,0.00062347,
 -0.00029581,-0.00007157,0.00137858,0.00002020,0.00113740,0.00258140,-0
 .03716971,0.05926265,0.19425290,-0.04749852,-0.04920298,0.00090601,-0.
 00547033,0.00426517,0.00141468,-0.00245004,-0.00225128,0.00013935,-0.0
 0009771,-0.00322495,0.00010136,-0.00416235,-0.00138449,-0.00034575,-0.
 00049128,0.00034897,-0.00005319,-0.00016471,0.00004035,-0.00004812,-0.
 00113919,0.00038509,0.00011991,-0.17942218,-0.06985193,0.00397819,0.46
 789639,-0.03475547,-0.01633006,0.00594665,-0.00115194,0.00151630,-0.00
 205980,0.00068946,0.00208809,0.00057122,-0.00459831,-0.00016591,0.0000
 0808,0.01054302,0.00395812,-0.00174631,-0.00028463,0.00054387,-0.00007
 160,-0.00034294,-0.00010178,-0.00003507,0.00130388,0.00061540,-0.00020
 021,-0.11324656,-0.27690507,-0.00677055,-0.08990715,0.65009237,0.00515
 847,0.00515734,0.01205944,0.00126522,-0.00303838,0.00425998,-0.0002000
 4,0.00050134,0.00086055,-0.00002244,0.00017633,0.00033007,0.00095982,0
 .00045078,0.00007914,0.00011801,-0.00000941,-0.00012966,-0.00000831,-0
 .00001195,-0.00010143,-0.00056346,-0.00034581,-0.00028256,-0.00040682,
 -0.00810401,-0.05469830,-0.02309459,0.02847102,0.03560334,-0.05263004,
 0.06429126,0.01235781,0.00530513,-0.00003443,-0.00338768,-0.00188120,0
 .00223598,0.00129070,-0.00179766,0.00365736,0.00038037,-0.00573958,-0.
 00477673,0.00021124,0.00001394,0.00011310,-0.00023668,-0.00091255,-0.0
 0030870,-0.00016059,-0.00057262,0.00143851,0.00039359,-0.23478482,0.26
 525790,0.02572717,0.03129911,-0.01148129,-0.00212911,0.26547009,0.0495
 1459,-0.02258080,-0.01674684,-0.00841810,0.01267033,0.01064939,0.00758
 555,-0.00137332,-0.00214904,-0.00293379,0.00001052,-0.00044818,0.00871
 099,-0.00421587,0.00069969,0.00000158,-0.00016866,0.00053062,0.0004323
 9,0.00020720,0.00006671,0.00675869,-0.00161912,-0.00449556,0.24849053,
 -0.61383131,-0.04310143,0.01447298,-0.08528719,-0.00555152,-0.31609367
 ,0.71826589,0.01084781,-0.00927255,0.01536419,-0.00041438,0.00093084,-
 0.00073492,0.00079238,-0.00045274,0.00045135,0.00022626,-0.00044749,0.
 00035066,0.00117257,0.00101204,0.00569901,0.00001691,-0.00000720,-0.00
 007292,0.00015688,0.00007542,-0.00058180,-0.00078704,-0.00031164,-0.00
 202360,0.02298758,-0.04794177,-0.08212108,-0.00027382,-0.00455560,0.01
 429463,-0.03470090,0.06094421,0.04393856,-0.00782509,-0.00861305,0.001
 51830,-0.00040194,0.00296657,0.00043806,0.00176662,0.00174314,-0.00014
 681,-0.00430547,0.00095329,-0.00014914,0.00262947,-0.00289689,-0.00068
 275,-0.00022974,0.00033821,0.00009832,-0.00005686,-0.00009969,-0.00002
 763,0.00052710,-0.00007659,-0.00019357,0.02901508,-0.00936886,-0.00223
 977,-0.25829920,0.24323192,0.01892324,-0.00376979,-0.00852172,-0.00002
 425,0.24094981,0.00017629,-0.00134570,0.00023423,0.00101776,-0.0016746
 4,-0.00019986,0.00082315,0.00028569,-0.00004048,0.00081247,0.00061904,
 -0.00006186,-0.00036005,0.00004492,0.00021934,0.00015139,-0.00006449,0
 .00002279,0.00020295,0.00009289,0.00002022,0.00009872,-0.00021699,-0.0
 0003787,0.02472273,-0.04017167,-0.00296803,0.19631023,-0.28002413,-0.0
 1769574,-0.00429930,-0.00207767,0.00002647,-0.21965633,0.32453274,0.00
 067211,0.00036553,0.00095220,-0.00002078,0.00007203,-0.00054258,-0.000
 08346,-0.00003573,0.00013798,0.00003532,-0.00032879,-0.00083665,-0.000
 04197,0.00025656,-0.00145828,0.00000250,-0.00004602,0.00019155,0.00000
 834,0.00001112,-0.00005767,-0.00000804,0.00015221,0.00011071,-0.000460
 06,-0.00097182,-0.00430044,0.01715596,-0.01955783,-0.01227519,0.000254
 08,-0.00039804,0.00543592,-0.01751400,0.02048078,0.01264245\\-0.000043
 18,0.00006618,0.00000606,0.00000720,-0.00005060,-0.00002221,-0.0000158
 5,0.00000868,0.00001057,0.00001586,0.00002130,-0.00001275,0.00002518,-
 0.00005107,0.00002186,0.00000056,0.00000805,0.00001149,-0.00000592,-0.
 00000263,-0.00001228,0.00001346,0.00000469,-0.00000446,-0.00001491,0.0
 0005919,0.00001144,-0.00000639,-0.00002032,0.00001437,0.00002170,-0.00
 003929,-0.00000691,0.00000228,-0.00000417,-0.00001718\\\@


 THERE'S NOTHING SO GREAT AS THE GREAT OUTDOORS.

                                       -- ZIGGY
 Job cpu time:       0 days  0 hours 22 minutes 36.2 seconds.
 Elapsed time:       0 days  0 hours  0 minutes 57.4 seconds.
 File lengths (MBytes):  RWF=     82 Int=      0 D2E=      0 Chk=      5 Scr=      1
 Normal termination of Gaussian 16 at Mon Nov 13 02:22:01 2023.
