 Entering Gaussian System, Link 0=/home/gau/soft/g16/g16
 Initial command:
 /home/gau/soft/g16/l1.exe "/home/gau/soft/scratch/Gau-98418.inp" -scrdir="/home/gau/soft/scratch/"
 Entering Link 1 = /home/gau/soft/g16/l1.exe PID=     98419.
  
 Copyright (c) 1988-2019, Gaussian, Inc.  All Rights Reserved.
  
 This is part of the Gaussian(R) 16 program.  It is based on
 the Gaussian(R) 09 system (copyright 2009, Gaussian, Inc.),
 the Gaussian(R) 03 system (copyright 2003, Gaussian, Inc.),
 the Gaussian(R) 98 system (copyright 1998, Gaussian, Inc.),
 the Gaussian(R) 94 system (copyright 1995, Gaussian, Inc.),
 the Gaussian 92(TM) system (copyright 1992, Gaussian, Inc.),
 the Gaussian 90(TM) system (copyright 1990, Gaussian, Inc.),
 the Gaussian 88(TM) system (copyright 1988, Gaussian, Inc.),
 the Gaussian 86(TM) system (copyright 1986, Carnegie Mellon
 University), and the Gaussian 82(TM) system (copyright 1983,
 Carnegie Mellon University). Gaussian is a federally registered
 trademark of Gaussian, Inc.
  
 This software contains proprietary and confidential information,
 including trade secrets, belonging to Gaussian, Inc.
  
 This software is provided under written license and may be
 used, copied, transmitted, or stored only in accord with that
 written license.
  
 The following legend is applicable only to US Government
 contracts under FAR:
  
                    RESTRICTED RIGHTS LEGEND
  
 Use, reproduction and disclosure by the US Government is
 subject to restrictions as set forth in subparagraphs (a)
 and (c) of the Commercial Computer Software - Restricted
 Rights clause in FAR 52.227-19.
  
 Gaussian, Inc.
 340 Quinnipiac St., Bldg. 40, Wallingford CT 06492
  
  
 ---------------------------------------------------------------
 Warning -- This program may not be used in any manner that
 competes with the business of Gaussian, Inc. or will provide
 assistance to any competitor of Gaussian, Inc.  The licensee
 of this program is prohibited from giving any competitor of
 Gaussian, Inc. access to this program.  By using this program,
 the user acknowledges that Gaussian, Inc. is engaged in the
 business of creating and licensing software in the field of
 computational chemistry and represents and warrants to the
 licensee that it is not a competitor of Gaussian, Inc. and that
 it will not use this program in any manner prohibited above.
 ---------------------------------------------------------------
  

 Cite this work as:
 Gaussian 16, Revision C.01,
 M. J. Frisch, G. W. Trucks, H. B. Schlegel, G. E. Scuseria, 
 M. A. Robb, J. R. Cheeseman, G. Scalmani, V. Barone, 
 G. A. Petersson, H. Nakatsuji, X. Li, M. Caricato, A. V. Marenich, 
 J. Bloino, B. G. Janesko, R. Gomperts, B. Mennucci, H. P. Hratchian, 
 J. V. Ortiz, A. F. Izmaylov, J. L. Sonnenberg, D. Williams-Young, 
 F. Ding, F. Lipparini, F. Egidi, J. Goings, B. Peng, A. Petrone, 
 T. Henderson, D. Ranasinghe, V. G. Zakrzewski, J. Gao, N. Rega, 
 G. Zheng, W. Liang, M. Hada, M. Ehara, K. Toyota, R. Fukuda, 
 J. Hasegawa, M. Ishida, T. Nakajima, Y. Honda, O. Kitao, H. Nakai, 
 T. Vreven, K. Throssell, J. A. Montgomery, Jr., J. E. Peralta, 
 F. Ogliaro, M. J. Bearpark, J. J. Heyd, E. N. Brothers, K. N. Kudin, 
 V. N. Staroverov, T. A. Keith, R. Kobayashi, J. Normand, 
 K. Raghavachari, A. P. Rendell, J. C. Burant, S. S. Iyengar, 
 J. Tomasi, M. Cossi, J. M. Millam, M. Klene, C. Adamo, R. Cammi, 
 J. W. Ochterski, R. L. Martin, K. Morokuma, O. Farkas, 
 J. B. Foresman, and D. J. Fox, Gaussian, Inc., Wallingford CT, 2019.
 
 ******************************************
 Gaussian 16:  ES64L-G16RevC.01  3-Jul-2019
                 8-Dec-2023 
 ******************************************
 %mem=10GB
 %nprocshared=48
 Will use up to   48 processors via shared memory.
 ----------------------------
 # opt freq 6-31+g(d,p) m062x
 ----------------------------
 1/18=20,19=15,26=3,38=1/1,3;
 2/9=110,12=2,17=6,18=5,40=1/2;
 3/5=1,6=6,7=111,11=2,25=1,30=1,71=1,74=-55/1,2,3;
 4//1;
 5/5=2,38=5/2;
 6/7=2,8=2,9=2,10=2,28=1/1;
 7//1,2,3,16;
 1/18=20,19=15,26=3/3(2);
 2/9=110/2;
 99//99;
 2/9=110/2;
 3/5=1,6=6,7=111,11=2,25=1,30=1,71=1,74=-55/1,2,3;
 4/5=5,16=3,69=1/1;
 5/5=2,38=5/2;
 7//1,2,3,16;
 1/18=20,19=15,26=3/3(-5);
 2/9=110/2;
 6/7=2,8=2,9=2,10=2,19=2,28=1/1;
 99/9=1/99;
 ----------
 "Sketch 3"
 ----------
 Symbolic Z-matrix:
 Charge =  0 Multiplicity = 2
 O                     0.        0.        0.1087 
 H                     0.        0.       -0.86958 
 

 GradGradGradGradGradGradGradGradGradGradGradGradGradGradGradGradGradGrad
 Berny optimization.
 Initialization pass.
                           ----------------------------
                           !    Initial Parameters    !
                           ! (Angstroms and Degrees)  !
 --------------------------                            --------------------------
 ! Name  Definition              Value          Derivative Info.                !
 --------------------------------------------------------------------------------
 ! R1    R(1,2)                  0.9783         estimate D2E/DX2                !
 --------------------------------------------------------------------------------
 Trust Radius=3.00D-01 FncErr=1.00D-07 GrdErr=1.00D-06 EigMax=2.50D+02 EigMin=1.00D-04
 Number of steps in this run=     20 maximum allowed number of steps=    100.
 GradGradGradGradGradGradGradGradGradGradGradGradGradGradGradGradGradGrad

                          Input orientation:                          
 ---------------------------------------------------------------------
 Center     Atomic      Atomic             Coordinates (Angstroms)
 Number     Number       Type             X           Y           Z
 ---------------------------------------------------------------------
      1          8           0        0.000000    0.000000    0.108698
      2          1           0        0.000000    0.000000   -0.869582
 ---------------------------------------------------------------------
 Stoichiometry    HO(2)
 Framework group  C*V[C*(HO)]
 Deg. of freedom     1
 Full point group                 C*V     NOp   4
 Largest Abelian subgroup         C2V     NOp   4
 Largest concise Abelian subgroup C1      NOp   1
                         Standard orientation:                         
 ---------------------------------------------------------------------
 Center     Atomic      Atomic             Coordinates (Angstroms)
 Number     Number       Type             X           Y           Z
 ---------------------------------------------------------------------
      1          8           0        0.000000    0.000000    0.108698
      2          1           0        0.000000    0.000000   -0.869582
 ---------------------------------------------------------------------
 Rotational constants (GHZ):           0.0000000         556.9839561         556.9839561
 Standard basis: 6-31+G(d,p) (6D, 7F)
 There are    13 symmetry adapted cartesian basis functions of A1  symmetry.
 There are     1 symmetry adapted cartesian basis functions of A2  symmetry.
 There are     5 symmetry adapted cartesian basis functions of B1  symmetry.
 There are     5 symmetry adapted cartesian basis functions of B2  symmetry.
 There are    13 symmetry adapted basis functions of A1  symmetry.
 There are     1 symmetry adapted basis functions of A2  symmetry.
 There are     5 symmetry adapted basis functions of B1  symmetry.
 There are     5 symmetry adapted basis functions of B2  symmetry.
    24 basis functions,    39 primitive gaussians,    24 cartesian basis functions
     5 alpha electrons        4 beta electrons
       nuclear repulsion energy         4.3274090111 Hartrees.
 NAtoms=    2 NActive=    2 NUniq=    2 SFac= 1.00D+00 NAtFMM=   60 NAOKFM=F Big=F
 Integral buffers will be    131072 words long.
 Raffenetti 2 integral format.
 Two-electron integral symmetry is turned on.
 One-electron integrals computed using PRISM.
 NBasis=    24 RedAO= T EigKep=  2.29D-02  NBF=    13     1     5     5
 NBsUse=    24 1.00D-06 EigRej= -1.00D+00 NBFU=    13     1     5     5
 ExpMin= 8.45D-02 ExpMax= 5.48D+03 ExpMxC= 8.25D+02 IAcc=3 IRadAn=         5 AccDes= 0.00D+00
 Harris functional with IExCor= 1009 and IRadAn=       5 diagonalized for initial guess.
 HarFok:  IExCor= 1009 AccDes= 0.00D+00 IRadAn=         5 IDoV= 1 UseB2=F ITyADJ=14
 ICtDFT=  3500011 ScaDFX=  1.000000  1.000000  1.000000  1.000000
 FoFCou: FMM=F IPFlag=           0 FMFlag=      100000 FMFlg1=           0
         NFxFlg=           0 DoJE=T BraDBF=F KetDBF=T FulRan=T
         wScrn=  0.000000 ICntrl=       500 IOpCl=  0 I1Cent=   200000004 NGrid=           0
         NMat0=    1 NMatS0=      1 NMatT0=    0 NMatD0=    1 NMtDS0=    0 NMtDT0=    0
 Petite list used in FoFCou.
 Initial guess orbital symmetries:
 Alpha Orbitals:
       Occupied  (SG) (SG) (SG) (PI) (PI)
       Virtual   (SG) (SG) (PI) (PI) (SG) (SG) (PI) (PI) (SG) (SG)
                 (PI) (PI) (DLTA) (DLTA) (SG) (PI) (PI) (SG) (SG)
 Beta  Orbitals:
       Occupied  (SG) (SG) (SG) (PI)
       Virtual   (PI) (SG) (SG) (PI) (PI) (SG) (SG) (PI) (PI) (SG)
                 (SG) (PI) (PI) (DLTA) (DLTA) (SG) (PI) (PI) (SG)
                 (SG)
 Initial guess <Sx>= 0.0000 <Sy>= 0.0000 <Sz>= 0.5000 <S**2>= 0.7500 S= 0.5000
 Keep R1 and R2 ints in memory in symmetry-blocked form, NReq=41519010.
 Requested convergence on RMS density matrix=1.00D-08 within 128 cycles.
 Requested convergence on MAX density matrix=1.00D-06.
 Requested convergence on             energy=1.00D-06.
 No special actions if energy rises.
 Integral accuracy reduced to 1.0D-05 until final iterations.
 Initial convergence to 1.0D-05 achieved.  Increase integral accuracy.
 SCF Done:  E(UM062X) =  -75.7017444643     A.U. after   14 cycles
            NFock= 14  Conv=0.20D-08     -V/T= 2.0082
 <Sx>= 0.0000 <Sy>= 0.0000 <Sz>= 0.5000 <S**2>= 0.7529 S= 0.5014
 <L.S>=  0.00000000000    
 Annihilation of the first spin contaminant:
 S**2 before annihilation     0.7529,   after     0.7500

 **********************************************************************

            Population analysis using the SCF Density.

 **********************************************************************

 Orbital symmetries:
 Alpha Orbitals:
       Occupied  (SG) (SG) (SG) (PI) (PI)
       Virtual   (SG) (PI) (SG) (PI) (SG) (SG) (PI) (PI) (SG) (SG)
                 (PI) (PI) (DLTA) (DLTA) (SG) (PI) (PI) (SG) (SG)
 Beta  Orbitals:
       Occupied  (SG) (SG) (SG) (?A)
       Virtual   (?A) (SG) (SG) (?A) (?A) (SG) (SG) (PI) (SG) (PI)
                 (SG) (PI) (PI) (DLTA) (DLTA) (SG) (PI) (PI) (SG)
                 (SG)
 Unable to determine electronic state:  an orbital has unidentified symmetry.
 Alpha  occ. eigenvalues --  -19.72299  -1.14582  -0.56445  -0.50292  -0.43852
 Alpha virt. eigenvalues --    0.07911   0.17126   0.17129   0.17715   0.24873
 Alpha virt. eigenvalues --    0.97370   1.12074   1.16881   1.18026   1.23775
 Alpha virt. eigenvalues --    1.56651   1.59363   1.80010   1.80148   2.39074
 Alpha virt. eigenvalues --    2.61629   2.63621   3.34505   3.78616
  Beta  occ. eigenvalues --  -19.70620  -1.06390  -0.53204  -0.40221
  Beta virt. eigenvalues --   -0.10676   0.07561   0.17080   0.18200   0.18298
  Beta virt. eigenvalues --    0.24965   0.99155   1.18356   1.18932   1.19861
  Beta virt. eigenvalues --    1.24473   1.60755   1.60782   1.85045   1.86761
  Beta virt. eigenvalues --    2.41378   2.63234   2.64035   3.35799   3.82288
          Condensed to atoms (all electrons):
               1          2
     1  O    8.126938   0.228770
     2  H    0.228770   0.415522
          Atomic-Atomic Spin Densities.
               1          2
     1  O    1.027108   0.002200
     2  H    0.002200  -0.031507
 Mulliken charges and spin densities:
               1          2
     1  O   -0.355708   1.029308
     2  H    0.355708  -0.029308
 Sum of Mulliken charges =  -0.00000   1.00000
 Mulliken charges and spin densities with hydrogens summed into heavy atoms:
               1          2
     1  O   -0.000000   1.000000
 Electronic spatial extent (au):  <R**2>=             15.7430
 Charge=              0.0000 electrons
 Dipole moment (field-independent basis, Debye):
    X=              0.0000    Y=              0.0000    Z=             -1.8905  Tot=              1.8905
 Quadrupole moment (field-independent basis, Debye-Ang):
   XX=             -5.5445   YY=             -6.8933   ZZ=             -4.6510
   XY=              0.0000   XZ=              0.0000   YZ=              0.0000
 Traceless Quadrupole moment (field-independent basis, Debye-Ang):
   XX=              0.1518   YY=             -1.1971   ZZ=              1.0453
   XY=              0.0000   XZ=              0.0000   YZ=              0.0000
 Octapole moment (field-independent basis, Debye-Ang**2):
  XXX=              0.0000  YYY=              0.0000  ZZZ=             -2.1934  XYY=              0.0000
  XXY=              0.0000  XXZ=             -0.2647  XZZ=              0.0000  YZZ=              0.0000
  YYZ=             -0.3887  XYZ=              0.0000
 Hexadecapole moment (field-independent basis, Debye-Ang**3):
 XXXX=             -4.0847 YYYY=             -6.3189 ZZZZ=             -5.6835 XXXY=              0.0000
 XXXZ=              0.0000 YYYX=              0.0000 YYYZ=              0.0000 ZZZX=              0.0000
 ZZZY=              0.0000 XXYY=             -1.7339 XXZZ=             -1.8630 YYZZ=             -2.2525
 XXYZ=              0.0000 YYXZ=              0.0000 ZZXY=              0.0000
 N-N= 4.327409011081D+00 E-N=-1.875527269195D+02  KE= 7.508651135574D+01
 Symmetry A1   KE= 6.793630510824D+01
 Symmetry A2   KE= 1.708702300956D-35
 Symmetry B1   KE= 2.479623215217D+00
 Symmetry B2   KE= 4.670583032275D+00
 Symmetry A1   SP= 9.141111804133D-15
 Symmetry A2   SP= 4.276300555155D-36
 Symmetry B1   SP= 1.000000000000D+00
 Symmetry B2   SP= 3.946407816421D-15
                          Isotropic Fermi Contact Couplings
        Atom                 a.u.       MegaHertz       Gauss      10(-4) cm-1
     1  O(17)              0.15401     -93.36177     -33.31380     -31.14213
     2  H(1)              -0.01548     -69.17176     -24.68220     -23.07322
 --------------------------------------------------------
       Center         ----  Spin Dipole Couplings  ----
                      3XX-RR        3YY-RR        3ZZ-RR
 --------------------------------------------------------
     1   Atom        3.492400     -1.744185     -1.748215
     2   Atom       -0.040886     -0.132520      0.173407
 --------------------------------------------------------
                        XY            XZ            YZ
 --------------------------------------------------------
     1   Atom        0.000000      0.000000      0.000000
     2   Atom        0.000000      0.000000      0.000000
 --------------------------------------------------------


 ---------------------------------------------------------------------------------
              Anisotropic Spin Dipole Couplings in Principal Axis System
 ---------------------------------------------------------------------------------

       Atom             a.u.   MegaHertz   Gauss  10(-4) cm-1        Axes

              Baa    -1.7482   126.500    45.138    42.196  0.0000  0.0000  1.0000
     1 O(17)  Bbb    -1.7442   126.208    45.034    42.098 -0.0000  1.0000  0.0000
              Bcc     3.4924  -252.708   -90.172   -84.294  1.0000  0.0000  0.0000
 
              Baa    -0.1325   -70.707   -25.230   -23.585 -0.0000  1.0000  0.0000
     2 H(1)   Bbb    -0.0409   -21.815    -7.784    -7.277  1.0000  0.0000  0.0000
              Bcc     0.1734    92.522    33.014    30.862  0.0000  0.0000  1.0000
 

 ---------------------------------------------------------------------------------

 Calling FoFJK, ICntrl=      2127 FMM=F ISym2X=1 I1Cent= 0 IOpClX= 1 NMat=1 NMatS=1 NMatT=0.
 ***** Axes restored to original set *****
 -------------------------------------------------------------------
 Center     Atomic                   Forces (Hartrees/Bohr)
 Number     Number              X              Y              Z
 -------------------------------------------------------------------
      1        8          -0.000000000   -0.000000000   -0.002497792
      2        1          -0.000000000   -0.000000000    0.002497792
 -------------------------------------------------------------------
 Cartesian Forces:  Max     0.002497792 RMS     0.001442101

 GradGradGradGradGradGradGradGradGradGradGradGradGradGradGradGradGradGrad
 Berny optimization.
 FormGI is forming the generalized inverse of G from B-inverse, IUseBI=4.
 Internal  Forces:  Max     0.002497792 RMS     0.002497792
 Search for a local minimum.
 Step number   1 out of a maximum of   20
 All quantities printed in internal units (Hartrees-Bohrs-Radians)
 Mixed Optimization -- RFO/linear search
 Second derivative matrix not updated -- first step.
 The second derivative matrix:
                          R1
           R1           0.51720
 ITU=  0
     Eigenvalues ---    0.51720
 RFO step:  Lambda=-1.20626120D-05 EMin= 5.17203100D-01
 Linear search not attempted -- first point.
 Iteration  1 RMS(Cart)=  0.00341484 RMS(Int)=  0.00000000
 Iteration  2 RMS(Cart)=  0.00000000 RMS(Int)=  0.00000000
 ClnCor:  largest displacement from symmetrization is 0.00D+00 for atom     0.
 Variable       Old X    -DE/DX   Delta X   Delta X   Delta X     New X
                                 (Linear)    (Quad)   (Total)
    R1        1.84868  -0.00250   0.00000  -0.00483  -0.00483   1.84385
         Item               Value     Threshold  Converged?
 Maximum Force            0.002498     0.000450     NO 
 RMS     Force            0.002498     0.000300     NO 
 Maximum Displacement     0.002415     0.001800     NO 
 RMS     Displacement     0.003415     0.001200     NO 
 Predicted change in Energy=-6.031447D-06
 GradGradGradGradGradGradGradGradGradGradGradGradGradGradGradGradGradGrad

                          Input orientation:                          
 ---------------------------------------------------------------------
 Center     Atomic      Atomic             Coordinates (Angstroms)
 Number     Number       Type             X           Y           Z
 ---------------------------------------------------------------------
      1          8           0        0.000000    0.000000    0.107420
      2          1           0        0.000000    0.000000   -0.868304
 ---------------------------------------------------------------------
 Stoichiometry    HO(2)
 Framework group  C*V[C*(HO)]
 Deg. of freedom     1
 Full point group                 C*V     NOp   4
 Largest Abelian subgroup         C2V     NOp   4
 Largest concise Abelian subgroup C1      NOp   1
                         Standard orientation:                         
 ---------------------------------------------------------------------
 Center     Atomic      Atomic             Coordinates (Angstroms)
 Number     Number       Type             X           Y           Z
 ---------------------------------------------------------------------
      1          8           0        0.000000    0.000000    0.108414
      2          1           0        0.000000    0.000000   -0.867311
 ---------------------------------------------------------------------
 Rotational constants (GHZ):           0.0000000         559.9054169         559.9054169
 Standard basis: 6-31+G(d,p) (6D, 7F)
 There are    13 symmetry adapted cartesian basis functions of A1  symmetry.
 There are     1 symmetry adapted cartesian basis functions of A2  symmetry.
 There are     5 symmetry adapted cartesian basis functions of B1  symmetry.
 There are     5 symmetry adapted cartesian basis functions of B2  symmetry.
 There are    13 symmetry adapted basis functions of A1  symmetry.
 There are     1 symmetry adapted basis functions of A2  symmetry.
 There are     5 symmetry adapted basis functions of B1  symmetry.
 There are     5 symmetry adapted basis functions of B2  symmetry.
    24 basis functions,    39 primitive gaussians,    24 cartesian basis functions
     5 alpha electrons        4 beta electrons
       nuclear repulsion energy         4.3387431088 Hartrees.
 NAtoms=    2 NActive=    2 NUniq=    2 SFac= 1.00D+00 NAtFMM=   60 NAOKFM=F Big=F
 Integral buffers will be    131072 words long.
 Raffenetti 2 integral format.
 Two-electron integral symmetry is turned on.
 One-electron integrals computed using PRISM.
 NBasis=    24 RedAO= T EigKep=  2.28D-02  NBF=    13     1     5     5
 NBsUse=    24 1.00D-06 EigRej= -1.00D+00 NBFU=    13     1     5     5
 Initial guess from the checkpoint file:  "/home/gau/soft/scratch/Gau-98419.chk"
 B after Tr=     0.000000    0.000000    0.000000
         Rot=    1.000000    0.000000    0.000000    0.000000 Ang=   0.00 deg.
 Initial guess orbital symmetries:
 Alpha Orbitals:
       Occupied  (SG) (SG) (SG) (PI) (PI)
       Virtual   (SG) (PI) (SG) (PI) (SG) (SG) (PI) (PI) (SG) (SG)
                 (PI) (PI) (DLTA) (DLTA) (SG) (PI) (PI) (SG) (SG)
 Beta  Orbitals:
       Occupied  (SG) (SG) (SG) (?A)
       Virtual   (?A) (SG) (SG) (?A) (?A) (SG) (SG) (PI) (SG) (PI)
                 (SG) (PI) (PI) (DLTA) (DLTA) (SG) (PI) (PI) (SG)
                 (SG)
 Initial guess <Sx>= 0.0000 <Sy>= 0.0000 <Sz>= 0.5000 <S**2>= 0.7528 S= 0.5014
 Keep R1 and R2 ints in memory in symmetry-blocked form, NReq=41519010.
 Requested convergence on RMS density matrix=1.00D-08 within 128 cycles.
 Requested convergence on MAX density matrix=1.00D-06.
 Requested convergence on             energy=1.00D-06.
 No special actions if energy rises.
 SCF Done:  E(UM062X) =  -75.7017506207     A.U. after    8 cycles
            NFock=  8  Conv=0.19D-08     -V/T= 2.0081
 <Sx>= 0.0000 <Sy>= 0.0000 <Sz>= 0.5000 <S**2>= 0.7528 S= 0.5014
 <L.S>=  0.00000000000    
 Annihilation of the first spin contaminant:
 S**2 before annihilation     0.7528,   after     0.7500
 Calling FoFJK, ICntrl=      2127 FMM=F ISym2X=1 I1Cent= 0 IOpClX= 1 NMat=1 NMatS=1 NMatT=0.
 ***** Axes restored to original set *****
 -------------------------------------------------------------------
 Center     Atomic                   Forces (Hartrees/Bohr)
 Number     Number              X              Y              Z
 -------------------------------------------------------------------
      1        8          -0.000000000   -0.000000000   -0.000044405
      2        1          -0.000000000   -0.000000000    0.000044405
 -------------------------------------------------------------------
 Cartesian Forces:  Max     0.000044405 RMS     0.000025637

 GradGradGradGradGradGradGradGradGradGradGradGradGradGradGradGradGradGrad
 Berny optimization.
 Using GEDIIS/GDIIS optimizer.
 Internal  Forces:  Max     0.000044405 RMS     0.000044405
 Search for a local minimum.
 Step number   2 out of a maximum of   20
 All quantities printed in internal units (Hartrees-Bohrs-Radians)
 Mixed Optimization -- En-DIIS/RFO-DIIS
 Update second derivatives using D2CorX and points    1    2
 DE= -6.16D-06 DEPred=-6.03D-06 R= 1.02D+00
 TightC=F SS=  1.41D+00  RLast= 4.83D-03 DXNew= 5.0454D-01 1.4488D-02
 Trust test= 1.02D+00 RLast= 4.83D-03 DXMaxT set to 3.00D-01
 The second derivative matrix:
                          R1
           R1           0.50802
 ITU=  1  0
 Use linear search instead of GDIIS.
     Eigenvalues ---    0.50802
 RFO step:  Lambda= 0.00000000D+00 EMin= 5.08020324D-01
 Quartic linear search produced a step of  0.01793.
 Iteration  1 RMS(Cart)=  0.00006124 RMS(Int)=  0.00000000
 Iteration  2 RMS(Cart)=  0.00000000 RMS(Int)=  0.00000000
 ClnCor:  largest displacement from symmetrization is 0.00D+00 for atom     0.
 Variable       Old X    -DE/DX   Delta X   Delta X   Delta X     New X
                                 (Linear)    (Quad)   (Total)
    R1        1.84385  -0.00004  -0.00009   0.00000  -0.00009   1.84377
         Item               Value     Threshold  Converged?
 Maximum Force            0.000044     0.000450     YES
 RMS     Force            0.000044     0.000300     YES
 Maximum Displacement     0.000043     0.001800     YES
 RMS     Displacement     0.000061     0.001200     YES
 Predicted change in Energy=-1.940489D-09
 Optimization completed.
    -- Stationary point found.
                           ----------------------------
                           !   Optimized Parameters   !
                           ! (Angstroms and Degrees)  !
 --------------------------                            --------------------------
 ! Name  Definition              Value          Derivative Info.                !
 --------------------------------------------------------------------------------
 ! R1    R(1,2)                  0.9757         -DE/DX =    0.0                 !
 --------------------------------------------------------------------------------
 GradGradGradGradGradGradGradGradGradGradGradGradGradGradGradGradGradGrad

                          Input orientation:                          
 ---------------------------------------------------------------------
 Center     Atomic      Atomic             Coordinates (Angstroms)
 Number     Number       Type             X           Y           Z
 ---------------------------------------------------------------------
      1          8           0        0.000000    0.000000    0.107420
      2          1           0        0.000000    0.000000   -0.868304
 ---------------------------------------------------------------------
 Stoichiometry    HO(2)
 Framework group  C*V[C*(HO)]
 Deg. of freedom     1
 Full point group                 C*V     NOp   4
 Largest Abelian subgroup         C2V     NOp   4
 Largest concise Abelian subgroup C1      NOp   1
                         Standard orientation:                         
 ---------------------------------------------------------------------
 Center     Atomic      Atomic             Coordinates (Angstroms)
 Number     Number       Type             X           Y           Z
 ---------------------------------------------------------------------
      1          8           0        0.000000    0.000000    0.108414
      2          1           0        0.000000    0.000000   -0.867311
 ---------------------------------------------------------------------
 Rotational constants (GHZ):           0.0000000         559.9054169         559.9054169

 **********************************************************************

            Population analysis using the SCF Density.

 **********************************************************************

 Orbital symmetries:
 Alpha Orbitals:
       Occupied  (SG) (SG) (SG) (PI) (PI)
       Virtual   (SG) (PI) (SG) (PI) (SG) (SG) (PI) (PI) (SG) (SG)
                 (PI) (PI) (DLTA) (DLTA) (SG) (PI) (PI) (SG) (SG)
 Beta  Orbitals:
       Occupied  (SG) (SG) (SG) (?A)
       Virtual   (?A) (SG) (SG) (?A) (?A) (SG) (SG) (PI) (SG) (PI)
                 (SG) (PI) (PI) (DLTA) (DLTA) (SG) (PI) (PI) (SG)
                 (SG)
 Unable to determine electronic state:  an orbital has unidentified symmetry.
 Alpha  occ. eigenvalues --  -19.72282  -1.14653  -0.56493  -0.50303  -0.43864
 Alpha virt. eigenvalues --    0.07938   0.17125   0.17127   0.17714   0.24962
 Alpha virt. eigenvalues --    0.97575   1.12076   1.16884   1.17930   1.23764
 Alpha virt. eigenvalues --    1.56667   1.59382   1.79998   1.80136   2.39537
 Alpha virt. eigenvalues --    2.61942   2.63936   3.34885   3.78723
  Beta  occ. eigenvalues --  -19.70603  -1.06468  -0.53249  -0.40235
  Beta virt. eigenvalues --   -0.10687   0.07573   0.17077   0.18196   0.18295
  Beta virt. eigenvalues --    0.25068   0.99365   1.18358   1.18831   1.19861
  Beta virt. eigenvalues --    1.24462   1.60778   1.60805   1.85033   1.86749
  Beta virt. eigenvalues --    2.41840   2.63546   2.64347   3.36202   3.82374
          Condensed to atoms (all electrons):
               1          2
     1  O    8.126656   0.229098
     2  H    0.229098   0.415147
          Atomic-Atomic Spin Densities.
               1          2
     1  O    1.026915   0.002216
     2  H    0.002216  -0.031347
 Mulliken charges and spin densities:
               1          2
     1  O   -0.355755   1.029131
     2  H    0.355755  -0.029131
 Sum of Mulliken charges =   0.00000   1.00000
 Mulliken charges and spin densities with hydrogens summed into heavy atoms:
               1          2
     1  O    0.000000   1.000000
 Electronic spatial extent (au):  <R**2>=             15.7266
 Charge=              0.0000 electrons
 Dipole moment (field-independent basis, Debye):
    X=              0.0000    Y=              0.0000    Z=             -1.8888  Tot=              1.8888
 Quadrupole moment (field-independent basis, Debye-Ang):
   XX=             -5.5419   YY=             -6.8905   ZZ=             -4.6557
   XY=              0.0000   XZ=              0.0000   YZ=              0.0000
 Traceless Quadrupole moment (field-independent basis, Debye-Ang):
   XX=              0.1541   YY=             -1.1945   ZZ=              1.0403
   XY=              0.0000   XZ=              0.0000   YZ=              0.0000
 Octapole moment (field-independent basis, Debye-Ang**2):
  XXX=              0.0000  YYY=              0.0000  ZZZ=             -2.1868  XYY=              0.0000
  XXY=              0.0000  XXZ=             -0.2664  XZZ=              0.0000  YZZ=              0.0000
  YYZ=             -0.3899  XYZ=              0.0000
 Hexadecapole moment (field-independent basis, Debye-Ang**3):
 XXXX=             -4.0815 YYYY=             -6.3147 ZZZZ=             -5.6751 XXXY=              0.0000
 XXXZ=              0.0000 YYYX=              0.0000 YYYZ=              0.0000 ZZZX=              0.0000
 ZZZY=              0.0000 XXYY=             -1.7327 XXZZ=             -1.8587 YYZZ=             -2.2479
 XXYZ=              0.0000 YYXZ=              0.0000 ZZXY=              0.0000
 N-N= 4.338743108755D+00 E-N=-1.875769952483D+02  KE= 7.509097082968D+01
 Symmetry A1   KE= 6.794091299072D+01
 Symmetry A2   KE= 1.708864210089D-35
 Symmetry B1   KE= 2.479531881383D+00
 Symmetry B2   KE= 4.670525957575D+00
 Symmetry A1   SP=-1.049822121596D-14
 Symmetry A2   SP= 4.274456110456D-36
 Symmetry B1   SP= 1.000000000000D+00
 Symmetry B2   SP=-3.487607338343D-16
                          Isotropic Fermi Contact Couplings
        Atom                 a.u.       MegaHertz       Gauss      10(-4) cm-1
     1  O(17)              0.15415     -93.44392     -33.34312     -31.16954
     2  H(1)              -0.01544     -69.01115     -24.62489     -23.01964
 --------------------------------------------------------
       Center         ----  Spin Dipole Couplings  ----
                      3XX-RR        3YY-RR        3ZZ-RR
 --------------------------------------------------------
     1   Atom        3.492597     -1.743781     -1.748816
     2   Atom       -0.040776     -0.133327      0.174103
 --------------------------------------------------------
                        XY            XZ            YZ
 --------------------------------------------------------
     1   Atom        0.000000      0.000000      0.000000
     2   Atom        0.000000      0.000000      0.000000
 --------------------------------------------------------


 ---------------------------------------------------------------------------------
              Anisotropic Spin Dipole Couplings in Principal Axis System
 ---------------------------------------------------------------------------------

       Atom             a.u.   MegaHertz   Gauss  10(-4) cm-1        Axes

              Baa    -1.7488   126.543    45.154    42.210  0.0000  0.0000  1.0000
     1 O(17)  Bbb    -1.7438   126.179    45.024    42.089 -0.0000  1.0000  0.0000
              Bcc     3.4926  -252.722   -90.177   -84.299  1.0000  0.0000  0.0000
 
              Baa    -0.1333   -71.137   -25.383   -23.729 -0.0000  1.0000  0.0000
     2 H(1)   Bbb    -0.0408   -21.756    -7.763    -7.257  1.0000  0.0000  0.0000
              Bcc     0.1741    92.893    33.147    30.986  0.0000  0.0000  1.0000
 

 ---------------------------------------------------------------------------------

 Unable to Open any file for archive entry.
 1\1\GINC-NODE01\FOpt\UM062X\6-31+G(d,p)\H1O1(2)\GAU\08-Dec-2023\0\\# o
 pt freq 6-31+g(d,p) m062x\\"Sketch 3"\\0,2\O,0.,0.,0.1074202197\H,0.,0
 .,-0.8683042197\\Version=ES64L-G16RevC.01\HF=-75.7017506\S2=0.75284\S2
 -1=0.\S2A=0.750006\RMSD=1.919e-09\RMSF=2.564e-05\Dipole=0.,0.,-0.74310
 22\Quadrupole=0.1145832,-0.8880531,0.7734699,0.,0.,0.\PG=C*V [C*(H1O1)
 ]\\@
 The archive entry for this job was punched.


 NO MATTER HOW THIN YOU SLICE IT, IT'S STILL BALONEY

                                   -- ALFRED E. SMITH
 Job cpu time:       0 days  0 hours  1 minutes 34.7 seconds.
 Elapsed time:       0 days  0 hours  0 minutes  2.3 seconds.
 File lengths (MBytes):  RWF=      6 Int=      0 D2E=      0 Chk=      1 Scr=      1
 Normal termination of Gaussian 16 at Fri Dec  8 07:31:50 2023.
 Link1:  Proceeding to internal job step number  2.
 ----------------------------------------------------------------------
 #N Geom=AllCheck Guess=TCheck SCRF=Check GenChk UM062X/6-31+G(d,p) Fre
 q
 ----------------------------------------------------------------------
 1/10=4,29=7,30=1,38=1,40=1/1,3;
 2/12=2,40=1/2;
 3/5=1,6=6,7=111,11=2,14=-4,25=1,30=1,70=2,71=2,74=-55,116=2,140=1/1,2,3;
 4/5=101/1;
 5/5=2,38=6,98=1/2;
 8/6=4,10=90,11=11/1;
 11/6=1,8=1,9=11,15=111,16=1/1,2,10;
 10/6=1/2;
 6/7=2,8=2,9=2,10=2,28=1/1;
 7/8=1,10=1,25=1/1,2,3,16;
 1/10=4,30=1/3;
 99//99;
 Structure from the checkpoint file:  "/home/gau/soft/scratch/Gau-98419.chk"
 ----------
 "Sketch 3"
 ----------
 Charge =  0 Multiplicity = 2
 Redundant internal coordinates found in file.  (old form).
 O,0,0.,0.,0.1074202197
 H,0,0.,0.,-0.8683042197
 Recover connectivity data from disk.

 GradGradGradGradGradGradGradGradGradGradGradGradGradGradGradGradGradGrad
 Berny optimization.
 Initialization pass.
                           ----------------------------
                           !    Initial Parameters    !
                           ! (Angstroms and Degrees)  !
 --------------------------                            --------------------------
 ! Name  Definition              Value          Derivative Info.                !
 --------------------------------------------------------------------------------
 ! R1    R(1,2)                  0.9757         calculate D2E/DX2 analytically  !
 --------------------------------------------------------------------------------
 Trust Radius=3.00D-01 FncErr=1.00D-07 GrdErr=1.00D-07 EigMax=2.50D+02 EigMin=1.00D-04
 Number of steps in this run=      2 maximum allowed number of steps=      2.
 GradGradGradGradGradGradGradGradGradGradGradGradGradGradGradGradGradGrad

                          Input orientation:                          
 ---------------------------------------------------------------------
 Center     Atomic      Atomic             Coordinates (Angstroms)
 Number     Number       Type             X           Y           Z
 ---------------------------------------------------------------------
      1          8           0        0.000000    0.000000    0.107420
      2          1           0        0.000000    0.000000   -0.868304
 ---------------------------------------------------------------------
 Stoichiometry    HO(2)
 Framework group  C*V[C*(HO)]
 Deg. of freedom     1
 Full point group                 C*V     NOp   4
 Largest Abelian subgroup         C2V     NOp   4
 Largest concise Abelian subgroup C1      NOp   1
                         Standard orientation:                         
 ---------------------------------------------------------------------
 Center     Atomic      Atomic             Coordinates (Angstroms)
 Number     Number       Type             X           Y           Z
 ---------------------------------------------------------------------
      1          8           0        0.000000    0.000000    0.108414
      2          1           0        0.000000    0.000000   -0.867311
 ---------------------------------------------------------------------
 Rotational constants (GHZ):           0.0000000         559.9054169         559.9054169
 Standard basis: 6-31+G(d,p) (6D, 7F)
 There are    13 symmetry adapted cartesian basis functions of A1  symmetry.
 There are     1 symmetry adapted cartesian basis functions of A2  symmetry.
 There are     5 symmetry adapted cartesian basis functions of B1  symmetry.
 There are     5 symmetry adapted cartesian basis functions of B2  symmetry.
 There are    13 symmetry adapted basis functions of A1  symmetry.
 There are     1 symmetry adapted basis functions of A2  symmetry.
 There are     5 symmetry adapted basis functions of B1  symmetry.
 There are     5 symmetry adapted basis functions of B2  symmetry.
    24 basis functions,    39 primitive gaussians,    24 cartesian basis functions
     5 alpha electrons        4 beta electrons
       nuclear repulsion energy         4.3387431088 Hartrees.
 NAtoms=    2 NActive=    2 NUniq=    2 SFac= 1.00D+00 NAtFMM=   60 NAOKFM=F Big=F
 Integral buffers will be    131072 words long.
 Raffenetti 2 integral format.
 Two-electron integral symmetry is turned on.
 One-electron integrals computed using PRISM.
 NBasis=    24 RedAO= T EigKep=  2.28D-02  NBF=    13     1     5     5
 NBsUse=    24 1.00D-06 EigRej= -1.00D+00 NBFU=    13     1     5     5
 Initial guess from the checkpoint file:  "/home/gau/soft/scratch/Gau-98419.chk"
 B after Tr=     0.000000    0.000000    0.000000
         Rot=    1.000000    0.000000    0.000000    0.000000 Ang=   0.00 deg.
 Initial guess orbital symmetries:
 Alpha Orbitals:
       Occupied  (SG) (SG) (SG) (PI) (PI)
       Virtual   (SG) (PI) (SG) (PI) (SG) (SG) (PI) (PI) (SG) (SG)
                 (PI) (PI) (DLTA) (DLTA) (SG) (PI) (PI) (SG) (SG)
 Beta  Orbitals:
       Occupied  (SG) (SG) (SG) (?A)
       Virtual   (?A) (SG) (SG) (?A) (?A) (SG) (SG) (PI) (SG) (PI)
                 (SG) (PI) (PI) (DLTA) (DLTA) (SG) (PI) (PI) (SG)
                 (SG)
 Initial guess <Sx>= 0.0000 <Sy>= 0.0000 <Sz>= 0.5000 <S**2>= 0.7528 S= 0.5014
 Keep R1 and R2 ints in memory in symmetry-blocked form, NReq=41519010.
 Requested convergence on RMS density matrix=1.00D-08 within 128 cycles.
 Requested convergence on MAX density matrix=1.00D-06.
 Requested convergence on             energy=1.00D-06.
 No special actions if energy rises.
 SCF Done:  E(UM062X) =  -75.7017506207     A.U. after    1 cycles
            NFock=  1  Conv=0.20D-09     -V/T= 2.0081
 <Sx>= 0.0000 <Sy>= 0.0000 <Sz>= 0.5000 <S**2>= 0.7528 S= 0.5014
 <L.S>=  0.00000000000    
 Annihilation of the first spin contaminant:
 S**2 before annihilation     0.7528,   after     0.7500
 DoSCS=F DFT=T ScalE2(SS,OS)=  1.000000  1.000000
 Range of M.O.s used for correlation:     1    24
 NBasis=    24 NAE=     5 NBE=     4 NFC=     0 NFV=     0
 NROrb=     24 NOA=     5 NOB=     4 NVA=    19 NVB=    20
 Symmetrizing basis deriv contribution to polar:
 IMax=3 JMax=2 DiffMx= 0.00D+00
 G2DrvN: will do     3 centers at a time, making    1 passes.
 Calling FoFCou, ICntrl=  3107 FMM=F I1Cent=   0 AccDes= 0.00D+00.
 End of G2Drv F.D. properties file   721 does not exist.
 End of G2Drv F.D. properties file   722 does not exist.
 End of G2Drv F.D. properties file   788 does not exist.
          IDoAtm=11
          Differentiating once with respect to electric field.
                with respect to dipole field.
          Differentiating once with respect to nuclear coordinates.
 Keep R1 and R2 ints in memory in symmetry-blocked form, NReq=41352567.
          There are     9 degrees of freedom in the 1st order CPHF.  IDoFFX=6 NUNeed=     3.
      6 vectors produced by pass  0 Test12= 1.94D-15 1.11D-08 XBig12= 4.06D+00 9.97D-01.
 AX will form     6 AO Fock derivatives at one time.
      6 vectors produced by pass  1 Test12= 1.94D-15 1.11D-08 XBig12= 3.71D-01 2.22D-01.
      6 vectors produced by pass  2 Test12= 1.94D-15 1.11D-08 XBig12= 7.00D-03 3.29D-02.
      6 vectors produced by pass  3 Test12= 1.94D-15 1.11D-08 XBig12= 5.62D-05 3.27D-03.
      6 vectors produced by pass  4 Test12= 1.94D-15 1.11D-08 XBig12= 1.42D-06 4.38D-04.
      6 vectors produced by pass  5 Test12= 1.94D-15 1.11D-08 XBig12= 1.38D-08 3.54D-05.
      4 vectors produced by pass  6 Test12= 1.94D-15 1.11D-08 XBig12= 7.27D-11 2.80D-06.
      2 vectors produced by pass  7 Test12= 1.94D-15 1.11D-08 XBig12= 6.07D-13 3.39D-07.
      1 vectors produced by pass  8 Test12= 1.94D-15 1.11D-08 XBig12= 1.94D-15 1.72D-08.
 InvSVY:  IOpt=1 It=  1 EMax= 4.44D-16
 Solved reduced A of dimension    43 with     6 vectors.
 Isotropic polarizability for W=    0.000000        4.93 Bohr**3.
 End of Minotr F.D. properties file   721 does not exist.
 End of Minotr F.D. properties file   722 does not exist.
 End of Minotr F.D. properties file   788 does not exist.

 **********************************************************************

            Population analysis using the SCF Density.

 **********************************************************************

 Orbital symmetries:
 Alpha Orbitals:
       Occupied  (SG) (SG) (SG) (PI) (PI)
       Virtual   (SG) (PI) (SG) (PI) (SG) (SG) (PI) (PI) (SG) (SG)
                 (PI) (PI) (DLTA) (DLTA) (SG) (PI) (PI) (SG) (SG)
 Beta  Orbitals:
       Occupied  (SG) (SG) (SG) (?A)
       Virtual   (?A) (SG) (SG) (?A) (?A) (SG) (SG) (PI) (SG) (PI)
                 (SG) (PI) (PI) (DLTA) (DLTA) (SG) (PI) (PI) (SG)
                 (SG)
 Unable to determine electronic state:  an orbital has unidentified symmetry.
 Alpha  occ. eigenvalues --  -19.72282  -1.14653  -0.56493  -0.50303  -0.43864
 Alpha virt. eigenvalues --    0.07938   0.17125   0.17127   0.17714   0.24962
 Alpha virt. eigenvalues --    0.97575   1.12076   1.16884   1.17930   1.23764
 Alpha virt. eigenvalues --    1.56667   1.59382   1.79998   1.80136   2.39537
 Alpha virt. eigenvalues --    2.61942   2.63936   3.34885   3.78723
  Beta  occ. eigenvalues --  -19.70603  -1.06468  -0.53249  -0.40235
  Beta virt. eigenvalues --   -0.10687   0.07573   0.17077   0.18196   0.18295
  Beta virt. eigenvalues --    0.25068   0.99365   1.18358   1.18831   1.19861
  Beta virt. eigenvalues --    1.24462   1.60778   1.60805   1.85033   1.86749
  Beta virt. eigenvalues --    2.41840   2.63546   2.64347   3.36202   3.82374
          Condensed to atoms (all electrons):
               1          2
     1  O    8.126656   0.229098
     2  H    0.229098   0.415147
          Atomic-Atomic Spin Densities.
               1          2
     1  O    1.026915   0.002216
     2  H    0.002216  -0.031347
 Mulliken charges and spin densities:
               1          2
     1  O   -0.355755   1.029131
     2  H    0.355755  -0.029131
 Sum of Mulliken charges =  -0.00000   1.00000
 Mulliken charges and spin densities with hydrogens summed into heavy atoms:
               1          2
     1  O   -0.000000   1.000000
 APT charges:
               1
     1  O   -0.315273
     2  H    0.315273
 Sum of APT charges =  -0.00000
 APT charges with hydrogens summed into heavy atoms:
               1
     1  O   -0.000000
 Electronic spatial extent (au):  <R**2>=             15.7266
 Charge=             -0.0000 electrons
 Dipole moment (field-independent basis, Debye):
    X=              0.0000    Y=              0.0000    Z=             -1.8888  Tot=              1.8888
 Quadrupole moment (field-independent basis, Debye-Ang):
   XX=             -5.5419   YY=             -6.8905   ZZ=             -4.6557
   XY=              0.0000   XZ=              0.0000   YZ=              0.0000
 Traceless Quadrupole moment (field-independent basis, Debye-Ang):
   XX=              0.1541   YY=             -1.1945   ZZ=              1.0403
   XY=              0.0000   XZ=              0.0000   YZ=              0.0000
 Octapole moment (field-independent basis, Debye-Ang**2):
  XXX=              0.0000  YYY=              0.0000  ZZZ=             -2.1868  XYY=              0.0000
  XXY=              0.0000  XXZ=             -0.2664  XZZ=              0.0000  YZZ=              0.0000
  YYZ=             -0.3899  XYZ=              0.0000
 Hexadecapole moment (field-independent basis, Debye-Ang**3):
 XXXX=             -4.0815 YYYY=             -6.3147 ZZZZ=             -5.6751 XXXY=              0.0000
 XXXZ=              0.0000 YYYX=              0.0000 YYYZ=              0.0000 ZZZX=              0.0000
 ZZZY=              0.0000 XXYY=             -1.7327 XXZZ=             -1.8587 YYZZ=             -2.2479
 XXYZ=              0.0000 YYXZ=              0.0000 ZZXY=              0.0000
 N-N= 4.338743108755D+00 E-N=-1.875769952203D+02  KE= 7.509097081423D+01
 Symmetry A1   KE= 6.794091297443D+01
 Symmetry A2   KE= 1.708864239183D-35
 Symmetry B1   KE= 2.479531884981D+00
 Symmetry B2   KE= 4.670525954815D+00
 Symmetry A1   SP=-2.438045425268D-15
 Symmetry A2   SP= 4.274456126446D-36
 Symmetry B1   SP= 1.000000000000D+00
 Symmetry B2   SP=-5.461566799942D-16
  Exact polarizability:       3.584       0.000       4.566       0.000      -0.000       6.632
 Approx polarizability:       3.325      -0.000       3.970      -0.000      -0.000       6.721
                          Isotropic Fermi Contact Couplings
        Atom                 a.u.       MegaHertz       Gauss      10(-4) cm-1
     1  O(17)              0.15415     -93.44393     -33.34312     -31.16954
     2  H(1)              -0.01544     -69.01114     -24.62489     -23.01964
 --------------------------------------------------------
       Center         ----  Spin Dipole Couplings  ----
                      3XX-RR        3YY-RR        3ZZ-RR
 --------------------------------------------------------
     1   Atom        3.492597     -1.743781     -1.748816
     2   Atom       -0.040776     -0.133327      0.174103
 --------------------------------------------------------
                        XY            XZ            YZ
 --------------------------------------------------------
     1   Atom        0.000000      0.000000      0.000000
     2   Atom        0.000000      0.000000      0.000000
 --------------------------------------------------------


 ---------------------------------------------------------------------------------
              Anisotropic Spin Dipole Couplings in Principal Axis System
 ---------------------------------------------------------------------------------

       Atom             a.u.   MegaHertz   Gauss  10(-4) cm-1        Axes

              Baa    -1.7488   126.543    45.154    42.210  0.0000  0.0000  1.0000
     1 O(17)  Bbb    -1.7438   126.179    45.024    42.089 -0.0000  1.0000  0.0000
              Bcc     3.4926  -252.722   -90.177   -84.299  1.0000  0.0000  0.0000
 
              Baa    -0.1333   -71.137   -25.383   -23.729 -0.0000  1.0000  0.0000
     2 H(1)   Bbb    -0.0408   -21.756    -7.763    -7.257  1.0000  0.0000  0.0000
              Bcc     0.1741    92.893    33.147    30.986  0.0000  0.0000  1.0000
 

 ---------------------------------------------------------------------------------

 Calling FoFJK, ICntrl=    100127 FMM=F ISym2X=1 I1Cent= 0 IOpClX= 1 NMat=1 NMatS=1 NMatT=0.
 Full mass-weighted force constant matrix:
 Low frequencies ---  -54.4632   -0.0025   -0.0023    0.0019  154.0208 3779.9227
 Diagonal vibrational polarizability:
        0.0000000       0.0000000       0.0368098
 Harmonic frequencies (cm**-1), IR intensities (KM/Mole), Raman scattering
 activities (A**4/AMU), depolarization ratios for plane and unpolarized
 incident light, reduced masses (AMU), force constants (mDyne/A),
 and normal coordinates:
                      1
                     SG
 Frequencies --   3779.9227
 Red. masses --      1.0671
 Frc consts  --      8.9829
 IR Inten    --     19.5432
  Atom  AN      X      Y      Z
     1   8    -0.00  -0.00  -0.06
     2   1    -0.00  -0.00   1.00

 -------------------
 - Thermochemistry -
 -------------------
 Temperature   298.150 Kelvin.  Pressure   1.00000 Atm.
 Atom     1 has atomic number  8 and mass  15.99491
 Atom     2 has atomic number  1 and mass   1.00783
 Molecular mass:    17.00274 amu.
 Principal axes and moments of inertia in atomic units:
                           1         2         3
     Eigenvalues --     0.00000   3.22330   3.22330
           X            0.00000  -0.00000   1.00000
           Y            0.00000   1.00000   0.00000
           Z            1.00000   0.00000   0.00000
 This molecule is a prolate symmetric top.
 Rotational symmetry number  1.
 Rotational temperature (Kelvin)     26.87122
 Rotational constant (GHZ):         559.905417
 Zero-point vibrational energy      22609.0 (Joules/Mol)
                                    5.40367 (Kcal/Mol)
 Vibrational temperatures:   5438.47
          (Kelvin)
 
 Zero-point correction=                           0.008611 (Hartree/Particle)
 Thermal correction to Energy=                    0.010972
 Thermal correction to Enthalpy=                  0.011916
 Thermal correction to Gibbs Free Energy=        -0.008317
 Sum of electronic and zero-point Energies=            -75.693139
 Sum of electronic and thermal Energies=               -75.690779
 Sum of electronic and thermal Enthalpies=             -75.689835
 Sum of electronic and thermal Free Energies=          -75.710067
 
                     E (Thermal)             CV                S
                      KCal/Mol        Cal/Mol-Kelvin    Cal/Mol-Kelvin
 Total                    6.885              4.968             42.584
 Electronic               0.000              0.000              1.377
 Translational            0.889              2.981             34.437
 Rotational               0.592              1.987              6.769
 Vibrational              5.404              0.000              0.000
                       Q            Log10(Q)             Ln(Q)
 Total Bot       0.669100D+04          3.825491          8.808519
 Total V=0       0.611519D+08          7.786410         17.928871
 Vib (Bot)       0.109416D-03         -3.960918         -9.120352
 Vib (V=0)       0.100000D+01          0.000000          0.000000
 Electronic      0.200000D+01          0.301030          0.693147
 Translational   0.275570D+07          6.440232         14.829183
 Rotational      0.110955D+02          1.045147          2.406541
 ***** Axes restored to original set *****
 -------------------------------------------------------------------
 Center     Atomic                   Forces (Hartrees/Bohr)
 Number     Number              X              Y              Z
 -------------------------------------------------------------------
      1        8          -0.000000000   -0.000000000   -0.000044405
      2        1          -0.000000000   -0.000000000    0.000044405
 -------------------------------------------------------------------
 Cartesian Forces:  Max     0.000044405 RMS     0.000025637
 FormGI is forming the generalized inverse of G from B-inverse, IUseBI=4.

 GradGradGradGradGradGradGradGradGradGradGradGradGradGradGradGradGradGrad
 Berny optimization.
 Internal  Forces:  Max     0.000044405 RMS     0.000044405
 Search for a local minimum.
 Step number   1 out of a maximum of    2
 All quantities printed in internal units (Hartrees-Bohrs-Radians)
 Second derivative matrix not updated -- analytic derivatives used.
 The second derivative matrix:
                          R1
           R1           0.51263
 ITU=  0
     Eigenvalues ---    0.51263
 Angle between quadratic step and forces=   0.00 degrees.
 Linear search not attempted -- first point.
 Iteration  1 RMS(Cart)=  0.00006125 RMS(Int)=  0.00000000
 Iteration  2 RMS(Cart)=  0.00000000 RMS(Int)=  0.00000000
 ClnCor:  largest displacement from symmetrization is 0.00D+00 for atom     0.
 Variable       Old X    -DE/DX   Delta X   Delta X   Delta X     New X
                                 (Linear)    (Quad)   (Total)
    R1        1.84385  -0.00004   0.00000  -0.00009  -0.00009   1.84377
         Item               Value     Threshold  Converged?
 Maximum Force            0.000044     0.000450     YES
 RMS     Force            0.000044     0.000300     YES
 Maximum Displacement     0.000043     0.001800     YES
 RMS     Displacement     0.000061     0.001200     YES
 Predicted change in Energy=-1.923205D-09
 Optimization completed.
    -- Stationary point found.
                           ----------------------------
                           !   Optimized Parameters   !
                           ! (Angstroms and Degrees)  !
 --------------------------                            --------------------------
 ! Name  Definition              Value          Derivative Info.                !
 --------------------------------------------------------------------------------
 ! R1    R(1,2)                  0.9757         -DE/DX =    0.0                 !
 --------------------------------------------------------------------------------
 GradGradGradGradGradGradGradGradGradGradGradGradGradGradGradGradGradGrad


 ----------------------------------------------------------------------

 Electric dipole moment (input orientation):
 (Debye = 10**-18 statcoulomb cm , SI units = C m)
                  (au)            (Debye)         (10**-30 SI)
   Tot        0.743102D+00      0.188878D+01      0.630028D+01
   x          0.000000D+00      0.000000D+00      0.000000D+00
   y          0.000000D+00      0.000000D+00      0.000000D+00
   z         -0.743102D+00     -0.188878D+01     -0.630028D+01

 Dipole polarizability, Alpha (input orientation).
 (esu units = cm**3 , SI units = C**2 m**2 J**-1)
 Alpha(0;0):
               (au)            (10**-24 esu)      (10**-40 SI)
   iso        0.492767D+01      0.730205D+00      0.812463D+00
   aniso      0.269493D+01      0.399347D+00      0.444334D+00
   xx         0.358412D+01      0.531113D+00      0.590942D+00
   yx         0.000000D+00      0.000000D+00      0.000000D+00
   yy         0.456646D+01      0.676679D+00      0.752907D+00
   zx         0.000000D+00      0.000000D+00      0.000000D+00
   zy         0.000000D+00      0.000000D+00      0.000000D+00
   zz         0.663242D+01      0.982823D+00      0.109354D+01

 ----------------------------------------------------------------------

 Dipole orientation:
     8          0.00000000          0.00000000         -0.20299480
     1          0.00000000          0.00000000          1.64085717

 Electric dipole moment (dipole orientation):
 (Debye = 10**-18 statcoulomb cm , SI units = C m)
                  (au)            (Debye)         (10**-30 SI)
   Tot        0.743102D+00      0.188878D+01      0.630028D+01
   x          0.000000D+00      0.000000D+00      0.000000D+00
   y          0.000000D+00      0.000000D+00      0.000000D+00
   z          0.743102D+00      0.188878D+01      0.630028D+01

 Dipole polarizability, Alpha (dipole orientation).
 (esu units = cm**3 , SI units = C**2 m**2 J**-1)
 Alpha(0;0):
               (au)            (10**-24 esu)      (10**-40 SI)
   iso        0.492767D+01      0.730205D+00      0.812463D+00
   aniso      0.269493D+01      0.399347D+00      0.444334D+00
   xx         0.358412D+01      0.531113D+00      0.590942D+00
   yx         0.000000D+00      0.000000D+00      0.000000D+00
   yy         0.456646D+01      0.676679D+00      0.752907D+00
   zx         0.000000D+00      0.000000D+00      0.000000D+00
   zy         0.000000D+00      0.000000D+00      0.000000D+00
   zz         0.663242D+01      0.982823D+00      0.109354D+01

 ----------------------------------------------------------------------
 Unable to Open any file for archive entry.
 1\1\GINC-NODE01\Freq\UM062X\6-31+G(d,p)\H1O1(2)\GAU\08-Dec-2023\0\\#N 
 Geom=AllCheck Guess=TCheck SCRF=Check GenChk UM062X/6-31+G(d,p) Freq\\
 "Sketch 3"\\0,2\O,0.,0.,0.1074202197\H,0.,0.,-0.8683042197\\Version=ES
 64L-G16RevC.01\HF=-75.7017506\S2=0.75284\S2-1=0.\S2A=0.750006\RMSD=1.9
 75e-10\RMSF=2.564e-05\ZeroPoint=0.0086113\Thermal=0.0109718\ETot=-75.6
 907789\HTot=-75.6898347\GTot=-75.7100675\Dipole=0.,0.,-0.7431022\Dipol
 eDeriv=-0.4048314,0.,0.,0.,-0.4031264,0.,0.,0.,-0.1378627,0.4048314,0.
 ,0.,0.,0.4031264,0.,0.,0.,0.1378627\Polar=3.5841248,0.,4.5664574,0.,0.
 ,6.6324196\Quadrupole=0.1145833,-0.8880531,0.7734698,0.,0.,0.\PG=C*V [
 C*(H1O1)]\NImag=0\\-0.00010643,0.,0.00085113,0.,0.,0.51263169,0.000106
 43,0.,0.,-0.00010643,0.,-0.00085113,0.,0.,0.00085113,0.,0.,-0.51263169
 ,0.,0.,0.51263169\\0.,0.,0.00004440,0.,0.,-0.00004440\\\@
 The archive entry for this job was punched.


 "PERFECTION IS NOT AN ACCIDENT"
         --  EAGLE ELECTRIC MANUFACTURING CO.,INC. NY
 Job cpu time:       0 days  0 hours  1 minutes 16.0 seconds.
 Elapsed time:       0 days  0 hours  0 minutes  1.8 seconds.
 File lengths (MBytes):  RWF=      6 Int=      0 D2E=      0 Chk=      1 Scr=      1
 Normal termination of Gaussian 16 at Fri Dec  8 07:31:52 2023.
