 Entering Gaussian System, Link 0=g16
 Input=sidanzuo-PC.gjf
 Output=sidanzuo-PC.log
 Initial command:
 /home/Tinker/g16/l1.exe "/home/Tinker/g16/scratch/Gau-1832278.inp" -scrdir="/home/Tinker/g16/scratch/"
 Entering Link 1 = /home/Tinker/g16/l1.exe PID=   1832279.
  
 Copyright (c) 1988-2019, Gaussian, Inc.  All Rights Reserved.
  
 This is part of the Gaussian(R) 16 program.  It is based on
 the Gaussian(R) 09 system (copyright 2009, Gaussian, Inc.),
 the Gaussian(R) 03 system (copyright 2003, Gaussian, Inc.),
 the Gaussian(R) 98 system (copyright 1998, Gaussian, Inc.),
 the Gaussian(R) 94 system (copyright 1995, Gaussian, Inc.),
 the Gaussian 92(TM) system (copyright 1992, Gaussian, Inc.),
 the Gaussian 90(TM) system (copyright 1990, Gaussian, Inc.),
 the Gaussian 88(TM) system (copyright 1988, Gaussian, Inc.),
 the Gaussian 86(TM) system (copyright 1986, Carnegie Mellon
 University), and the Gaussian 82(TM) system (copyright 1983,
 Carnegie Mellon University). Gaussian is a federally registered
 trademark of Gaussian, Inc.
  
 This software contains proprietary and confidential information,
 including trade secrets, belonging to Gaussian, Inc.
  
 This software is provided under written license and may be
 used, copied, transmitted, or stored only in accord with that
 written license.
  
 The following legend is applicable only to US Government
 contracts under FAR:
  
                    RESTRICTED RIGHTS LEGEND
  
 Use, reproduction and disclosure by the US Government is
 subject to restrictions as set forth in subparagraphs (a)
 and (c) of the Commercial Computer Software - Restricted
 Rights clause in FAR 52.227-19.
  
 Gaussian, Inc.
 340 Quinnipiac St., Bldg. 40, Wallingford CT 06492
  
  
 ---------------------------------------------------------------
 Warning -- This program may not be used in any manner that
 competes with the business of Gaussian, Inc. or will provide
 assistance to any competitor of Gaussian, Inc.  The licensee
 of this program is prohibited from giving any competitor of
 Gaussian, Inc. access to this program.  By using this program,
 the user acknowledges that Gaussian, Inc. is engaged in the
 business of creating and licensing software in the field of
 computational chemistry and represents and warrants to the
 licensee that it is not a competitor of Gaussian, Inc. and that
 it will not use this program in any manner prohibited above.
 ---------------------------------------------------------------
  

 Cite this work as:
 Gaussian 16, Revision C.01,
 M. J. Frisch, G. W. Trucks, H. B. Schlegel, G. E. Scuseria, 
 M. A. Robb, J. R. Cheeseman, G. Scalmani, V. Barone, 
 G. A. Petersson, H. Nakatsuji, X. Li, M. Caricato, A. V. Marenich, 
 J. Bloino, B. G. Janesko, R. Gomperts, B. Mennucci, H. P. Hratchian, 
 J. V. Ortiz, A. F. Izmaylov, J. L. Sonnenberg, D. Williams-Young, 
 F. Ding, F. Lipparini, F. Egidi, J. Goings, B. Peng, A. Petrone, 
 T. Henderson, D. Ranasinghe, V. G. Zakrzewski, J. Gao, N. Rega, 
 G. Zheng, W. Liang, M. Hada, M. Ehara, K. Toyota, R. Fukuda, 
 J. Hasegawa, M. Ishida, T. Nakajima, Y. Honda, O. Kitao, H. Nakai, 
 T. Vreven, K. Throssell, J. A. Montgomery, Jr., J. E. Peralta, 
 F. Ogliaro, M. J. Bearpark, J. J. Heyd, E. N. Brothers, K. N. Kudin, 
 V. N. Staroverov, T. A. Keith, R. Kobayashi, J. Normand, 
 K. Raghavachari, A. P. Rendell, J. C. Burant, S. S. Iyengar, 
 J. Tomasi, M. Cossi, J. M. Millam, M. Klene, C. Adamo, R. Cammi, 
 J. W. Ochterski, R. L. Martin, K. Morokuma, O. Farkas, 
 J. B. Foresman, and D. J. Fox, Gaussian, Inc., Wallingford CT, 2019.
 
 ******************************************
 Gaussian 16:  ES64L-G16RevC.01  3-Jul-2019
                29-Oct-2023 
 ******************************************
 %mem=10GB
 %nprocshared=24
 Will use up to   24 processors via shared memory.
 -----------------------------------------------------
 # opt freq 6-31+g(d,p) scrf=(smd,solvent=water) m062x
 -----------------------------------------------------
 1/18=20,19=15,26=3,38=1/1,3;
 2/9=110,12=2,17=6,18=5,40=1/2;
 3/5=1,6=6,7=111,11=2,25=1,30=1,70=32201,71=1,72=1,74=-55/1,2,3;
 4//1;
 5/5=2,38=5,53=1/2;
 6/7=2,8=2,9=2,10=2,28=1/1;
 7//1,2,3,16;
 1/18=20,19=15,26=3/3(2);
 2/9=110/2;
 99//99;
 2/9=110/2;
 3/5=1,6=6,7=111,11=2,25=1,30=1,70=32205,71=1,72=1,74=-55/1,2,3;
 4/5=5,16=3,69=1/1;
 5/5=2,38=5,53=1/2;
 7//1,2,3,16;
 1/18=20,19=15,26=3/3(-5);
 2/9=110/2;
 6/7=2,8=2,9=2,10=2,19=2,28=1/1;
 99/9=1/99;
 -------------------
 Title Card Required
 -------------------
 Symbolic Z-matrix:
 Charge =  0 Multiplicity = 1
 N                    -0.64759   0.95438  -0.00032 
 N                    -0.04582  -0.21629  -0.00047 
 N                    -0.8766   -1.20637  -0.00003 
 N                    -2.08281  -0.68133   0.00028 
 C                    -1.93362   0.6588    0.00014 
 C                     1.48153  -0.04454  -0.00003 
 O                     2.16666  -1.03215   0.0001 
 O                     1.66417   1.20384   0.00024 
 H                     1.02697   1.9679   -0.01977 
 H                    -2.73617   1.37959   0.00033 
 

 GradGradGradGradGradGradGradGradGradGradGradGradGradGradGradGradGradGrad
 Berny optimization.
 Initialization pass.
                           ----------------------------
                           !    Initial Parameters    !
                           ! (Angstroms and Degrees)  !
 --------------------------                            --------------------------
 ! Name  Definition              Value          Derivative Info.                !
 --------------------------------------------------------------------------------
 ! R1    R(1,2)                  1.3163         estimate D2E/DX2                !
 ! R2    R(1,5)                  1.3196         estimate D2E/DX2                !
 ! R3    R(2,3)                  1.2925         estimate D2E/DX2                !
 ! R4    R(2,6)                  1.537          estimate D2E/DX2                !
 ! R5    R(3,4)                  1.3155         estimate D2E/DX2                !
 ! R6    R(4,5)                  1.3484         estimate D2E/DX2                !
 ! R7    R(5,10)                 1.0787         estimate D2E/DX2                !
 ! R8    R(6,7)                  1.202          estimate D2E/DX2                !
 ! R9    R(6,8)                  1.2617         estimate D2E/DX2                !
 ! R10   R(8,9)                  0.9951         estimate D2E/DX2                !
 ! A1    A(2,1,5)              104.261          estimate D2E/DX2                !
 ! A2    A(1,2,3)              112.7951         estimate D2E/DX2                !
 ! A3    A(1,2,6)              110.7886         estimate D2E/DX2                !
 ! A4    A(3,2,6)              136.4162         estimate D2E/DX2                !
 ! A5    A(2,3,4)              106.4773         estimate D2E/DX2                !
 ! A6    A(3,4,5)              107.1705         estimate D2E/DX2                !
 ! A7    A(1,5,4)              109.296          estimate D2E/DX2                !
 ! A8    A(1,5,10)             125.1284         estimate D2E/DX2                !
 ! A9    A(4,5,10)             125.5756         estimate D2E/DX2                !
 ! A10   A(2,6,7)              118.3338         estimate D2E/DX2                !
 ! A11   A(2,6,8)              104.7397         estimate D2E/DX2                !
 ! A12   A(7,6,8)              136.9265         estimate D2E/DX2                !
 ! A13   A(6,8,9)              131.8387         estimate D2E/DX2                !
 ! D1    D(5,1,2,3)             -0.0054         estimate D2E/DX2                !
 ! D2    D(5,1,2,6)           -179.9613         estimate D2E/DX2                !
 ! D3    D(2,1,5,4)              0.0014         estimate D2E/DX2                !
 ! D4    D(2,1,5,10)          -179.9965         estimate D2E/DX2                !
 ! D5    D(1,2,3,4)              0.0073         estimate D2E/DX2                !
 ! D6    D(6,2,3,4)            179.9475         estimate D2E/DX2                !
 ! D7    D(1,2,6,7)            179.9883         estimate D2E/DX2                !
 ! D8    D(1,2,6,8)             -0.0051         estimate D2E/DX2                !
 ! D9    D(3,2,6,7)              0.0473         estimate D2E/DX2                !
 ! D10   D(3,2,6,8)           -179.946          estimate D2E/DX2                !
 ! D11   D(2,3,4,5)             -0.006          estimate D2E/DX2                !
 ! D12   D(3,4,5,1)              0.0029         estimate D2E/DX2                !
 ! D13   D(3,4,5,10)          -179.9992         estimate D2E/DX2                !
 ! D14   D(2,6,8,9)             -1.5439         estimate D2E/DX2                !
 ! D15   D(7,6,8,9)            178.4647         estimate D2E/DX2                !
 --------------------------------------------------------------------------------
 Trust Radius=3.00D-01 FncErr=1.00D-07 GrdErr=1.00D-06 EigMax=2.50D+02 EigMin=1.00D-04
 Number of steps in this run=     48 maximum allowed number of steps=    100.
 GradGradGradGradGradGradGradGradGradGradGradGradGradGradGradGradGradGrad

                          Input orientation:                          
 ---------------------------------------------------------------------
 Center     Atomic      Atomic             Coordinates (Angstroms)
 Number     Number       Type             X           Y           Z
 ---------------------------------------------------------------------
      1          7           0       -0.647591    0.954378   -0.000316
      2          7           0       -0.045824   -0.216293   -0.000470
      3          7           0       -0.876601   -1.206371   -0.000029
      4          7           0       -2.082809   -0.681327    0.000278
      5          6           0       -1.933621    0.658803    0.000137
      6          6           0        1.481529   -0.044537   -0.000029
      7          8           0        2.166658   -1.032147    0.000104
      8          8           0        1.664171    1.203836    0.000241
      9          1           0        1.026967    1.967899   -0.019770
     10          1           0       -2.736165    1.379589    0.000326
 ---------------------------------------------------------------------
                    Distance matrix (angstroms):
                    1          2          3          4          5
     1  N    0.000000
     2  N    1.316280   0.000000
     3  N    2.172851   1.292457   0.000000
     4  N    2.176093   2.089393   1.315526   0.000000
     5  C    1.319560   2.080762   2.143867   1.348409   0.000000
     6  C    2.351804   1.536980   2.628809   3.620774   3.486823
     7  O    3.444747   2.358113   3.048242   4.263924   4.435268
     8  O    2.325182   2.222802   3.502088   4.194484   3.638842
     9  H    1.957485   2.433505   3.701345   4.085280   3.237161
    10  H    2.131419   3.128062   3.185148   2.162001   1.078707
                    6          7          8          9         10
     6  C    0.000000
     7  O    1.201988   0.000000
     8  O    1.261663   2.291749   0.000000
     9  H    2.063229   3.209294   0.995099   0.000000
    10  H    4.451638   5.463895   4.403844   3.808895   0.000000
 Stoichiometry    C2H2N4O2
 Framework group  C1[X(C2H2N4O2)]
 Deg. of freedom    24
 Full point group                 C1      NOp   1
 Largest Abelian subgroup         C1      NOp   1
 Largest concise Abelian subgroup C1      NOp   1
                         Standard orientation:                         
 ---------------------------------------------------------------------
 Center     Atomic      Atomic             Coordinates (Angstroms)
 Number     Number       Type             X           Y           Z
 ---------------------------------------------------------------------
      1          7           0        0.644489    0.958027   -0.000690
      2          7           0        0.060473   -0.221600    0.000313
      3          7           0        0.906110   -1.199016    0.000768
      4          7           0        2.104250   -0.655814    0.000205
      5          6           0        1.934837    0.681910   -0.000737
      6          6           0       -1.469300   -0.072933   -0.000468
      7          8           0       -2.139434   -1.070779    0.000092
      8          8           0       -1.670777    1.172538   -0.001753
      9          1           0       -1.045189    1.946154    0.017736
     10          1           0        2.726403    1.414735   -0.001392
 ---------------------------------------------------------------------
 Rotational constants (GHZ):           5.5301792           1.8268015           1.3731938
 Standard basis: 6-31+G(d,p) (6D, 7F)
 There are   162 symmetry adapted cartesian basis functions of A   symmetry.
 There are   162 symmetry adapted basis functions of A   symmetry.
   162 basis functions,   270 primitive gaussians,   162 cartesian basis functions
    29 alpha electrons       29 beta electrons
       nuclear repulsion energy       367.0122512891 Hartrees.
 NAtoms=   10 NActive=   10 NUniq=   10 SFac= 1.00D+00 NAtFMM=   60 NAOKFM=F Big=F
 Integral buffers will be    131072 words long.
 Raffenetti 2 integral format.
 Two-electron integral symmetry is turned on.
 ------------------------------------------------------------------------------
 Polarizable Continuum Model (PCM)
 =================================
 Model                : PCM.
 Atomic radii         : SMD-Coulomb.
 Polarization charges : Total charges.
 Charge compensation  : None.
 Solution method      : On-the-fly selection.
 Cavity type          : VdW (van der Waals Surface) (Alpha=1.000).
 Cavity algorithm     : GePol (No added spheres)
                        Default sphere list used, NSphG=   10.
                        Lebedev-Laikov grids with approx.  5.0 points / Ang**2.
                        Smoothing algorithm: York/Karplus (Gamma=1.0000).
                        Polarization charges: spherical gaussians, with
                                              point-specific exponents (IZeta= 3).
                        Self-potential: point-specific (ISelfS= 7).
                        Self-field    : sphere-specific E.n sum rule (ISelfD= 2).
 1st derivatives      : Analytical E(r).r(x)/FMM algorithm (CHGder, D1EAlg=3).
                        Cavity 1st derivative terms included.
 Solvent              : Water, Eps=  78.355300 Eps(inf)=   1.777849
 ------------------------------------------------------------------------------
 Spheres list:
 ISph  on   Nord     Re0    Alpha      Xe            Ye            Ze
    1   N      1    1.8900  1.000      0.644489      0.958027     -0.000690
    2   N      2    1.8900  1.000      0.060473     -0.221600      0.000313
    3   N      3    1.8900  1.000      0.906110     -1.199016      0.000768
    4   N      4    1.8900  1.000      2.104250     -0.655814      0.000205
    5   C      5    1.8500  1.000      1.934837      0.681910     -0.000737
    6   C      6    1.8500  1.000     -1.469300     -0.072933     -0.000468
    7   O      7    1.5200  1.000     -2.139434     -1.070779      0.000092
    8   O      8    1.5200  1.000     -1.670777      1.172538     -0.001753
    9   H      9    1.2000  1.000     -1.045189      1.946154      0.017736
   10   H     10    1.2000  1.000      2.726403      1.414735     -0.001392
 ------------------------------------------------------------------------------
 ------------------------------------------------------------------------------
 Atomic radii for non-electrostatic terms: SMD-CDS.
 ------------------------------------------------------------------------------
 Nuclear repulsion after PCM non-electrostatic terms =      367.0180767464 Hartrees.
 One-electron integrals computed using PRISM.
 NBasis=   162 RedAO= T EigKep=  3.32D-05  NBF=   162
 NBsUse=   162 1.00D-06 EigRej= -1.00D+00 NBFU=   162
 ExpMin= 4.38D-02 ExpMax= 5.48D+03 ExpMxC= 8.25D+02 IAcc=3 IRadAn=         5 AccDes= 0.00D+00
 Harris functional with IExCor= 1009 and IRadAn=       5 diagonalized for initial guess.
 HarFok:  IExCor= 1009 AccDes= 0.00D+00 IRadAn=         5 IDoV= 1 UseB2=F ITyADJ=14
 ICtDFT=  3500011 ScaDFX=  1.000000  1.000000  1.000000  1.000000
 FoFCou: FMM=F IPFlag=           0 FMFlag=      100000 FMFlg1=           0
         NFxFlg=           0 DoJE=T BraDBF=F KetDBF=T FulRan=T
         wScrn=  0.000000 ICntrl=       500 IOpCl=  0 I1Cent=   200000004 NGrid=           0
         NMat0=    1 NMatS0=      1 NMatT0=    0 NMatD0=    1 NMtDS0=    0 NMtDT0=    0
 Petite list used in FoFCou.
 Keep R1 ints in memory in canonical form, NReq=110915818.
 Requested convergence on RMS density matrix=1.00D-08 within 128 cycles.
 Requested convergence on MAX density matrix=1.00D-06.
 Requested convergence on             energy=1.00D-06.
 No special actions if energy rises.
 Inv3:  Mode=1 IEnd=     2898867.
 Iteration    1 A*A^-1 deviation from unit magnitude is 4.44D-15 for    977.
 Iteration    1 A*A^-1 deviation from orthogonality  is 3.39D-15 for    979    823.
 Iteration    1 A^-1*A deviation from unit magnitude is 4.22D-15 for    977.
 Iteration    1 A^-1*A deviation from orthogonality  is 1.55D-15 for    967    959.
 Error on total polarization charges =  0.02931
 SCF Done:  E(RM062X) =  -446.658028184     A.U. after   14 cycles
            NFock= 14  Conv=0.44D-08     -V/T= 2.0081
 SMD-CDS (non-electrostatic) energy       (kcal/mol) =       3.66
 (included in total energy above)

 **********************************************************************

            Population analysis using the SCF Density.

 **********************************************************************

 Orbital symmetries:
       Occupied  (A) (A) (A) (A) (A) (A) (A) (A) (A) (A) (A) (A)
                 (A) (A) (A) (A) (A) (A) (A) (A) (A) (A) (A) (A)
                 (A) (A) (A) (A) (A)
       Virtual   (A) (A) (A) (A) (A) (A) (A) (A) (A) (A) (A) (A)
                 (A) (A) (A) (A) (A) (A) (A) (A) (A) (A) (A) (A)
                 (A) (A) (A) (A) (A) (A) (A) (A) (A) (A) (A) (A)
                 (A) (A) (A) (A) (A) (A) (A) (A) (A) (A) (A) (A)
                 (A) (A) (A) (A) (A) (A) (A) (A) (A) (A) (A) (A)
                 (A) (A) (A) (A) (A) (A) (A) (A) (A) (A) (A) (A)
                 (A) (A) (A) (A) (A) (A) (A) (A) (A) (A) (A) (A)
                 (A) (A) (A) (A) (A) (A) (A) (A) (A) (A) (A) (A)
                 (A) (A) (A) (A) (A) (A) (A) (A) (A) (A) (A) (A)
                 (A) (A) (A) (A) (A) (A) (A) (A) (A) (A) (A) (A)
                 (A) (A) (A) (A) (A) (A) (A) (A) (A) (A) (A) (A)
                 (A)
 The electronic state is 1-A.
 Alpha  occ. eigenvalues --  -19.73112 -19.69293 -14.91415 -14.87009 -14.82896
 Alpha  occ. eigenvalues --  -14.82058 -10.78509 -10.62667  -1.32160  -1.27898
 Alpha  occ. eigenvalues --   -1.20938  -1.07699  -1.01482  -0.82875  -0.77561
 Alpha  occ. eigenvalues --   -0.76043  -0.68952  -0.63024  -0.60534  -0.56931
 Alpha  occ. eigenvalues --   -0.56384  -0.50676  -0.48815  -0.44180  -0.42357
 Alpha  occ. eigenvalues --   -0.40934  -0.40328  -0.38259  -0.38233
 Alpha virt. eigenvalues --   -0.02978   0.01365   0.03869   0.03926   0.04180
 Alpha virt. eigenvalues --    0.05689   0.06026   0.06425   0.07345   0.09156
 Alpha virt. eigenvalues --    0.09297   0.10267   0.13538   0.14357   0.14818
 Alpha virt. eigenvalues --    0.17017   0.18724   0.19077   0.20540   0.20936
 Alpha virt. eigenvalues --    0.21457   0.22267   0.22886   0.23649   0.24382
 Alpha virt. eigenvalues --    0.25550   0.26543   0.27791   0.28605   0.28873
 Alpha virt. eigenvalues --    0.29101   0.30168   0.30399   0.31287   0.32400
 Alpha virt. eigenvalues --    0.33877   0.35100   0.36625   0.41033   0.42278
 Alpha virt. eigenvalues --    0.45444   0.45941   0.48586   0.52381   0.65103
 Alpha virt. eigenvalues --    0.71591   0.76206   0.78499   0.82959   0.85478
 Alpha virt. eigenvalues --    0.89227   0.92771   0.93171   0.93709   0.94303
 Alpha virt. eigenvalues --    0.94938   0.97627   0.98291   1.00485   1.00603
 Alpha virt. eigenvalues --    1.05612   1.08389   1.13830   1.14624   1.19298
 Alpha virt. eigenvalues --    1.21678   1.22479   1.25728   1.26231   1.29361
 Alpha virt. eigenvalues --    1.30586   1.34374   1.35957   1.36624   1.37044
 Alpha virt. eigenvalues --    1.39871   1.43008   1.44316   1.46668   1.47543
 Alpha virt. eigenvalues --    1.50953   1.59142   1.59573   1.64835   1.65032
 Alpha virt. eigenvalues --    1.70008   1.75774   1.79659   1.87502   1.93516
 Alpha virt. eigenvalues --    1.95786   1.97719   1.98449   2.04354   2.10232
 Alpha virt. eigenvalues --    2.10812   2.18638   2.19680   2.23216   2.28800
 Alpha virt. eigenvalues --    2.30123   2.30654   2.35937   2.40010   2.48022
 Alpha virt. eigenvalues --    2.49408   2.55567   2.61828   2.64323   2.64617
 Alpha virt. eigenvalues --    2.68788   2.70238   2.76937   2.81445   2.81682
 Alpha virt. eigenvalues --    2.83980   2.87215   2.96503   3.02093   3.11979
 Alpha virt. eigenvalues --    3.14944   3.21875   3.29144   3.56152   3.63643
 Alpha virt. eigenvalues --    3.96535   4.03483   4.16864   4.24231   4.29606
 Alpha virt. eigenvalues --    4.51197   4.57401   4.78245
          Condensed to atoms (all electrons):
               1          2          3          4          5          6
     1  N    7.190333  -0.069155  -0.045154  -0.161872   0.412102   0.019385
     2  N   -0.069155   7.589571  -0.515163   0.281797  -0.268865   0.064387
     3  N   -0.045154  -0.515163   7.515655   0.007845   0.193810   0.018423
     4  N   -0.161872   0.281797   0.007845   6.982640   0.255065  -0.009548
     5  C    0.412102  -0.268865   0.193810   0.255065   5.032611  -0.020888
     6  C    0.019385   0.064387   0.018423  -0.009548  -0.020888   4.279955
     7  O    0.015426  -0.024551  -0.065116   0.011502  -0.007053   0.468362
     8  O   -0.074594  -0.063478  -0.044588   0.005219  -0.016181   0.340675
     9  H    0.030758  -0.002230   0.000014  -0.000287   0.005015  -0.014113
    10  H   -0.051788  -0.009183   0.017780  -0.042554   0.423986  -0.001122
               7          8          9         10
     1  N    0.015426  -0.074594   0.030758  -0.051788
     2  N   -0.024551  -0.063478  -0.002230  -0.009183
     3  N   -0.065116  -0.044588   0.000014   0.017780
     4  N    0.011502   0.005219  -0.000287  -0.042554
     5  C   -0.007053  -0.016181   0.005015   0.423986
     6  C    0.468362   0.340675  -0.014113  -0.001122
     7  O    8.168195  -0.076328   0.003278  -0.000002
     8  O   -0.076328   8.138201   0.251579  -0.000433
     9  H    0.003278   0.251579   0.207987  -0.000009
    10  H   -0.000002  -0.000433  -0.000009   0.410549
 Mulliken charges:
               1
     1  N   -0.265443
     2  N    0.016871
     3  N   -0.083506
     4  N   -0.329804
     5  C   -0.009602
     6  C    0.854484
     7  O   -0.493712
     8  O   -0.460072
     9  H    0.518009
    10  H    0.252777
 Sum of Mulliken charges =  -0.00000
 Mulliken charges with hydrogens summed into heavy atoms:
               1
     1  N   -0.265443
     2  N    0.016871
     3  N   -0.083506
     4  N   -0.329804
     5  C    0.243175
     6  C    0.854484
     7  O   -0.493712
     8  O    0.057937
 Electronic spatial extent (au):  <R**2>=            787.4012
 Charge=             -0.0000 electrons
 Dipole moment (field-independent basis, Debye):
    X=              1.0655    Y=              6.7495    Z=              0.0449  Tot=              6.8332
 Quadrupole moment (field-independent basis, Debye-Ang):
   XX=            -52.0793   YY=            -44.9630   ZZ=            -43.7132
   XY=              2.4860   XZ=             -0.0549   YZ=              0.1005
 Traceless Quadrupole moment (field-independent basis, Debye-Ang):
   XX=             -5.1608   YY=              1.9555   ZZ=              3.2053
   XY=              2.4860   XZ=             -0.0549   YZ=              0.1005
 Octapole moment (field-independent basis, Debye-Ang**2):
  XXX=             10.2111  YYY=             29.6932  ZZZ=              0.0234  XYY=             -3.3678
  XXY=             30.1391  XXZ=              0.0396  XZZ=             -5.4642  YZZ=              0.8867
  YYZ=              0.2061  XYZ=             -0.1093
 Hexadecapole moment (field-independent basis, Debye-Ang**3):
 XXXX=           -751.7787 YYYY=           -236.1933 ZZZZ=            -39.4564 XXXY=             44.0896
 XXXZ=             -0.1055 YYYX=             -5.1867 YYYZ=              0.4463 ZZZX=             -0.0243
 ZZZY=              0.0555 XXYY=           -163.8586 XXZZ=           -123.1730 YYZZ=            -50.8189
 XXYZ=              0.1093 YYXZ=             -0.2402 ZZXY=              0.1291
 N-N= 3.670180767464D+02 E-N=-1.777197271211D+03  KE= 4.430614403310D+02
 D1PCM: PCM CHGder 1st derivatives, ID1Alg=3 FixD1E=F DoIter=F DoCFld=F I1PDM=0.
 Calling FoFJK, ICntrl=      2127 FMM=F ISym2X=0 I1Cent= 0 IOpClX= 0 NMat=1 NMatS=1 NMatT=0.
 ***** Axes restored to original set *****
 -------------------------------------------------------------------
 Center     Atomic                   Forces (Hartrees/Bohr)
 Number     Number              X              Y              Z
 -------------------------------------------------------------------
      1        7          -0.027721537    0.020538351   -0.000059476
      2        7           0.010512964    0.036273990    0.000024402
      3        7          -0.010853625   -0.017744178   -0.000002422
      4        7          -0.001305325   -0.014530355    0.000039233
      5        6           0.018192841   -0.011137639   -0.000047943
      6        6          -0.057976660   -0.040489756   -0.000732761
      7        8           0.002802984    0.026135368    0.000284122
      8        8           0.071750459    0.031664712   -0.000024742
      9        1          -0.005523542   -0.029997570    0.000524395
     10        1           0.000121442   -0.000712922   -0.000004808
 -------------------------------------------------------------------
 Cartesian Forces:  Max     0.071750459 RMS     0.023445930

 GradGradGradGradGradGradGradGradGradGradGradGradGradGradGradGradGradGrad
 Berny optimization.
 FormGI is forming the generalized inverse of G from B-inverse, IUseBI=4.
 Internal  Forces:  Max     0.061404278 RMS     0.021413398
 Search for a local minimum.
 Step number   1 out of a maximum of   48
 All quantities printed in internal units (Hartrees-Bohrs-Radians)
 Mixed Optimization -- RFO/linear search
 Second derivative matrix not updated -- first step.
 ITU=  0
     Eigenvalues ---    0.00230   0.01382   0.01724   0.02498   0.02530
     Eigenvalues ---    0.02603   0.03522   0.16000   0.16000   0.23512
     Eigenvalues ---    0.25000   0.25000   0.25000   0.25000   0.28788
     Eigenvalues ---    0.36151   0.48561   0.50577   0.56169   0.60285
     Eigenvalues ---    0.62799   0.67043   0.79072   1.03830
 RFO step:  Lambda=-5.61030850D-02 EMin= 2.30000000D-03
 Linear search not attempted -- first point.
 Maximum step size (   0.300) exceeded in Quadratic search.
    -- Step size scaled by   0.687
 Iteration  1 RMS(Cart)=  0.14417169 RMS(Int)=  0.00782991
 Iteration  2 RMS(Cart)=  0.01008916 RMS(Int)=  0.00004333
 Iteration  3 RMS(Cart)=  0.00003921 RMS(Int)=  0.00003723
 Iteration  4 RMS(Cart)=  0.00000000 RMS(Int)=  0.00003723
 Variable       Old X    -DE/DX   Delta X   Delta X   Delta X     New X
                                 (Linear)    (Quad)   (Total)
    R1        2.48741   0.01491   0.00000   0.01675   0.01674   2.50415
    R2        2.49361  -0.00102   0.00000  -0.00160  -0.00154   2.49206
    R3        2.44239   0.02081   0.00000   0.02058   0.02052   2.46291
    R4        2.90447   0.00957   0.00000   0.01910   0.01910   2.92357
    R5        2.48598  -0.01561   0.00000  -0.01635  -0.01638   2.46960
    R6        2.54812   0.00531   0.00000   0.00366   0.00369   2.55182
    R7        2.03846  -0.00056   0.00000  -0.00092  -0.00092   2.03754
    R8        2.27143  -0.01987   0.00000  -0.01246  -0.01246   2.25896
    R9        2.38420   0.01122   0.00000   0.00909   0.00909   2.39329
   R10        1.88046  -0.01952   0.00000  -0.02474  -0.02474   1.85572
    A1        1.81970  -0.01446   0.00000  -0.02943  -0.02935   1.79035
    A2        1.96865  -0.00230   0.00000   0.00066   0.00061   1.96926
    A3        1.93363   0.05763   0.00000   0.12634   0.12636   2.05999
    A4        2.38091  -0.05532   0.00000  -0.12700  -0.12697   2.25394
    A5        1.85838   0.00557   0.00000   0.01433   0.01421   1.87259
    A6        1.87048  -0.00654   0.00000  -0.02360  -0.02360   1.84688
    A7        1.90758   0.01773   0.00000   0.03805   0.03813   1.94570
    A8        2.18390  -0.00843   0.00000  -0.01763  -0.01767   2.16623
    A9        2.19171  -0.00930   0.00000  -0.02042  -0.02046   2.17125
   A10        2.06532  -0.01119   0.00000  -0.02509  -0.02509   2.04022
   A11        1.82805   0.06140   0.00000   0.13773   0.13773   1.96578
   A12        2.38982  -0.05022   0.00000  -0.11263  -0.11263   2.27718
   A13        2.30102  -0.04409   0.00000  -0.14007  -0.14007   2.16095
    D1       -0.00009  -0.00000   0.00000   0.00006   0.00007  -0.00002
    D2       -3.14092  -0.00001   0.00000  -0.00040  -0.00046  -3.14138
    D3        0.00002   0.00002   0.00000   0.00013   0.00012   0.00014
    D4       -3.14153   0.00000   0.00000   0.00002   0.00002  -3.14151
    D5        0.00013  -0.00002   0.00000  -0.00023  -0.00023  -0.00011
    D6        3.14068   0.00008   0.00000   0.00058   0.00054   3.14121
    D7        3.14139   0.00005   0.00000   0.00060   0.00057  -3.14123
    D8       -0.00009   0.00015   0.00000   0.00158   0.00160   0.00151
    D9        0.00083  -0.00003   0.00000  -0.00016  -0.00017   0.00065
   D10       -3.14065   0.00008   0.00000   0.00083   0.00085  -3.13980
   D11       -0.00011   0.00004   0.00000   0.00030   0.00029   0.00018
   D12        0.00005  -0.00004   0.00000  -0.00027  -0.00026  -0.00021
   D13       -3.14158  -0.00002   0.00000  -0.00016  -0.00016   3.14145
   D14       -0.02695   0.00032   0.00000   0.00230   0.00233  -0.02461
   D15        3.11480   0.00046   0.00000   0.00356   0.00353   3.11832
         Item               Value     Threshold  Converged?
 Maximum Force            0.061404     0.000450     NO 
 RMS     Force            0.021413     0.000300     NO 
 Maximum Displacement     0.498151     0.001800     NO 
 RMS     Displacement     0.143387     0.001200     NO 
 Predicted change in Energy=-2.782150D-02
 GradGradGradGradGradGradGradGradGradGradGradGradGradGradGradGradGradGrad

                          Input orientation:                          
 ---------------------------------------------------------------------
 Center     Atomic      Atomic             Coordinates (Angstroms)
 Number     Number       Type             X           Y           Z
 ---------------------------------------------------------------------
      1          7           0       -0.772212    1.029544   -0.000760
      2          7           0       -0.081790   -0.101522   -0.000341
      3          7           0       -0.843607   -1.159002    0.000804
      4          7           0       -2.083093   -0.744815    0.001311
      5          6           0       -2.020441    0.604093    0.000176
      6          6           0        1.462617   -0.010527   -0.000904
      7          8           0        2.065149   -1.042959   -0.000903
      8          8           0        1.880347    1.185074    0.000041
      9          1           0        1.290578    1.970021   -0.019055
     10          1           0       -2.880835    1.253924    0.000104
 ---------------------------------------------------------------------
                    Distance matrix (angstroms):
                    1          2          3          4          5
     1  N    0.000000
     2  N    1.325140   0.000000
     3  N    2.189711   1.303315   0.000000
     4  N    2.206074   2.102152   1.306858   0.000000
     5  C    1.318743   2.063071   2.119775   1.350363   0.000000
     6  C    2.464997   1.547085   2.576367   3.620945   3.536870
     7  O    3.513672   2.344281   2.911070   4.158943   4.405091
     8  O    2.657116   2.346340   3.593692   4.408325   3.943816
     9  H    2.267142   2.484962   3.787602   4.330405   3.581755
    10  H    2.120527   3.109966   3.157928   2.152057   1.078220
                    6          7          8          9         10
     6  C    0.000000
     7  O    1.195392   0.000000
     8  O    1.266476   2.235684   0.000000
     9  H    1.988089   3.111004   0.982006   0.000000
    10  H    4.523760   5.453296   4.761680   4.232475   0.000000
 Stoichiometry    C2H2N4O2
 Framework group  C1[X(C2H2N4O2)]
 Deg. of freedom    24
 Full point group                 C1      NOp   1
 Largest Abelian subgroup         C1      NOp   1
 Largest concise Abelian subgroup C1      NOp   1
                         Standard orientation:                         
 ---------------------------------------------------------------------
 Center     Atomic      Atomic             Coordinates (Angstroms)
 Number     Number       Type             X           Y           Z
 ---------------------------------------------------------------------
      1          7           0        0.731309    1.042773   -0.000245
      2          7           0        0.089623   -0.116638    0.000091
      3          7           0        0.895732   -1.140756    0.000263
      4          7           0        2.116478   -0.674221   -0.000093
      5          6           0        1.996505    0.670801   -0.000243
      6          6           0       -1.457256   -0.091418   -0.000101
      7          8           0       -2.015328   -1.148545    0.000600
      8          8           0       -1.925465    1.085330   -0.002341
      9          1           0       -1.369626    1.894672    0.016278
     10          1           0        2.828479    1.356642   -0.000404
 ---------------------------------------------------------------------
 Rotational constants (GHZ):           5.5646590           1.7481896           1.3302746
 Standard basis: 6-31+G(d,p) (6D, 7F)
 There are   162 symmetry adapted cartesian basis functions of A   symmetry.
 There are   162 symmetry adapted basis functions of A   symmetry.
   162 basis functions,   270 primitive gaussians,   162 cartesian basis functions
    29 alpha electrons       29 beta electrons
       nuclear repulsion energy       363.5108491243 Hartrees.
 NAtoms=   10 NActive=   10 NUniq=   10 SFac= 1.00D+00 NAtFMM=   60 NAOKFM=F Big=F
 Integral buffers will be    131072 words long.
 Raffenetti 2 integral format.
 Two-electron integral symmetry is turned on.
 ------------------------------------------------------------------------------
 Polarizable Continuum Model (PCM)
 =================================
 Model                : PCM.
 Atomic radii         : SMD-Coulomb.
 Polarization charges : Total charges.
 Charge compensation  : None.
 Solution method      : On-the-fly selection.
 Cavity type          : VdW (van der Waals Surface) (Alpha=1.000).
 Cavity algorithm     : GePol (No added spheres)
                        Default sphere list used, NSphG=   10.
                        Lebedev-Laikov grids with approx.  5.0 points / Ang**2.
                        Smoothing algorithm: York/Karplus (Gamma=1.0000).
                        Polarization charges: spherical gaussians, with
                                              point-specific exponents (IZeta= 3).
                        Self-potential: point-specific (ISelfS= 7).
                        Self-field    : sphere-specific E.n sum rule (ISelfD= 2).
 1st derivatives      : Analytical E(r).r(x)/FMM algorithm (CHGder, D1EAlg=3).
                        Cavity 1st derivative terms included.
 Solvent              : Water, Eps=  78.355300 Eps(inf)=   1.777849
 ------------------------------------------------------------------------------
 Spheres list:
 ISph  on   Nord     Re0    Alpha      Xe            Ye            Ze
    1   N      1    1.8900  1.000      0.731309      1.042773     -0.000245
    2   N      2    1.8900  1.000      0.089623     -0.116638      0.000091
    3   N      3    1.8900  1.000      0.895732     -1.140756      0.000263
    4   N      4    1.8900  1.000      2.116478     -0.674221     -0.000093
    5   C      5    1.8500  1.000      1.996505      0.670801     -0.000243
    6   C      6    1.8500  1.000     -1.457256     -0.091418     -0.000101
    7   O      7    1.5200  1.000     -2.015328     -1.148545      0.000600
    8   O      8    1.5200  1.000     -1.925465      1.085330     -0.002341
    9   H      9    1.2000  1.000     -1.369626      1.894672      0.016278
   10   H     10    1.2000  1.000      2.828479      1.356642     -0.000404
 ------------------------------------------------------------------------------
 ------------------------------------------------------------------------------
 Atomic radii for non-electrostatic terms: SMD-CDS.
 ------------------------------------------------------------------------------
 Nuclear repulsion after PCM non-electrostatic terms =      363.5162084622 Hartrees.
 One-electron integrals computed using PRISM.
 NBasis=   162 RedAO= T EigKep=  3.72D-05  NBF=   162
 NBsUse=   162 1.00D-06 EigRej= -1.00D+00 NBFU=   162
 Initial guess from the checkpoint file:  "/home/Tinker/g16/scratch/Gau-1832279.chk"
 B after Tr=     0.000000    0.000000    0.000000
         Rot=    0.999877    0.000011    0.000011   -0.015665 Ang=   1.80 deg.
 ExpMin= 4.38D-02 ExpMax= 5.48D+03 ExpMxC= 8.25D+02 IAcc=3 IRadAn=         5 AccDes= 0.00D+00
 Harris functional with IExCor= 1009 and IRadAn=       5 diagonalized for initial guess.
 HarFok:  IExCor= 1009 AccDes= 0.00D+00 IRadAn=         5 IDoV= 1 UseB2=F ITyADJ=14
 ICtDFT=  3500011 ScaDFX=  1.000000  1.000000  1.000000  1.000000
 FoFCou: FMM=F IPFlag=           0 FMFlag=      100000 FMFlg1=           0
         NFxFlg=           0 DoJE=T BraDBF=F KetDBF=T FulRan=T
         wScrn=  0.000000 ICntrl=       500 IOpCl=  0 I1Cent=   200000004 NGrid=           0
         NMat0=    1 NMatS0=      1 NMatT0=    0 NMatD0=    1 NMtDS0=    0 NMtDT0=    0
 Petite list used in FoFCou.
 Keep R1 ints in memory in canonical form, NReq=110915818.
 Requested convergence on RMS density matrix=1.00D-08 within 128 cycles.
 Requested convergence on MAX density matrix=1.00D-06.
 Requested convergence on             energy=1.00D-06.
 No special actions if energy rises.
 Inv3:  Mode=1 IEnd=     2892972.
 Iteration    1 A*A^-1 deviation from unit magnitude is 2.66D-15 for    944.
 Iteration    1 A*A^-1 deviation from orthogonality  is 1.83D-15 for    258    123.
 Iteration    1 A^-1*A deviation from unit magnitude is 2.66D-15 for    944.
 Iteration    1 A^-1*A deviation from orthogonality  is 1.24D-15 for    419     82.
 Error on total polarization charges =  0.02901
 SCF Done:  E(RM062X) =  -446.679949219     A.U. after   13 cycles
            NFock= 13  Conv=0.45D-08     -V/T= 2.0083
 SMD-CDS (non-electrostatic) energy       (kcal/mol) =       3.36
 (included in total energy above)
 D1PCM: PCM CHGder 1st derivatives, ID1Alg=3 FixD1E=F DoIter=F DoCFld=F I1PDM=0.
 Calling FoFJK, ICntrl=      2127 FMM=F ISym2X=0 I1Cent= 0 IOpClX= 0 NMat=1 NMatS=1 NMatT=0.
 ***** Axes restored to original set *****
 -------------------------------------------------------------------
 Center     Atomic                   Forces (Hartrees/Bohr)
 Number     Number              X              Y              Z
 -------------------------------------------------------------------
      1        7          -0.002871477    0.007851706   -0.000111410
      2        7           0.016517718    0.031452321   -0.000049255
      3        7           0.001991802   -0.019389743    0.000016237
      4        7           0.008561363   -0.003482884   -0.000014676
      5        6           0.007630034    0.001586134   -0.000005482
      6        6          -0.054898821   -0.039369350   -0.000343341
      7        8           0.004732575    0.007542055    0.000221177
      8        8           0.025831576    0.026983451   -0.000146652
      9        1          -0.007447632   -0.013203039    0.000431575
     10        1          -0.000047137    0.000029349    0.000001828
 -------------------------------------------------------------------
 Cartesian Forces:  Max     0.054898821 RMS     0.016458768

 GradGradGradGradGradGradGradGradGradGradGradGradGradGradGradGradGradGrad
 Berny optimization.
 Using GEDIIS/GDIIS optimizer.
 FormGI is forming the generalized inverse of G from B-inverse, IUseBI=4.
 Internal  Forces:  Max     0.032782220 RMS     0.009729489
 Search for a local minimum.
 Step number   2 out of a maximum of   48
 All quantities printed in internal units (Hartrees-Bohrs-Radians)
 Mixed Optimization -- RFO/linear search
 Update second derivatives using D2CorX and points    1    2
 DE= -2.19D-02 DEPred=-2.78D-02 R= 7.88D-01
 TightC=F SS=  1.41D+00  RLast= 3.00D-01 DXNew= 5.0454D-01 9.0011D-01
 Trust test= 7.88D-01 RLast= 3.00D-01 DXMaxT set to 5.05D-01
 ITU=  1  0
 Use linear search instead of GDIIS.
     Eigenvalues ---    0.00230   0.01378   0.01571   0.02499   0.02532
     Eigenvalues ---    0.02605   0.03522   0.13630   0.16000   0.21199
     Eigenvalues ---    0.23606   0.25000   0.25000   0.26850   0.36150
     Eigenvalues ---    0.47021   0.49280   0.52874   0.57044   0.60125
     Eigenvalues ---    0.63192   0.67086   0.80001   1.04071
 RFO step:  Lambda=-2.19447358D-02 EMin= 2.29999871D-03
 Quartic linear search produced a step of  0.52230.
 Iteration  1 RMS(Cart)=  0.09271389 RMS(Int)=  0.01371230
 Iteration  2 RMS(Cart)=  0.02491523 RMS(Int)=  0.00086834
 Iteration  3 RMS(Cart)=  0.00075862 RMS(Int)=  0.00008353
 Iteration  4 RMS(Cart)=  0.00000009 RMS(Int)=  0.00008353
 Variable       Old X    -DE/DX   Delta X   Delta X   Delta X     New X
                                 (Linear)    (Quad)   (Total)
    R1        2.50415   0.00063   0.00874  -0.00155   0.00727   2.51142
    R2        2.49206  -0.00454  -0.00081  -0.01061  -0.01138   2.48068
    R3        2.46291   0.00637   0.01072   0.00937   0.02010   2.48301
    R4        2.92357  -0.03278   0.00997  -0.16035  -0.15038   2.77319
    R5        2.46960  -0.00818  -0.00856  -0.01520  -0.02382   2.44578
    R6        2.55182   0.00664   0.00193   0.01533   0.01721   2.56902
    R7        2.03754   0.00007  -0.00048   0.00042  -0.00006   2.03748
    R8        2.25896  -0.00411  -0.00651  -0.00269  -0.00920   2.24976
    R9        2.39329   0.01904   0.00475   0.03275   0.03750   2.43079
   R10        1.85572  -0.00612  -0.01292  -0.01295  -0.02588   1.82985
    A1        1.79035  -0.01035  -0.01533  -0.05289  -0.06807   1.72228
    A2        1.96926   0.01241   0.00032   0.07048   0.07087   2.04013
    A3        2.05999   0.01120   0.06600   0.04394   0.10990   2.16989
    A4        2.25394  -0.02360  -0.06632  -0.11442  -0.18077   2.07316
    A5        1.87259  -0.01064   0.00742  -0.05846  -0.05111   1.82148
    A6        1.84688   0.00430  -0.01233   0.02240   0.00992   1.85680
    A7        1.94570   0.00428   0.01992   0.01847   0.03838   1.98408
    A8        2.16623  -0.00218  -0.00923  -0.00958  -0.01881   2.14742
    A9        2.17125  -0.00211  -0.01069  -0.00889  -0.01957   2.15168
   A10        2.04022   0.01015  -0.01311   0.05879   0.04568   2.08590
   A11        1.96578  -0.00256   0.07193  -0.03153   0.04040   2.00618
   A12        2.27718  -0.00759  -0.05883  -0.02726  -0.08609   2.19109
   A13        2.16095  -0.02575  -0.07316  -0.20410  -0.27725   1.88370
    D1       -0.00002   0.00002   0.00004   0.00100   0.00108   0.00106
    D2       -3.14138   0.00000  -0.00024  -0.00067  -0.00116   3.14065
    D3        0.00014  -0.00002   0.00006  -0.00054  -0.00051  -0.00037
    D4       -3.14151  -0.00001   0.00001  -0.00044  -0.00043   3.14124
    D5       -0.00011  -0.00002  -0.00012  -0.00109  -0.00124  -0.00135
    D6        3.14121   0.00001   0.00028   0.00083   0.00092  -3.14105
    D7       -3.14123   0.00004   0.00030   0.00393   0.00411  -3.13712
    D8        0.00151   0.00012   0.00084   0.00779   0.00868   0.01019
    D9        0.00065   0.00001  -0.00009   0.00191   0.00178   0.00243
   D10       -3.13980   0.00009   0.00045   0.00578   0.00635  -3.13345
   D11        0.00018   0.00001   0.00015   0.00068   0.00077   0.00096
   D12       -0.00021   0.00000  -0.00014  -0.00009  -0.00017  -0.00038
   D13        3.14145  -0.00000  -0.00008  -0.00018  -0.00026   3.14119
   D14       -0.02461   0.00033   0.00122   0.00891   0.01029  -0.01433
   D15        3.11832   0.00041   0.00184   0.01337   0.01505   3.13338
         Item               Value     Threshold  Converged?
 Maximum Force            0.032782     0.000450     NO 
 RMS     Force            0.009729     0.000300     NO 
 Maximum Displacement     0.275066     0.001800     NO 
 RMS     Displacement     0.101151     0.001200     NO 
 Predicted change in Energy=-9.001919D-03
 GradGradGradGradGradGradGradGradGradGradGradGradGradGradGradGradGradGrad

                          Input orientation:                          
 ---------------------------------------------------------------------
 Center     Atomic      Atomic             Coordinates (Angstroms)
 Number     Number       Type             X           Y           Z
 ---------------------------------------------------------------------
      1          7           0       -0.808076    1.139660   -0.006145
      2          7           0       -0.081658    0.026784   -0.001116
      3          7           0       -0.738148   -1.111397    0.005002
      4          7           0       -1.984647   -0.763075    0.005827
      5          6           0       -2.003031    0.596251   -0.001232
      6          6           0        1.385529   -0.003758   -0.004420
      7          8           0        1.950324   -1.051781   -0.004035
      8          8           0        1.952208    1.151005   -0.000898
      9          1           0        1.256504    1.824463   -0.009818
     10          1           0       -2.912291    1.175678   -0.002694
 ---------------------------------------------------------------------
                    Distance matrix (angstroms):
                    1          2          3          4          5
     1  N    0.000000
     2  N    1.328985   0.000000
     3  N    2.252171   1.313954   0.000000
     4  N    2.237155   2.060411   1.294252   0.000000
     5  C    1.312720   2.003988   2.125096   1.359469   0.000000
     6  C    2.473724   1.467509   2.395195   3.454672   3.441273
     7  O    3.522952   2.300492   2.689148   3.945560   4.283110
     8  O    2.760313   2.323894   3.515183   4.377508   3.993954
     9  H    2.175192   2.241071   3.549384   4.147367   3.483266
    10  H    2.104526   3.054904   3.155577   2.149269   1.078189
                    6          7          8          9         10
     6  C    0.000000
     7  O    1.190524   0.000000
     8  O    1.286318   2.202789   0.000000
     9  H    1.832776   2.958749   0.968313   0.000000
    10  H    4.456717   5.348513   4.864562   4.218983   0.000000
 Stoichiometry    C2H2N4O2
 Framework group  C1[X(C2H2N4O2)]
 Deg. of freedom    24
 Full point group                 C1      NOp   1
 Largest Abelian subgroup         C1      NOp   1
 Largest concise Abelian subgroup C1      NOp   1
                         Standard orientation:                         
 ---------------------------------------------------------------------
 Center     Atomic      Atomic             Coordinates (Angstroms)
 Number     Number       Type             X           Y           Z
 ---------------------------------------------------------------------
      1          7           0        0.781591    1.124563    0.003471
      2          7           0        0.091940   -0.011470    0.000207
      3          7           0        0.785285   -1.127596   -0.002468
      4          7           0        2.019734   -0.738720   -0.002651
      5          6           0        1.993672    0.620494    0.001235
      6          6           0       -1.373468   -0.089944    0.001865
      7          8           0       -1.903708   -1.155867    0.003282
      8          8           0       -1.977581    1.045668   -0.005035
      9          1           0       -1.304271    1.741524    0.003118
     10          1           0        2.883507    1.229332    0.002399
 ---------------------------------------------------------------------
 Rotational constants (GHZ):           5.5397339           1.8352788           1.3785755
 Standard basis: 6-31+G(d,p) (6D, 7F)
 There are   162 symmetry adapted cartesian basis functions of A   symmetry.
 There are   162 symmetry adapted basis functions of A   symmetry.
   162 basis functions,   270 primitive gaussians,   162 cartesian basis functions
    29 alpha electrons       29 beta electrons
       nuclear repulsion energy       367.4866562420 Hartrees.
 NAtoms=   10 NActive=   10 NUniq=   10 SFac= 1.00D+00 NAtFMM=   60 NAOKFM=F Big=F
 Integral buffers will be    131072 words long.
 Raffenetti 2 integral format.
 Two-electron integral symmetry is turned on.
 ------------------------------------------------------------------------------
 Polarizable Continuum Model (PCM)
 =================================
 Model                : PCM.
 Atomic radii         : SMD-Coulomb.
 Polarization charges : Total charges.
 Charge compensation  : None.
 Solution method      : On-the-fly selection.
 Cavity type          : VdW (van der Waals Surface) (Alpha=1.000).
 Cavity algorithm     : GePol (No added spheres)
                        Default sphere list used, NSphG=   10.
                        Lebedev-Laikov grids with approx.  5.0 points / Ang**2.
                        Smoothing algorithm: York/Karplus (Gamma=1.0000).
                        Polarization charges: spherical gaussians, with
                                              point-specific exponents (IZeta= 3).
                        Self-potential: point-specific (ISelfS= 7).
                        Self-field    : sphere-specific E.n sum rule (ISelfD= 2).
 1st derivatives      : Analytical E(r).r(x)/FMM algorithm (CHGder, D1EAlg=3).
                        Cavity 1st derivative terms included.
 Solvent              : Water, Eps=  78.355300 Eps(inf)=   1.777849
 ------------------------------------------------------------------------------
 Spheres list:
 ISph  on   Nord     Re0    Alpha      Xe            Ye            Ze
    1   N      1    1.8900  1.000      0.781591      1.124563      0.003471
    2   N      2    1.8900  1.000      0.091940     -0.011470      0.000207
    3   N      3    1.8900  1.000      0.785285     -1.127596     -0.002468
    4   N      4    1.8900  1.000      2.019734     -0.738720     -0.002651
    5   C      5    1.8500  1.000      1.993672      0.620494      0.001235
    6   C      6    1.8500  1.000     -1.373468     -0.089944      0.001865
    7   O      7    1.5200  1.000     -1.903708     -1.155867      0.003282
    8   O      8    1.5200  1.000     -1.977581      1.045668     -0.005035
    9   H      9    1.2000  1.000     -1.304271      1.741524      0.003118
   10   H     10    1.2000  1.000      2.883507      1.229332      0.002399
 ------------------------------------------------------------------------------
 ------------------------------------------------------------------------------
 Atomic radii for non-electrostatic terms: SMD-CDS.
 ------------------------------------------------------------------------------
 Nuclear repulsion after PCM non-electrostatic terms =      367.4907865118 Hartrees.
 One-electron integrals computed using PRISM.
 NBasis=   162 RedAO= T EigKep=  3.86D-05  NBF=   162
 NBsUse=   162 1.00D-06 EigRej= -1.00D+00 NBFU=   162
 Initial guess from the checkpoint file:  "/home/Tinker/g16/scratch/Gau-1832279.chk"
 B after Tr=    -0.000000   -0.000000    0.000000
         Rot=    0.999998    0.000018   -0.000046    0.002043 Ang=   0.23 deg.
 ExpMin= 4.38D-02 ExpMax= 5.48D+03 ExpMxC= 8.25D+02 IAcc=3 IRadAn=         5 AccDes= 0.00D+00
 Harris functional with IExCor= 1009 and IRadAn=       5 diagonalized for initial guess.
 HarFok:  IExCor= 1009 AccDes= 0.00D+00 IRadAn=         5 IDoV= 1 UseB2=F ITyADJ=14
 ICtDFT=  3500011 ScaDFX=  1.000000  1.000000  1.000000  1.000000
 FoFCou: FMM=F IPFlag=           0 FMFlag=      100000 FMFlg1=           0
         NFxFlg=           0 DoJE=T BraDBF=F KetDBF=T FulRan=T
         wScrn=  0.000000 ICntrl=       500 IOpCl=  0 I1Cent=   200000004 NGrid=           0
         NMat0=    1 NMatS0=      1 NMatT0=    0 NMatD0=    1 NMtDS0=    0 NMtDT0=    0
 Petite list used in FoFCou.
 Keep R1 ints in memory in canonical form, NReq=110915818.
 Requested convergence on RMS density matrix=1.00D-08 within 128 cycles.
 Requested convergence on MAX density matrix=1.00D-06.
 Requested convergence on             energy=1.00D-06.
 No special actions if energy rises.
 Inv3:  Mode=1 IEnd=     2816883.
 Iteration    1 A*A^-1 deviation from unit magnitude is 3.55D-15 for    958.
 Iteration    1 A*A^-1 deviation from orthogonality  is 1.84D-15 for    960    408.
 Iteration    1 A^-1*A deviation from unit magnitude is 3.77D-15 for    958.
 Iteration    1 A^-1*A deviation from orthogonality  is 1.24D-15 for    815    354.
 Error on total polarization charges =  0.02859
 SCF Done:  E(RM062X) =  -446.686696471     A.U. after   13 cycles
            NFock= 13  Conv=0.64D-08     -V/T= 2.0078
 SMD-CDS (non-electrostatic) energy       (kcal/mol) =       2.59
 (included in total energy above)
 D1PCM: PCM CHGder 1st derivatives, ID1Alg=3 FixD1E=F DoIter=F DoCFld=F I1PDM=0.
 Calling FoFJK, ICntrl=      2127 FMM=F ISym2X=0 I1Cent= 0 IOpClX= 0 NMat=1 NMatS=1 NMatT=0.
 ***** Axes restored to original set *****
 -------------------------------------------------------------------
 Center     Atomic                   Forces (Hartrees/Bohr)
 Number     Number              X              Y              Z
 -------------------------------------------------------------------
      1        7          -0.000419259   -0.020370143    0.000221055
      2        7           0.039362353    0.000869004   -0.000435384
      3        7          -0.009225951    0.011930745    0.000055184
      4        7          -0.006038004   -0.000030317   -0.000066755
      5        6          -0.013306659    0.005117595   -0.000000849
      6        6          -0.018005923   -0.017143114    0.000699070
      7        8           0.006617404   -0.014589123   -0.000180928
      8        8           0.000426303    0.017820528   -0.000355862
      9        1           0.001239948    0.016880385    0.000061643
     10        1          -0.000650211   -0.000485559    0.000002826
 -------------------------------------------------------------------
 Cartesian Forces:  Max     0.039362353 RMS     0.011420699

 GradGradGradGradGradGradGradGradGradGradGradGradGradGradGradGradGradGrad
 Berny optimization.
 Using GEDIIS/GDIIS optimizer.
 FormGI is forming the generalized inverse of G from B-inverse, IUseBI=4.
 Internal  Forces:  Max     0.031885158 RMS     0.009603250
 Search for a local minimum.
 Step number   3 out of a maximum of   48
 All quantities printed in internal units (Hartrees-Bohrs-Radians)
 Mixed Optimization -- RFO/linear search
 Update second derivatives using D2CorX and points    2    3
 DE= -6.75D-03 DEPred=-9.00D-03 R= 7.50D-01
 TightC=F SS=  1.41D+00  RLast= 4.17D-01 DXNew= 8.4853D-01 1.2515D+00
 Trust test= 7.50D-01 RLast= 4.17D-01 DXMaxT set to 8.49D-01
 ITU=  1  1  0
 Use linear search instead of GDIIS.
     Eigenvalues ---    0.00230   0.01425   0.01428   0.02494   0.02534
     Eigenvalues ---    0.02606   0.03521   0.14490   0.16022   0.19551
     Eigenvalues ---    0.23721   0.25000   0.25768   0.31565   0.36151
     Eigenvalues ---    0.47851   0.49333   0.53150   0.57441   0.60051
     Eigenvalues ---    0.63705   0.67166   0.80700   1.05451
 RFO step:  Lambda=-3.64643358D-03 EMin= 2.30023884D-03
 Quartic linear search produced a step of -0.29168.
 Iteration  1 RMS(Cart)=  0.02875262 RMS(Int)=  0.00070995
 Iteration  2 RMS(Cart)=  0.00056281 RMS(Int)=  0.00004065
 Iteration  3 RMS(Cart)=  0.00000036 RMS(Int)=  0.00004065
 Variable       Old X    -DE/DX   Delta X   Delta X   Delta X     New X
                                 (Linear)    (Quad)   (Total)
    R1        2.51142  -0.00356  -0.00212  -0.00167  -0.00373   2.50769
    R2        2.48068   0.00606   0.00332   0.00326   0.00657   2.48725
    R3        2.48301   0.00262  -0.00586   0.00913   0.00330   2.48632
    R4        2.77319  -0.00978   0.04386  -0.07331  -0.02944   2.74375
    R5        2.44578   0.00781   0.00695   0.00122   0.00814   2.45392
    R6        2.56902  -0.00419  -0.00502   0.00040  -0.00468   2.56435
    R7        2.03748   0.00029   0.00002   0.00052   0.00054   2.03802
    R8        2.24976   0.01598   0.00268   0.00780   0.01048   2.26024
    R9        2.43079   0.03189  -0.01094   0.03997   0.02903   2.45982
   R10        1.82985   0.01085   0.00755   0.00704   0.01459   1.84444
    A1        1.72228   0.01776   0.01985   0.02540   0.04534   1.76762
    A2        2.04013  -0.01926  -0.02067  -0.03012  -0.05071   1.98942
    A3        2.16989   0.00215  -0.03206   0.04543   0.01333   2.18322
    A4        2.07316   0.01711   0.05273  -0.01531   0.03738   2.11054
    A5        1.82148   0.01299   0.01491   0.01996   0.03488   1.85636
    A6        1.85680  -0.00318  -0.00289  -0.00374  -0.00677   1.85003
    A7        1.98408  -0.00832  -0.01119  -0.01150  -0.02274   1.96134
    A8        2.14742   0.00493   0.00549   0.00924   0.01475   2.16218
    A9        2.15168   0.00339   0.00571   0.00226   0.00799   2.15967
   A10        2.08590   0.00161  -0.01332   0.01955   0.00621   2.09211
   A11        2.00618  -0.00568  -0.01178   0.00005  -0.01174   1.99444
   A12        2.19109   0.00407   0.02511  -0.01956   0.00554   2.19663
   A13        1.88370   0.02377   0.08087  -0.00040   0.08047   1.96417
    D1        0.00106  -0.00005  -0.00032  -0.00032  -0.00064   0.00042
    D2        3.14065   0.00001   0.00034  -0.00091  -0.00051   3.14014
    D3       -0.00037   0.00001   0.00015  -0.00008   0.00008  -0.00029
    D4        3.14124   0.00002   0.00012   0.00008   0.00020   3.14145
    D5       -0.00135   0.00007   0.00036   0.00059   0.00095  -0.00040
    D6       -3.14105   0.00002  -0.00027   0.00107   0.00084  -3.14020
    D7       -3.13712   0.00011  -0.00120   0.01198   0.01081  -3.12631
    D8        0.01019  -0.00022  -0.00253   0.00372   0.00118   0.01136
    D9        0.00243   0.00014  -0.00052   0.01137   0.01086   0.01329
   D10       -3.13345  -0.00019  -0.00185   0.00311   0.00123  -3.13222
   D11        0.00096  -0.00004  -0.00023  -0.00055  -0.00077   0.00018
   D12       -0.00038   0.00002   0.00005   0.00043   0.00046   0.00007
   D13        3.14119   0.00002   0.00007   0.00026   0.00033   3.14152
   D14       -0.01433   0.00025  -0.00300   0.01355   0.01051  -0.00381
   D15        3.13338  -0.00010  -0.00439   0.00456   0.00020   3.13358
         Item               Value     Threshold  Converged?
 Maximum Force            0.031885     0.000450     NO 
 RMS     Force            0.009603     0.000300     NO 
 Maximum Displacement     0.111119     0.001800     NO 
 RMS     Displacement     0.028628     0.001200     NO 
 Predicted change in Energy=-3.642984D-03
 GradGradGradGradGradGradGradGradGradGradGradGradGradGradGradGradGradGrad

                          Input orientation:                          
 ---------------------------------------------------------------------
 Center     Atomic      Atomic             Coordinates (Angstroms)
 Number     Number       Type             X           Y           Z
 ---------------------------------------------------------------------
      1          7           0       -0.806608    1.105641   -0.008824
      2          7           0       -0.061965    0.007284   -0.000077
      3          7           0       -0.756837   -1.109909    0.010205
      4          7           0       -2.008055   -0.762488    0.008900
      5          6           0       -2.019447    0.594409   -0.002724
      6          6           0        1.389757   -0.016929   -0.003478
      7          8           0        1.968033   -1.063891   -0.010667
      8          8           0        1.944571    1.160592   -0.002760
      9          1           0        1.288533    1.883264   -0.003449
     10          1           0       -2.921267    1.185856   -0.006653
 ---------------------------------------------------------------------
                    Distance matrix (angstroms):
                    1          2          3          4          5
     1  N    0.000000
     2  N    1.327011   0.000000
     3  N    2.216191   1.315702   0.000000
     4  N    2.221193   2.092820   1.298557   0.000000
     5  C    1.316198   2.043639   2.121097   1.356994   0.000000
     6  C    2.466619   1.451928   2.408870   3.478669   3.463583
     7  O    3.522145   2.295304   2.725338   3.987544   4.318567
     8  O    2.751734   2.314371   3.528873   4.395637   4.004248
     9  H    2.234802   2.311527   3.625301   4.227014   3.550195
    10  H    2.116181   3.092682   3.155246   2.151800   1.078473
                    6          7          8          9         10
     6  C    0.000000
     7  O    1.196070   0.000000
     8  O    1.301682   2.224621   0.000000
     9  H    1.902888   3.024483   0.976034   0.000000
    10  H    4.475671   5.382066   4.865905   4.267178   0.000000
 Stoichiometry    C2H2N4O2
 Framework group  C1[X(C2H2N4O2)]
 Deg. of freedom    24
 Full point group                 C1      NOp   1
 Largest Abelian subgroup         C1      NOp   1
 Largest concise Abelian subgroup C1      NOp   1
                         Standard orientation:                         
 ---------------------------------------------------------------------
 Center     Atomic      Atomic             Coordinates (Angstroms)
 Number     Number       Type             X           Y           Z
 ---------------------------------------------------------------------
      1          7           0        0.777738    1.098270    0.005938
      2          7           0        0.070700   -0.024675   -0.001128
      3          7           0        0.802989   -1.117742   -0.006572
      4          7           0        2.041732   -0.728182   -0.003612
      5          6           0        2.007189    0.628351    0.003980
      6          6           0       -1.379376   -0.097984   -0.000781
      7          8           0       -1.921918   -1.163887    0.008293
      8          8           0       -1.973703    1.060084   -0.006215
      9          1           0       -1.342491    1.804539   -0.006274
     10          1           0        2.888474    1.249982    0.008082
 ---------------------------------------------------------------------
 Rotational constants (GHZ):           5.5484286           1.8131654           1.3666061
 Standard basis: 6-31+G(d,p) (6D, 7F)
 There are   162 symmetry adapted cartesian basis functions of A   symmetry.
 There are   162 symmetry adapted basis functions of A   symmetry.
   162 basis functions,   270 primitive gaussians,   162 cartesian basis functions
    29 alpha electrons       29 beta electrons
       nuclear repulsion energy       366.3086872793 Hartrees.
 NAtoms=   10 NActive=   10 NUniq=   10 SFac= 1.00D+00 NAtFMM=   60 NAOKFM=F Big=F
 Integral buffers will be    131072 words long.
 Raffenetti 2 integral format.
 Two-electron integral symmetry is turned on.
 ------------------------------------------------------------------------------
 Polarizable Continuum Model (PCM)
 =================================
 Model                : PCM.
 Atomic radii         : SMD-Coulomb.
 Polarization charges : Total charges.
 Charge compensation  : None.
 Solution method      : On-the-fly selection.
 Cavity type          : VdW (van der Waals Surface) (Alpha=1.000).
 Cavity algorithm     : GePol (No added spheres)
                        Default sphere list used, NSphG=   10.
                        Lebedev-Laikov grids with approx.  5.0 points / Ang**2.
                        Smoothing algorithm: York/Karplus (Gamma=1.0000).
                        Polarization charges: spherical gaussians, with
                                              point-specific exponents (IZeta= 3).
                        Self-potential: point-specific (ISelfS= 7).
                        Self-field    : sphere-specific E.n sum rule (ISelfD= 2).
 1st derivatives      : Analytical E(r).r(x)/FMM algorithm (CHGder, D1EAlg=3).
                        Cavity 1st derivative terms included.
 Solvent              : Water, Eps=  78.355300 Eps(inf)=   1.777849
 ------------------------------------------------------------------------------
 Spheres list:
 ISph  on   Nord     Re0    Alpha      Xe            Ye            Ze
    1   N      1    1.8900  1.000      0.777738      1.098270      0.005938
    2   N      2    1.8900  1.000      0.070700     -0.024675     -0.001128
    3   N      3    1.8900  1.000      0.802989     -1.117742     -0.006572
    4   N      4    1.8900  1.000      2.041732     -0.728182     -0.003612
    5   C      5    1.8500  1.000      2.007189      0.628351      0.003980
    6   C      6    1.8500  1.000     -1.379376     -0.097984     -0.000781
    7   O      7    1.5200  1.000     -1.921918     -1.163887      0.008293
    8   O      8    1.5200  1.000     -1.973703      1.060084     -0.006215
    9   H      9    1.2000  1.000     -1.342491      1.804539     -0.006274
   10   H     10    1.2000  1.000      2.888474      1.249982      0.008082
 ------------------------------------------------------------------------------
 ------------------------------------------------------------------------------
 Atomic radii for non-electrostatic terms: SMD-CDS.
 ------------------------------------------------------------------------------
 Nuclear repulsion after PCM non-electrostatic terms =      366.3134277678 Hartrees.
 One-electron integrals computed using PRISM.
 NBasis=   162 RedAO= T EigKep=  3.84D-05  NBF=   162
 NBsUse=   162 1.00D-06 EigRej= -1.00D+00 NBFU=   162
 Initial guess from the checkpoint file:  "/home/Tinker/g16/scratch/Gau-1832279.chk"
 B after Tr=     0.000000    0.000000   -0.000000
         Rot=    1.000000   -0.000048    0.000013   -0.000446 Ang=  -0.05 deg.
 ExpMin= 4.38D-02 ExpMax= 5.48D+03 ExpMxC= 8.25D+02 IAcc=3 IRadAn=         5 AccDes= 0.00D+00
 Harris functional with IExCor= 1009 and IRadAn=       5 diagonalized for initial guess.
 HarFok:  IExCor= 1009 AccDes= 0.00D+00 IRadAn=         5 IDoV= 1 UseB2=F ITyADJ=14
 ICtDFT=  3500011 ScaDFX=  1.000000  1.000000  1.000000  1.000000
 FoFCou: FMM=F IPFlag=           0 FMFlag=      100000 FMFlg1=           0
         NFxFlg=           0 DoJE=T BraDBF=F KetDBF=T FulRan=T
         wScrn=  0.000000 ICntrl=       500 IOpCl=  0 I1Cent=   200000004 NGrid=           0
         NMat0=    1 NMatS0=      1 NMatT0=    0 NMatD0=    1 NMtDS0=    0 NMtDT0=    0
 Petite list used in FoFCou.
 Keep R1 ints in memory in canonical form, NReq=110915818.
 Requested convergence on RMS density matrix=1.00D-08 within 128 cycles.
 Requested convergence on MAX density matrix=1.00D-06.
 Requested convergence on             energy=1.00D-06.
 No special actions if energy rises.
 Inv3:  Mode=1 IEnd=     2840187.
 Iteration    1 A*A^-1 deviation from unit magnitude is 3.22D-15 for    959.
 Iteration    1 A*A^-1 deviation from orthogonality  is 1.24D-15 for    963    482.
 Iteration    1 A^-1*A deviation from unit magnitude is 3.22D-15 for    959.
 Iteration    1 A^-1*A deviation from orthogonality  is 1.31D-15 for    391     62.
 Error on total polarization charges =  0.02891
 SCF Done:  E(RM062X) =  -446.690332267     A.U. after   12 cycles
            NFock= 12  Conv=0.50D-08     -V/T= 2.0081
 SMD-CDS (non-electrostatic) energy       (kcal/mol) =       2.97
 (included in total energy above)
 D1PCM: PCM CHGder 1st derivatives, ID1Alg=3 FixD1E=F DoIter=F DoCFld=F I1PDM=0.
 Calling FoFJK, ICntrl=      2127 FMM=F ISym2X=0 I1Cent= 0 IOpClX= 0 NMat=1 NMatS=1 NMatT=0.
 ***** Axes restored to original set *****
 -------------------------------------------------------------------
 Center     Atomic                   Forces (Hartrees/Bohr)
 Number     Number              X              Y              Z
 -------------------------------------------------------------------
      1        7           0.000697683    0.000031377    0.000257542
      2        7           0.000773998    0.001290451    0.000000422
      3        7          -0.006624810   -0.005318675    0.000031078
      4        7           0.007482026   -0.001319983    0.000018398
      5        6           0.002348969    0.003325377   -0.000052936
      6        6          -0.008255283   -0.005845690   -0.000698368
      7        8           0.002227145   -0.002158761    0.000358134
      8        8           0.000443668    0.006878135    0.000045340
      9        1           0.000546435    0.002749240    0.000056266
     10        1           0.000360169    0.000368529   -0.000015875
 -------------------------------------------------------------------
 Cartesian Forces:  Max     0.008255283 RMS     0.003253150

 GradGradGradGradGradGradGradGradGradGradGradGradGradGradGradGradGradGrad
 Berny optimization.
 Using GEDIIS/GDIIS optimizer.
 FormGI is forming the generalized inverse of G from B-inverse, IUseBI=4.
 Internal  Forces:  Max     0.009145023 RMS     0.002925439
 Search for a local minimum.
 Step number   4 out of a maximum of   48
 All quantities printed in internal units (Hartrees-Bohrs-Radians)
 Mixed Optimization -- RFO/linear search
 Update second derivatives using D2CorX and points    2    3    4
 DE= -3.64D-03 DEPred=-3.64D-03 R= 9.98D-01
 TightC=F SS=  1.41D+00  RLast= 1.32D-01 DXNew= 1.4270D+00 3.9670D-01
 Trust test= 9.98D-01 RLast= 1.32D-01 DXMaxT set to 8.49D-01
 ITU=  1  1  1  0
 Use linear search instead of GDIIS.
     Eigenvalues ---    0.00230   0.01384   0.01432   0.02497   0.02533
     Eigenvalues ---    0.02606   0.03516   0.14966   0.16020   0.18053
     Eigenvalues ---    0.23643   0.24796   0.25731   0.33849   0.36160
     Eigenvalues ---    0.47900   0.48810   0.53297   0.56957   0.60765
     Eigenvalues ---    0.62966   0.68101   0.75504   1.03996
 RFO step:  Lambda=-7.46578756D-04 EMin= 2.30297097D-03
 Quartic linear search produced a step of  0.06927.
 Iteration  1 RMS(Cart)=  0.02140862 RMS(Int)=  0.00025284
 Iteration  2 RMS(Cart)=  0.00025522 RMS(Int)=  0.00002961
 Iteration  3 RMS(Cart)=  0.00000004 RMS(Int)=  0.00002961
 Variable       Old X    -DE/DX   Delta X   Delta X   Delta X     New X
                                 (Linear)    (Quad)   (Total)
    R1        2.50769  -0.00188  -0.00026  -0.00199  -0.00225   2.50544
    R2        2.48725  -0.00419   0.00046  -0.00688  -0.00643   2.48082
    R3        2.48632   0.00367   0.00023   0.00738   0.00761   2.49392
    R4        2.74375  -0.00507  -0.00204  -0.01437  -0.01641   2.72734
    R5        2.45392  -0.00547   0.00056  -0.00946  -0.00890   2.44502
    R6        2.56435   0.00270  -0.00032   0.00441   0.00408   2.56843
    R7        2.03802  -0.00010   0.00004  -0.00036  -0.00032   2.03770
    R8        2.26024   0.00296   0.00073   0.00294   0.00366   2.26391
    R9        2.45982   0.00915   0.00201   0.01389   0.01590   2.47572
   R10        1.84444   0.00168   0.00101   0.00310   0.00411   1.84855
    A1        1.76762  -0.00153   0.00314  -0.00514  -0.00200   1.76562
    A2        1.98942   0.00320  -0.00351   0.00941   0.00589   1.99531
    A3        2.18322  -0.00671   0.00092  -0.01784  -0.01692   2.16630
    A4        2.11054   0.00351   0.00259   0.00844   0.01102   2.12157
    A5        1.85636  -0.00433   0.00242  -0.01199  -0.00957   1.84679
    A6        1.85003   0.00285  -0.00047   0.00817   0.00770   1.85773
    A7        1.96134  -0.00019  -0.00158  -0.00045  -0.00202   1.95932
    A8        2.16218  -0.00041   0.00102  -0.00271  -0.00169   2.16049
    A9        2.15967   0.00059   0.00055   0.00316   0.00371   2.16338
   A10        2.09211   0.00265   0.00043   0.00773   0.00808   2.10019
   A11        1.99444  -0.00322  -0.00081  -0.00081  -0.00169   1.99274
   A12        2.19663   0.00057   0.00038  -0.00684  -0.00653   2.19010
   A13        1.96417   0.00415   0.00557   0.02322   0.02880   1.99296
    D1        0.00042  -0.00006  -0.00004  -0.00308  -0.00313  -0.00271
    D2        3.14014  -0.00002  -0.00004  -0.00039  -0.00044   3.13969
    D3       -0.00029   0.00005   0.00001   0.00247   0.00247   0.00218
    D4        3.14145   0.00004   0.00001   0.00188   0.00189  -3.13985
    D5       -0.00040   0.00005   0.00007   0.00257   0.00264   0.00224
    D6       -3.14020   0.00002   0.00006   0.00003   0.00006  -3.14014
    D7       -3.12631  -0.00029   0.00075  -0.04829  -0.04758   3.10930
    D8        0.01136   0.00002   0.00008  -0.02624  -0.02612  -0.01476
    D9        0.01329  -0.00025   0.00075  -0.04542  -0.04471  -0.03142
   D10       -3.13222   0.00007   0.00008  -0.02337  -0.02325   3.12771
   D11        0.00018  -0.00001  -0.00005  -0.00083  -0.00089  -0.00071
   D12        0.00007  -0.00003   0.00003  -0.00111  -0.00107  -0.00100
   D13        3.14152  -0.00002   0.00002  -0.00052  -0.00049   3.14103
   D14       -0.00381  -0.00012   0.00073  -0.00931  -0.00852  -0.01233
   D15        3.13358   0.00022   0.00001   0.01432   0.01427  -3.13534
         Item               Value     Threshold  Converged?
 Maximum Force            0.009145     0.000450     NO 
 RMS     Force            0.002925     0.000300     NO 
 Maximum Displacement     0.056138     0.001800     NO 
 RMS     Displacement     0.021423     0.001200     NO 
 Predicted change in Energy=-3.903201D-04
 GradGradGradGradGradGradGradGradGradGradGradGradGradGradGradGradGradGrad

                          Input orientation:                          
 ---------------------------------------------------------------------
 Center     Atomic      Atomic             Coordinates (Angstroms)
 Number     Number       Type             X           Y           Z
 ---------------------------------------------------------------------
      1          7           0       -0.796375    1.097058    0.009588
      2          7           0       -0.063833   -0.007952   -0.001987
      3          7           0       -0.765850   -1.125433   -0.011294
      4          7           0       -2.007543   -0.761792   -0.008612
      5          6           0       -2.010311    0.597307    0.003425
      6          6           0        1.379337   -0.022543   -0.003546
      7          8           0        1.973890   -1.062361    0.019040
      8          8           0        1.927917    1.167150   -0.010038
      9          1           0        1.285470    1.904688   -0.023952
     10          1           0       -2.905987    1.197707    0.007849
 ---------------------------------------------------------------------
                    Distance matrix (angstroms):
                    1          2          3          4          5
     1  N    0.000000
     2  N    1.325820   0.000000
     3  N    2.222799   1.319727   0.000000
     4  N    2.218690   2.084785   1.293849   0.000000
     5  C    1.312794   2.038417   2.125260   1.359155   0.000000
     6  C    2.446917   1.443244   2.412106   3.466623   3.445863
     7  O    3.512485   2.294458   2.740634   3.992859   4.316086
     8  O    2.725264   2.312573   3.537275   4.382769   3.979263
     9  H    2.233264   2.340788   3.659195   4.237250   3.545725
    10  H    2.112012   3.087321   3.158723   2.155715   1.078302
                    6          7          8          9         10
     6  C    0.000000
     7  O    1.198009   0.000000
     8  O    1.310096   2.230174   0.000000
     9  H    1.929624   3.046170   0.978210   0.000000
    10  H    4.455686   5.377846   4.834033   4.250781   0.000000
 Stoichiometry    C2H2N4O2
 Framework group  C1[X(C2H2N4O2)]
 Deg. of freedom    24
 Full point group                 C1      NOp   1
 Largest Abelian subgroup         C1      NOp   1
 Largest concise Abelian subgroup C1      NOp   1
                         Standard orientation:                         
 ---------------------------------------------------------------------
 Center     Atomic      Atomic             Coordinates (Angstroms)
 Number     Number       Type             X           Y           Z
 ---------------------------------------------------------------------
      1          7           0        0.764015    1.094091   -0.012604
      2          7           0        0.071619   -0.036479    0.001436
      3          7           0        0.813303   -1.128029    0.011667
      4          7           0        2.041140   -0.720061    0.007086
      5          6           0        1.995112    0.638242   -0.007006
      6          6           0       -1.370095   -0.102856    0.004586
      7          8           0       -1.926966   -1.163377   -0.015783
      8          8           0       -1.961015    1.066390    0.009878
      9          1           0       -1.345441    1.826532    0.021980
     10          1           0        2.868655    1.270394   -0.013311
 ---------------------------------------------------------------------
 Rotational constants (GHZ):           5.5159234           1.8234143           1.3704864
 Standard basis: 6-31+G(d,p) (6D, 7F)
 There are   162 symmetry adapted cartesian basis functions of A   symmetry.
 There are   162 symmetry adapted basis functions of A   symmetry.
   162 basis functions,   270 primitive gaussians,   162 cartesian basis functions
    29 alpha electrons       29 beta electrons
       nuclear repulsion energy       366.4496238366 Hartrees.
 NAtoms=   10 NActive=   10 NUniq=   10 SFac= 1.00D+00 NAtFMM=   60 NAOKFM=F Big=F
 Integral buffers will be    131072 words long.
 Raffenetti 2 integral format.
 Two-electron integral symmetry is turned on.
 ------------------------------------------------------------------------------
 Polarizable Continuum Model (PCM)
 =================================
 Model                : PCM.
 Atomic radii         : SMD-Coulomb.
 Polarization charges : Total charges.
 Charge compensation  : None.
 Solution method      : On-the-fly selection.
 Cavity type          : VdW (van der Waals Surface) (Alpha=1.000).
 Cavity algorithm     : GePol (No added spheres)
                        Default sphere list used, NSphG=   10.
                        Lebedev-Laikov grids with approx.  5.0 points / Ang**2.
                        Smoothing algorithm: York/Karplus (Gamma=1.0000).
                        Polarization charges: spherical gaussians, with
                                              point-specific exponents (IZeta= 3).
                        Self-potential: point-specific (ISelfS= 7).
                        Self-field    : sphere-specific E.n sum rule (ISelfD= 2).
 1st derivatives      : Analytical E(r).r(x)/FMM algorithm (CHGder, D1EAlg=3).
                        Cavity 1st derivative terms included.
 Solvent              : Water, Eps=  78.355300 Eps(inf)=   1.777849
 ------------------------------------------------------------------------------
 Spheres list:
 ISph  on   Nord     Re0    Alpha      Xe            Ye            Ze
    1   N      1    1.8900  1.000      0.764015      1.094091     -0.012604
    2   N      2    1.8900  1.000      0.071619     -0.036479      0.001436
    3   N      3    1.8900  1.000      0.813303     -1.128029      0.011667
    4   N      4    1.8900  1.000      2.041140     -0.720061      0.007086
    5   C      5    1.8500  1.000      1.995112      0.638242     -0.007006
    6   C      6    1.8500  1.000     -1.370095     -0.102856      0.004586
[...]
      4        7          -0.000156316   -0.000330090    0.000019501
      5        6           0.000282522    0.000035123   -0.000040660
      6        6           0.000038611    0.000179384   -0.000009353
      7        8          -0.000044478   -0.000000296    0.000002286
      8        8          -0.000061089   -0.000319104    0.000003394
      9        1          -0.000020534    0.000057078   -0.000010955
     10        1          -0.000007666   -0.000032893    0.000008679
 -------------------------------------------------------------------
 Cartesian Forces:  Max     0.000330090 RMS     0.000140065
 FormGI is forming the generalized inverse of G from B-inverse, IUseBI=4.

 GradGradGradGradGradGradGradGradGradGradGradGradGradGradGradGradGradGrad
 Berny optimization.
 Internal  Forces:  Max     0.000273457 RMS     0.000101819
 Search for a local minimum.
 Step number   1 out of a maximum of    2
 All quantities printed in internal units (Hartrees-Bohrs-Radians)
 Second derivative matrix not updated -- analytic derivatives used.
 ITU=  0
     Eigenvalues ---    0.00806   0.01206   0.01390   0.03901   0.06528
     Eigenvalues ---    0.07399   0.08123   0.11435   0.17918   0.18465
     Eigenvalues ---    0.19831   0.24369   0.28053   0.29228   0.36023
     Eigenvalues ---    0.39283   0.42101   0.45633   0.48397   0.50396
     Eigenvalues ---    0.52511   0.59909   0.64537   0.95028
 Angle between quadratic step and forces=  51.30 degrees.
 Linear search not attempted -- first point.
 Iteration  1 RMS(Cart)=  0.00081159 RMS(Int)=  0.00000039
 Iteration  2 RMS(Cart)=  0.00000040 RMS(Int)=  0.00000002
 Variable       Old X    -DE/DX   Delta X   Delta X   Delta X     New X
                                 (Linear)    (Quad)   (Total)
    R1        2.50559  -0.00011   0.00000  -0.00001  -0.00001   2.50557
    R2        2.47868   0.00001   0.00000  -0.00023  -0.00023   2.47845
    R3        2.50068   0.00010   0.00000   0.00026   0.00026   2.50094
    R4        2.71956  -0.00009   0.00000  -0.00036  -0.00036   2.71920
    R5        2.43950  -0.00015   0.00000  -0.00036  -0.00036   2.43914
    R6        2.57352   0.00009   0.00000   0.00040   0.00040   2.57393
    R7        2.03768  -0.00002   0.00000  -0.00003  -0.00003   2.03764
    R8        2.26409  -0.00003   0.00000   0.00007   0.00007   2.26416
    R9        2.48022  -0.00026   0.00000  -0.00057  -0.00057   2.47965
   R10        1.84595   0.00007   0.00000   0.00013   0.00013   1.84607
    A1        1.76871  -0.00006   0.00000  -0.00008  -0.00008   1.76863
    A2        1.99194  -0.00011   0.00000  -0.00031  -0.00031   1.99163
    A3        2.15905   0.00018   0.00000   0.00078   0.00078   2.15983
    A4        2.13219  -0.00007   0.00000  -0.00047  -0.00047   2.13172
    A5        1.84773   0.00025   0.00000   0.00057   0.00057   1.84829
    A6        1.85910  -0.00027   0.00000  -0.00062  -0.00062   1.85848
    A7        1.95730   0.00019   0.00000   0.00044   0.00044   1.95774
    A8        2.16349  -0.00005   0.00000   0.00019   0.00019   2.16367
    A9        2.16240  -0.00014   0.00000  -0.00063  -0.00063   2.16177
   A10        2.10710  -0.00006   0.00000  -0.00021  -0.00021   2.10689
   A11        1.98917   0.00007   0.00000   0.00022   0.00022   1.98938
   A12        2.18692  -0.00000   0.00000  -0.00000  -0.00000   2.18691
   A13        1.98052   0.00004   0.00000   0.00038   0.00038   1.98090
    D1        0.00011  -0.00001   0.00000  -0.00012  -0.00012  -0.00000
    D2       -3.14141  -0.00001   0.00000  -0.00019  -0.00019   3.14159
    D3       -0.00017   0.00002   0.00000   0.00017   0.00017   0.00000
    D4       -3.14140  -0.00000   0.00000  -0.00019  -0.00019  -3.14159
    D5       -0.00002   0.00000   0.00000   0.00002   0.00002   0.00000
    D6        3.14151   0.00000   0.00000   0.00009   0.00009  -3.14159
    D7       -3.14072  -0.00001   0.00000  -0.00095  -0.00095   3.14152
    D8        0.00084  -0.00001   0.00000  -0.00090  -0.00090  -0.00007
    D9        0.00095  -0.00001   0.00000  -0.00102  -0.00102  -0.00007
   D10       -3.14068  -0.00001   0.00000  -0.00098  -0.00098   3.14152
   D11       -0.00009   0.00001   0.00000   0.00009   0.00008  -0.00000
   D12        0.00017  -0.00002   0.00000  -0.00017  -0.00017  -0.00000
   D13        3.14141   0.00001   0.00000   0.00019   0.00019   3.14159
   D14        0.00045  -0.00001   0.00000  -0.00048  -0.00048  -0.00003
   D15       -3.14118  -0.00001   0.00000  -0.00044  -0.00044   3.14157
         Item               Value     Threshold  Converged?
 Maximum Force            0.000273     0.000450     YES
 RMS     Force            0.000102     0.000300     YES
 Maximum Displacement     0.002037     0.001800     NO 
 RMS     Displacement     0.000812     0.001200     YES
 Predicted change in Energy=-5.446935D-07
                           ----------------------------
                           ! Non-Optimized Parameters !
                           ! (Angstroms and Degrees)  !
 --------------------------                            --------------------------
 ! Name  Definition              Value          Derivative Info.                !
 --------------------------------------------------------------------------------
 ! R1    R(1,2)                  1.3259         -DE/DX =   -0.0001              !
 ! R2    R(1,5)                  1.3115         -DE/DX =    0.0                 !
 ! R3    R(2,3)                  1.3234         -DE/DX =    0.0001              !
 ! R4    R(2,6)                  1.4389         -DE/DX =   -0.0001              !
 ! R5    R(3,4)                  1.2907         -DE/DX =   -0.0002              !
 ! R6    R(4,5)                  1.3621         -DE/DX =    0.0001              !
 ! R7    R(5,10)                 1.0783         -DE/DX =    0.0                 !
 ! R8    R(6,7)                  1.1981         -DE/DX =    0.0                 !
 ! R9    R(6,8)                  1.3122         -DE/DX =   -0.0003              !
 ! R10   R(8,9)                  0.9769         -DE/DX =    0.0001              !
 ! A1    A(2,1,5)              101.3351         -DE/DX =   -0.0001              !
 ! A2    A(1,2,3)              114.1122         -DE/DX =   -0.0001              !
 ! A3    A(1,2,6)              123.7492         -DE/DX =    0.0002              !
 ! A4    A(3,2,6)              122.1386         -DE/DX =   -0.0001              !
 ! A5    A(2,3,4)              105.8993         -DE/DX =    0.0003              !
 ! A6    A(3,4,5)              106.4832         -DE/DX =   -0.0003              !
 ! A7    A(1,5,4)              112.1701         -DE/DX =    0.0002              !
 ! A8    A(1,5,10)             123.9694         -DE/DX =    0.0                 !
 ! A9    A(4,5,10)             123.8605         -DE/DX =   -0.0001              !
 ! A10   A(2,6,7)              120.7157         -DE/DX =   -0.0001              !
 ! A11   A(2,6,8)              113.9833         -DE/DX =    0.0001              !
 ! A12   A(7,6,8)              125.301          -DE/DX =    0.0                 !
 ! A13   A(6,8,9)              113.4971         -DE/DX =    0.0                 !
 ! D1    D(5,1,2,3)             -0.0002         -DE/DX =    0.0                 !
 ! D2    D(5,1,2,6)            179.9996         -DE/DX =    0.0                 !
 ! D3    D(2,1,5,4)              0.0002         -DE/DX =    0.0                 !
 ! D4    D(2,1,5,10)          -179.9998         -DE/DX =    0.0                 !
 ! D5    D(1,2,3,4)              0.0002         -DE/DX =    0.0                 !
 ! D6    D(6,2,3,4)           -179.9996         -DE/DX =    0.0                 !
 ! D7    D(1,2,6,7)            179.996          -DE/DX =    0.0                 !
 ! D8    D(1,2,6,8)             -0.0038         -DE/DX =    0.0                 !
 ! D9    D(3,2,6,7)             -0.0042         -DE/DX =    0.0                 !
 ! D10   D(3,2,6,8)            179.996          -DE/DX =    0.0                 !
 ! D11   D(2,3,4,5)             -0.0001         -DE/DX =    0.0                 !
 ! D12   D(3,4,5,1)             -0.0001         -DE/DX =    0.0                 !
 ! D13   D(3,4,5,10)           180.0            -DE/DX =    0.0                 !
 ! D14   D(2,6,8,9)             -0.0017         -DE/DX =    0.0                 !
 ! D15   D(7,6,8,9)            179.9985         -DE/DX =    0.0                 !
 --------------------------------------------------------------------------------
 GradGradGradGradGradGradGradGradGradGradGradGradGradGradGradGradGradGrad


 ----------------------------------------------------------------------

 Electric dipole moment (input orientation):
 (Debye = 10**-18 statcoulomb cm , SI units = C m)
                  (au)            (Debye)         (10**-30 SI)
   Tot        0.260656D+01      0.662523D+01      0.220994D+02
   x         -0.103316D+01     -0.262603D+01     -0.875951D+01
   y          0.239306D+01      0.608255D+01      0.202892D+02
   z         -0.559706D-02     -0.142263D-01     -0.474539D-01

 Dipole polarizability, Alpha (input orientation).
 (esu units = cm**3 , SI units = C**2 m**2 J**-1)
 Alpha(0;0):
               (au)            (10**-24 esu)      (10**-40 SI)
   iso        0.727839D+02      0.107855D+02      0.120004D+02
   aniso      0.496662D+02      0.735977D+01      0.818885D+01
   xx         0.952543D+02      0.141152D+02      0.157053D+02
   yx        -0.368644D+01     -0.546275D+00     -0.607813D+00
   yy         0.822837D+02      0.121932D+02      0.135667D+02
   zx        -0.629169D-01     -0.932333D-02     -0.103736D-01
   zy        -0.130074D+00     -0.192750D-01     -0.214463D-01
   zz         0.408136D+02      0.604795D+01      0.672925D+01

 ----------------------------------------------------------------------

 Dipole orientation:
     7         -0.50492641         -0.21485248          2.48764464
     7         -0.10645183         -0.04339179          0.01989415
     7         -2.00498156         -0.87010673         -1.38207481
     7         -3.71826819         -1.61409064          0.18708908
     6         -2.77721315         -1.20332612          2.54689821
     6          2.17688650          0.94864972         -1.07473332
     8          2.42960201          1.05875175         -3.32198314
     8          3.85963663          1.67949373          0.59430693
     1          3.31385244          1.44138023          2.34157391
     1         -3.78422159         -1.63974637          4.26375659

 Electric dipole moment (dipole orientation):
 (Debye = 10**-18 statcoulomb cm , SI units = C m)
                  (au)            (Debye)         (10**-30 SI)
   Tot        0.260656D+01      0.662523D+01      0.220994D+02
   x          0.000000D+00      0.000000D+00      0.000000D+00
   y          0.000000D+00      0.000000D+00      0.000000D+00
   z          0.260656D+01      0.662523D+01      0.220994D+02

 Dipole polarizability, Alpha (dipole orientation).
 (esu units = cm**3 , SI units = C**2 m**2 J**-1)
 Alpha(0;0):
               (au)            (10**-24 esu)      (10**-40 SI)
   iso        0.727839D+02      0.107855D+02      0.120004D+02
   aniso      0.496662D+02      0.735977D+01      0.818885D+01
   xx         0.826311D+02      0.122447D+02      0.136240D+02
   yx         0.181789D+02      0.269384D+01      0.299730D+01
   yy         0.487158D+02      0.721893D+01      0.803214D+01
   zx        -0.665236D+01     -0.985777D+00     -0.109683D+01
   zy        -0.287716D+01     -0.426352D+00     -0.474380D+00
   zz         0.870047D+02      0.128928D+02      0.143451D+02

 ----------------------------------------------------------------------
 Unable to Open any file for archive entry.
 1\1\GINC-XIELAB72C\Freq\RM062X\6-31+G(d,p)\C2H2N4O2\TINKER\29-Oct-2023
 \0\\#N Geom=AllCheck Guess=TCheck SCRF=Check GenChk RM062X/6-31+G(d,p)
  Freq\\Title Card Required\\0,1\N,-0.7883713712,1.0934776611,-0.004352
 5664\N,-0.0600092937,-0.0144441483,-0.0012697045\N,-0.7719678608,-1.12
 98890146,0.0037522235\N,-2.0085615081,-0.7593157422,0.0040593287\C,-2.
 004680496,0.6025188182,-0.0007988264\C,1.3790848717,-0.0240767747,-0.0
 030622748\O,1.9843677325,-1.0580438915,-0.000992856\O,1.9203164133,1.1
 71599254,-0.0070701774\H,1.2645329655,1.8955815235,-0.0078504127\H,-2.
 8979971132,1.2064222144,-0.001942304\\Version=ES64L-G16RevC.01\State=1
 -A\HF=-446.6908077\RMSD=2.020e-09\RMSF=1.401e-04\ZeroPoint=0.0629201\T
 hermal=0.0688246\ETot=-446.6219831\HTot=-446.6210389\GTot=-446.6583587
 \Dipole=-1.0331612,2.3930581,-0.0055971\DipoleDeriv=0.0343752,0.032108
 7,-0.0005961,-0.4933557,-0.5456654,0.0019224,0.0012811,0.0013902,-0.20
 52911,-1.9334701,-0.2068705,0.0034922,-0.1845629,0.0538244,0.0001435,0
 .0033386,0.0003116,0.1157073,0.7982781,0.3509032,-0.0025326,0.533185,-
 0.2196735,-0.0002896,-0.0031204,-0.0000474,-0.1091591,-0.8737989,-0.11
 76088,0.001259,0.5487395,-0.1252764,-0.0012155,-0.0011669,-0.000314,-0
 .2597762,0.1436266,-0.1117892,0.0004194,-0.4705398,0.3866774,-0.000324
 ,0.0017133,-0.0008573,0.1200104,3.3990781,-0.0204658,-0.0034861,-0.300
 3449,2.9531306,-0.0058302,-0.0026717,-0.0063226,0.6582326,-1.3649336,0
 .4922853,-0.0002469,0.6379595,-1.4697061,0.0017822,-0.000736,0.0019031
 ,-0.5079868,-0.9054501,-0.3923006,0.0015998,-0.308225,-1.825247,0.0040
 483,0.0013627,0.0042034,-0.4966857,0.5247845,-0.0200287,0.0000121,0.04
 34446,0.6396705,-0.0004456,-0.0000267,-0.0005049,0.4753935,0.1775101,-
 0.0062336,0.000079,-0.0063003,0.1522655,0.0002084,0.0000261,0.000238,0
 .2095551\Polar=95.2542801,-3.6864445,82.2836909,-0.0629169,-0.130074,4
 0.8135967\Quadrupole=-2.2363141,-0.3194287,2.5557428,-1.0868843,0.0142
 829,0.0143452\PG=C01 [X(C2H2N4O2)]\NImag=0\\0.62862405,0.07778978,0.55
 944893,-0.00096669,-0.00172094,0.10924136,-0.14102987,0.04821027,-0.00
 010311,0.80490581,0.11575809,-0.25301195,0.00047794,-0.01474637,0.6730
 1999,-0.00034912,0.00057522,-0.07468280,-0.00084127,-0.00190554,0.1209
 0664,-0.05104369,-0.02882422,0.00022117,-0.09298287,-0.07657007,0.0003
 0396,0.57737708,0.03152802,-0.11529955,0.00048494,-0.01234452,-0.25769
 035,0.00067488,-0.10717280,0.57225802,-0.00001031,0.00056658,0.0291466
 2,0.00008087,0.00077368,-0.07526120,-0.00023833,-0.00150709,0.11832963
 ,0.01020659,-0.00520412,0.00004542,-0.18396505,-0.08555010,0.00059830,
 -0.37064023,0.07526422,0.00009907,0.63976656,-0.13667086,-0.05065232,0
 .00049313,0.02839112,-0.01648689,0.00012409,0.10738488,-0.14885694,0.0
 0004571,0.02192403,0.50829274,0.00053457,0.00031254,0.03273693,0.00018
 191,0.00027295,0.02702083,-0.00001797,0.00009229,-0.09555666,-0.000787
 69,-0.00144807,0.11610391,-0.38728770,-0.11331543,0.00085384,-0.114269
 52,0.06441137,-0.00006268,-0.01641077,0.02907842,-0.00004281,-0.125660
 44,-0.00014989,0.00004525,0.91647016,-0.10553887,-0.16346479,0.0004567
 4,-0.03811396,-0.00222430,0.00009286,0.13883909,-0.06014157,0.00012781
 ,-0.02494637,-0.27491283,0.00071067,-0.13795372,0.66880208,0.00081648,
 0.00046556,-0.08073373,0.00030857,-0.00004768,0.01060541,-0.00044747,0
 .00027499,0.02543924,0.00014360,0.00068332,-0.08478951,-0.00049269,-0.
 00168149,0.16349034,-0.03770311,0.02578365,-0.00004860,-0.15998713,0.0
 0619202,0.00012817,-0.06196472,-0.03827226,0.00019507,0.04042270,-0.02
 610163,0.00005437,0.02068576,0.02492062,-0.00011566,0.60552258,0.02527
 248,0.00806318,-0.00014291,-0.02176491,-0.11629389,0.00026132,-0.02661
 835,0.01581840,-0.00008280,-0.01042163,-0.00828954,0.00007995,0.005836
 66,-0.01059721,0.00004622,-0.19319083,1.01087380,-0.00007896,-0.000106
 41,-0.01378023,0.00020224,0.00022441,-0.04924901,0.00016273,-0.0000589
 2,-0.01477964,-0.00000604,0.00009770,0.00905612,-0.00003954,0.00001876
 ,0.00433358,0.00001691,-0.00199628,0.20508288,-0.00166903,-0.01133099,
 0.00005313,-0.06270066,0.05284968,-0.00005098,0.01077393,0.01028734,-0
 .00004201,-0.00931640,0.00849933,-0.00002031,-0.00823156,-0.00295685,0
 .00001902,-0.26718490,0.28959672,-0.00055553,0.30850694,-0.00084182,0.
 00600610,0.00000148,0.04680653,-0.00879963,0.00000912,-0.01244587,-0.0
 0751660,0.00004778,0.00846680,-0.00436772,0.00000399,0.00421845,0.0054
 3044,-0.00002684,0.29308700,-0.57989049,0.00099634,-0.34884134,0.70812
 201,0.00001721,0.00001672,0.00502225,-0.00003757,-0.00000034,0.0164875
 7,0.00002929,0.00001329,0.00144124,-0.00001573,0.00000124,-0.00036559,
 -0.00000411,-0.00001873,-0.00071090,-0.00056179,0.00101344,-0.08082107
 ,0.00061120,-0.00140792,0.03578012,-0.00291714,-0.00480383,0.00002755,
 -0.04404199,-0.05124091,0.00023009,0.00116899,0.01235740,-0.00004584,-
 0.01013211,-0.00051673,0.00001663,-0.00014219,-0.00518216,0.00001952,-
 0.16133901,-0.05931013,0.00033751,0.03061528,0.02039661,-0.00008005,0.
 44321808,0.00830218,-0.00405130,0.00000993,-0.03152391,-0.01873698,0.0
 0013573,0.00579245,0.00984172,-0.00002960,-0.00689629,0.00434989,-0.00
 001298,-0.00457120,-0.00370761,0.00002314,-0.11503712,-0.27678056,0.00
 076867,0.00737947,-0.12221335,0.00036783,-0.10767044,0.68012573,-0.000
 02540,0.00002296,0.00019641,0.00016469,0.00014826,0.01450682,-0.000016
 97,-0.00002544,0.00455669,0.00002975,-0.00002434,-0.00210640,0.0000171
 5,0.00002158,0.00077949,0.00046728,0.00065546,-0.05600953,-0.00003965,
 0.00035114,0.01679348,-0.00036813,-0.00148889,0.02923059,-0.00131558,-
 0.00387294,-0.00003944,-0.00383784,-0.00795383,0.00001842,0.00148530,0
 .00285517,-0.00001414,-0.00015864,0.00194580,-0.00000811,-0.00323570,0
 .00096993,0.00000201,0.02123906,-0.01025372,-0.00003861,-0.00027910,-0
 .01101876,0.00004224,-0.25639313,0.24426101,-0.00022867,0.24251072,-0.
 00032304,-0.00012988,-0.00001661,0.00219714,0.00046145,-0.00001107,-0.
 00089899,-0.00256165,0.00001107,0.00290432,0.00000373,-0.00000333,0.00
 025878,0.00122586,-0.00000503,0.02160246,-0.04398999,0.00005365,-0.004
 74796,0.00276873,0.00001769,0.19600986,-0.26877806,0.00033950,-0.21708
 081,0.31091511,-0.00001675,-0.00004750,-0.00314598,0.00000203,0.000015
 93,0.00087068,0.00000066,0.00000097,-0.00063882,-0.00000522,0.00000212
 ,0.00078026,0.00000136,-0.00000530,-0.00067450,-0.00013456,0.00016428,
 -0.00580690,0.00002340,0.00002922,0.00715902,-0.00013718,0.00022614,-0
 .00782532,0.00026643,-0.00038526,0.00935726,-0.01586453,0.01556783,-0.
 00004328,-0.00209087,-0.00314987,0.00002511,0.00223699,-0.00358100,0.0
 0001843,0.00947703,-0.00470604,0.00000135,-0.28191803,0.14996229,-0.00
 025337,0.00030878,0.00085370,-0.00000070,-0.00051450,0.00017241,-0.000
 00069,-0.00003677,-0.00003616,-0.00000004,-0.00001509,0.00007825,-0.00
 000017,0.28841699,-0.01527596,0.01309158,-0.00004369,-0.00711139,-0.00
 023745,0.00004339,0.00051388,-0.00585149,0.00004686,0.02445914,-0.0090
 8012,-0.00000801,0.15218656,-0.16041008,0.00026781,0.00101609,0.001086
 30,0.00000209,-0.00073539,0.00046052,-0.00000321,-0.00003967,-0.000049
 48,-0.00000023,0.00014816,0.00008471,-0.00000060,-0.15516140,0.1609055
 2,0.00007897,-0.00008473,-0.00400083,0.00004164,0.00004040,0.00879506,
 0.00000292,0.00005008,0.00732289,-0.00010144,0.00002511,-0.00287991,-0
 .00027576,0.00027709,-0.03773941,-0.00000120,0.00000133,0.00197380,0.0
 0000173,-0.00000431,-0.00078611,-0.00000009,0.00000003,-0.00012223,-0.
 00000013,-0.00000060,-0.00007570,0.00025337,-0.00030440,0.02751244\\0.
 00004811,0.00002381,-0.00004173,-0.00025957,-0.00020345,0.00000683,0.0
 0024250,-0.00023116,0.00000780,0.00015632,0.00033009,-0.00001950,-0.00
 028252,-0.00003512,0.00004066,-0.00003861,-0.00017938,0.00000935,0.000
 04448,0.00000030,-0.00000229,0.00006109,0.00031910,-0.00000339,0.00002
 053,-0.00005708,0.00001095,0.00000767,0.00003289,-0.00000868\\\@
 The archive entry for this job was punched.


 HE WHO LOVES TO READ, AND KNOWS HOW TO REFLECT,
 HAS LAID BY A PERPETUAL FEAST FOR HIS OLD AGE.
 -- UNCLE ESEK, "SCRIBNER'S MONTHLY", SEPT. 1880
 Job cpu time:       0 days  0 hours 21 minutes 45.7 seconds.
 Elapsed time:       0 days  0 hours  0 minutes 55.5 seconds.
 File lengths (MBytes):  RWF=     52 Int=      0 D2E=      0 Chk=      6 Scr=      1
 Normal termination of Gaussian 16 at Sun Oct 29 03:49:09 2023.
