 Entering Gaussian System, Link 0=/opt/soft/g16b/g16/g16
 Initial command:
 /opt/soft/g16b/g16/l1.exe "/scratch/gongke2021/1-H-Tz-1-eletron/Gau-20956.inp" -scrdir="/scratch/gongke2021/1-H-Tz-1-eletron/"
 Entering Link 1 = /opt/soft/g16b/g16/l1.exe PID=     20957.
  
 Copyright (c) 1988,1990,1992,1993,1995,1998,2003,2009,2016,
            Gaussian, Inc.  All Rights Reserved.
  
 This is part of the Gaussian(R) 16 program.  It is based on
 the Gaussian(R) 09 system (copyright 2009, Gaussian, Inc.),
 the Gaussian(R) 03 system (copyright 2003, Gaussian, Inc.),
 the Gaussian(R) 98 system (copyright 1998, Gaussian, Inc.),
 the Gaussian(R) 94 system (copyright 1995, Gaussian, Inc.),
 the Gaussian 92(TM) system (copyright 1992, Gaussian, Inc.),
 the Gaussian 90(TM) system (copyright 1990, Gaussian, Inc.),
 the Gaussian 88(TM) system (copyright 1988, Gaussian, Inc.),
 the Gaussian 86(TM) system (copyright 1986, Carnegie Mellon
 University), and the Gaussian 82(TM) system (copyright 1983,
 Carnegie Mellon University). Gaussian is a federally registered
 trademark of Gaussian, Inc.
  
 This software contains proprietary and confidential information,
 including trade secrets, belonging to Gaussian, Inc.
  
 This software is provided under written license and may be
 used, copied, transmitted, or stored only in accord with that
 written license.
  
 The following legend is applicable only to US Government
 contracts under FAR:
  
                    RESTRICTED RIGHTS LEGEND
  
 Use, reproduction and disclosure by the US Government is
 subject to restrictions as set forth in subparagraphs (a)
 and (c) of the Commercial Computer Software - Restricted
 Rights clause in FAR 52.227-19.
  
 Gaussian, Inc.
 340 Quinnipiac St., Bldg. 40, Wallingford CT 06492
  
  
 ---------------------------------------------------------------
 Warning -- This program may not be used in any manner that
 competes with the business of Gaussian, Inc. or will provide
 assistance to any competitor of Gaussian, Inc.  The licensee
 of this program is prohibited from giving any competitor of
 Gaussian, Inc. access to this program.  By using this program,
 the user acknowledges that Gaussian, Inc. is engaged in the
 business of creating and licensing software in the field of
 computational chemistry and represents and warrants to the
 licensee that it is not a competitor of Gaussian, Inc. and that
 it will not use this program in any manner prohibited above.
 ---------------------------------------------------------------
  

 Cite this work as:
 Gaussian 16, Revision A.03,
 M. J. Frisch, G. W. Trucks, H. B. Schlegel, G. E. Scuseria, 
 M. A. Robb, J. R. Cheeseman, G. Scalmani, V. Barone, 
 G. A. Petersson, H. Nakatsuji, X. Li, M. Caricato, A. V. Marenich, 
 J. Bloino, B. G. Janesko, R. Gomperts, B. Mennucci, H. P. Hratchian, 
 J. V. Ortiz, A. F. Izmaylov, J. L. Sonnenberg, D. Williams-Young, 
 F. Ding, F. Lipparini, F. Egidi, J. Goings, B. Peng, A. Petrone, 
 T. Henderson, D. Ranasinghe, V. G. Zakrzewski, J. Gao, N. Rega, 
 G. Zheng, W. Liang, M. Hada, M. Ehara, K. Toyota, R. Fukuda, 
 J. Hasegawa, M. Ishida, T. Nakajima, Y. Honda, O. Kitao, H. Nakai, 
 T. Vreven, K. Throssell, J. A. Montgomery, Jr., J. E. Peralta, 
 F. Ogliaro, M. J. Bearpark, J. J. Heyd, E. N. Brothers, K. N. Kudin, 
 V. N. Staroverov, T. A. Keith, R. Kobayashi, J. Normand, 
 K. Raghavachari, A. P. Rendell, J. C. Burant, S. S. Iyengar, 
 J. Tomasi, M. Cossi, J. M. Millam, M. Klene, C. Adamo, R. Cammi, 
 J. W. Ochterski, R. L. Martin, K. Morokuma, O. Farkas, 
 J. B. Foresman, and D. J. Fox, Gaussian, Inc., Wallingford CT, 2016.
 
 ******************************************
 Gaussian 16:  ES64L-G16RevA.03 25-Dec-2016
                 1-Jul-2023 
 ******************************************
 %mem=10GB
 %nprocshared=20
 Will use up to   20 processors via shared memory.
 -----------------------------------------------------
 # opt freq 6-31+g(d,p) m062x scrf=(SMD,solvent=water)
 -----------------------------------------------------
 1/18=20,19=15,26=3,38=1/1,3;
 2/9=110,12=2,17=6,18=5,40=1/2;
 3/5=1,6=6,7=111,11=2,25=1,30=1,70=32201,71=1,72=1,74=-55/1,2,3;
 4//1;
 5/5=2,38=5,53=1/2;
 6/7=2,8=2,9=2,10=2,28=1/1;
 7//1,2,3,16;
 1/18=20,19=15,26=3/3(2);
 2/9=110/2;
 99//99;
 2/9=110/2;
 3/5=1,6=6,7=111,11=2,25=1,30=1,70=32205,71=1,72=1,74=-55/1,2,3;
 4/5=5,16=3,69=1/1;
 5/5=2,38=5,53=1/2;
 7//1,2,3,16;
 1/18=20,19=15,26=3/3(-5);
 2/9=110/2;
 6/7=2,8=2,9=2,10=2,19=2,28=1/1;
 99/9=1/99;
 ----------
 "Sketch 2"
 ----------
 Symbolic Z-matrix:
 Charge = -1 Multiplicity = 2
 N                     0.05085  -0.05768   0.00004 
 N                     0.71356   1.10294  -0.00037 
 C                     1.98021   0.74162   0.00031 
 C                     2.04042  -0.6738   -0.00005 
 N                     0.81236  -1.15232  -0.00008 
 H                     2.7779    1.46906   0.00051 
 H                     2.90065  -1.32586  -0.00003 
 H                    -1.32405   1.79927  -0.00041 
 C                    -1.36578  -0.11933  -0.00005 
 O                    -1.96088   1.05872   0.00013 
 O                    -1.95423  -1.16922   0.00006 
 

 GradGradGradGradGradGradGradGradGradGradGradGradGradGradGradGradGradGrad
 Berny optimization.
 Initialization pass.
                           ----------------------------
                           !    Initial Parameters    !
                           ! (Angstroms and Degrees)  !
 --------------------------                            --------------------------
 ! Name  Definition              Value          Derivative Info.                !
 --------------------------------------------------------------------------------
 ! R1    R(1,2)                  1.3365         estimate D2E/DX2                !
 ! R2    R(1,5)                  1.3335         estimate D2E/DX2                !
 ! R3    R(1,9)                  1.418          estimate D2E/DX2                !
 ! R4    R(2,3)                  1.3172         estimate D2E/DX2                !
 ! R5    R(3,4)                  1.4167         estimate D2E/DX2                !
 ! R6    R(3,6)                  1.0796         estimate D2E/DX2                !
 ! R7    R(4,5)                  1.318          estimate D2E/DX2                !
 ! R8    R(4,7)                  1.0794         estimate D2E/DX2                !
 ! R9    R(8,10)                 0.9767         estimate D2E/DX2                !
 ! R10   R(9,10)                 1.3198         estimate D2E/DX2                !
 ! R11   R(9,11)                 1.2036         estimate D2E/DX2                !
 ! A1    A(2,1,5)              115.4489         estimate D2E/DX2                !
 ! A2    A(2,1,9)              122.2175         estimate D2E/DX2                !
 ! A3    A(5,1,9)              122.3336         estimate D2E/DX2                !
 ! A4    A(1,2,3)              103.8046         estimate D2E/DX2                !
 ! A5    A(2,3,4)              108.3573         estimate D2E/DX2                !
 ! A6    A(2,3,6)              121.7159         estimate D2E/DX2                !
 ! A7    A(4,3,6)              129.9268         estimate D2E/DX2                !
 ! A8    A(3,4,5)              108.8526         estimate D2E/DX2                !
 ! A9    A(3,4,7)              129.5983         estimate D2E/DX2                !
 ! A10   A(5,4,7)              121.5491         estimate D2E/DX2                !
 ! A11   A(1,5,4)              103.5365         estimate D2E/DX2                !
 ! A12   A(1,9,10)             114.3096         estimate D2E/DX2                !
 ! A13   A(1,9,11)             121.7618         estimate D2E/DX2                !
 ! A14   A(10,9,11)            123.9286         estimate D2E/DX2                !
 ! A15   A(8,10,9)             112.5051         estimate D2E/DX2                !
 ! D1    D(5,1,2,3)             -0.0488         estimate D2E/DX2                !
 ! D2    D(9,1,2,3)            179.981          estimate D2E/DX2                !
 ! D3    D(2,1,5,4)              0.0248         estimate D2E/DX2                !
 ! D4    D(9,1,5,4)            179.9949         estimate D2E/DX2                !
 ! D5    D(2,1,9,10)            -0.0336         estimate D2E/DX2                !
 ! D6    D(2,1,9,11)           179.9855         estimate D2E/DX2                !
 ! D7    D(5,1,9,10)           179.9983         estimate D2E/DX2                !
 ! D8    D(5,1,9,11)             0.0173         estimate D2E/DX2                !
 ! D9    D(1,2,3,4)              0.0502         estimate D2E/DX2                !
 ! D10   D(1,2,3,6)           -179.9802         estimate D2E/DX2                !
 ! D11   D(2,3,4,5)             -0.039          estimate D2E/DX2                !
 ! D12   D(2,3,4,7)            179.9775         estimate D2E/DX2                !
 ! D13   D(6,3,4,5)            179.9946         estimate D2E/DX2                !
 ! D14   D(6,3,4,7)              0.0112         estimate D2E/DX2                !
 ! D15   D(3,4,5,1)              0.0089         estimate D2E/DX2                !
 ! D16   D(7,4,5,1)            179.9939         estimate D2E/DX2                !
 ! D17   D(1,9,10,8)             0.0454         estimate D2E/DX2                !
 ! D18   D(11,9,10,8)         -179.9741         estimate D2E/DX2                !
 --------------------------------------------------------------------------------
 Trust Radius=3.00D-01 FncErr=1.00D-07 GrdErr=1.00D-06 EigMax=2.50D+02 EigMin=1.00D-04
 Number of steps in this run=     54 maximum allowed number of steps=    100.
 GradGradGradGradGradGradGradGradGradGradGradGradGradGradGradGradGradGrad

                          Input orientation:                          
 ---------------------------------------------------------------------
 Center     Atomic      Atomic             Coordinates (Angstroms)
 Number     Number       Type             X           Y           Z
 ---------------------------------------------------------------------
      1          7           0        0.050851   -0.057684    0.000042
      2          7           0        0.713556    1.102942   -0.000368
      3          6           0        1.980205    0.741618    0.000306
      4          6           0        2.040419   -0.673799   -0.000049
      5          7           0        0.812356   -1.152320   -0.000082
      6          1           0        2.777899    1.469063    0.000509
      7          1           0        2.900652   -1.325860   -0.000030
      8          1           0       -1.324053    1.799271   -0.000409
      9          6           0       -1.365776   -0.119326   -0.000051
     10          8           0       -1.960882    1.058724    0.000132
     11          8           0       -1.954233   -1.169223    0.000061
 ---------------------------------------------------------------------
                    Distance matrix (angstroms):
                    1          2          3          4          5
     1  N    0.000000
     2  N    1.336499   0.000000
     3  C    2.088370   1.317177   0.000000
     4  C    2.082781   2.217515   1.416697   0.000000
     5  N    1.333461   2.257425   2.225056   1.317999   0.000000
     6  H    3.125340   2.096558   1.079580   2.266216   3.276432
     7  H    3.119236   3.268405   2.263115   1.079437   2.095494
     8  H    2.310550   2.153305   3.469402   4.175613   3.643643
     9  C    1.417967   2.411962   3.454969   3.451030   2.410671
    10  O    2.300747   2.674804   3.953824   4.360280   3.546768
    11  O    2.292571   3.504259   4.373913   4.025256   2.766641
                    6          7          8          9         10
     6  H    0.000000
     7  H    2.797617   0.000000
     8  H    4.115222   5.254957   0.000000
     9  C    4.437682   4.433749   1.919051   0.000000
    10  O    4.756514   5.414864   0.976709   1.319831   0.000000
    11  O    5.417899   4.857411   3.034647   1.203564   2.227957
                   11
    11  O    0.000000
 Stoichiometry    C3H3N3O2(1-,2)
 Framework group  C1[X(C3H3N3O2)]
 Deg. of freedom    27
 Full point group                 C1      NOp   1
 Largest Abelian subgroup         C1      NOp   1
 Largest concise Abelian subgroup C1      NOp   1
                         Standard orientation:                         
 ---------------------------------------------------------------------
 Center     Atomic      Atomic             Coordinates (Angstroms)
 Number     Number       Type             X           Y           Z
 ---------------------------------------------------------------------
      1          7           0        0.050851   -0.057684    0.000042
      2          7           0        0.713556    1.102942   -0.000368
      3          6           0        1.980205    0.741618    0.000306
      4          6           0        2.040419   -0.673799   -0.000049
      5          7           0        0.812356   -1.152320   -0.000082
      6          1           0        2.777899    1.469063    0.000509
      7          1           0        2.900652   -1.325860   -0.000030
      8          1           0       -1.324053    1.799271   -0.000409
      9          6           0       -1.365776   -0.119326   -0.000051
     10          8           0       -1.960882    1.058724    0.000132
     11          8           0       -1.954233   -1.169223    0.000061
 ---------------------------------------------------------------------
 Rotational constants (GHZ):           5.3286364           1.8292584           1.3617765
 Standard basis: 6-31+G(d,p) (6D, 7F)
 There are   167 symmetry adapted cartesian basis functions of A   symmetry.
 There are   167 symmetry adapted basis functions of A   symmetry.
   167 basis functions,   277 primitive gaussians,   167 cartesian basis functions
    30 alpha electrons       29 beta electrons
       nuclear repulsion energy       363.7420586451 Hartrees.
 NAtoms=   11 NActive=   11 NUniq=   11 SFac= 1.00D+00 NAtFMM=   60 NAOKFM=F Big=F
 Integral buffers will be    131072 words long.
 Raffenetti 2 integral format.
 Two-electron integral symmetry is turned on.
 ------------------------------------------------------------------------------
 Polarizable Continuum Model (PCM)
 =================================
 Model                : PCM.
 Atomic radii         : SMD-Coulomb.
 Polarization charges : Total charges.
 Charge compensation  : None.
 Solution method      : On-the-fly selection.
 Cavity type          : VdW (van der Waals Surface) (Alpha=1.000).
 Cavity algorithm     : GePol (No added spheres)
                        Default sphere list used, NSphG=   11.
                        Lebedev-Laikov grids with approx.  5.0 points / Ang**2.
                        Smoothing algorithm: York/Karplus (Gamma=1.0000).
                        Polarization charges: spherical gaussians, with
                                              point-specific exponents (IZeta= 3).
                        Self-potential: point-specific (ISelfS= 7).
                        Self-field    : sphere-specific E.n sum rule (ISelfD= 2).
 1st derivatives      : Analytical E(r).r(x)/FMM algorithm (CHGder, D1EAlg=3).
                        Cavity 1st derivative terms included.
 Solvent              : Water, Eps=  78.355300 Eps(inf)=   1.777849
 ------------------------------------------------------------------------------
 Spheres list:
 ISph  on   Nord     Re0    Alpha      Xe            Ye            Ze
    1   N      1    1.8900  1.000      0.050851     -0.057684      0.000042
    2   N      2    1.8900  1.000      0.713556      1.102942     -0.000368
    3   C      3    1.8500  1.000      1.980205      0.741618      0.000306
    4   C      4    1.8500  1.000      2.040419     -0.673799     -0.000049
    5   N      5    1.8900  1.000      0.812356     -1.152320     -0.000082
    6   H      6    1.2000  1.000      2.777899      1.469063      0.000509
    7   H      7    1.2000  1.000      2.900652     -1.325860     -0.000030
    8   H      8    1.2000  1.000     -1.324053      1.799271     -0.000409
    9   C      9    1.8500  1.000     -1.365776     -0.119326     -0.000051
   10   O     10    1.5200  1.000     -1.960882      1.058724      0.000132
   11   O     11    1.5200  1.000     -1.954233     -1.169223      0.000061
 ------------------------------------------------------------------------------
 ------------------------------------------------------------------------------
 Atomic radii for non-electrostatic terms: SMD-CDS.
 ------------------------------------------------------------------------------
 Nuclear repulsion after PCM non-electrostatic terms =      363.7480984741 Hartrees.
 One-electron integrals computed using PRISM.
 NBasis=   167 RedAO= T EigKep=  2.29D-05  NBF=   167
 NBsUse=   167 1.00D-06 EigRej= -1.00D+00 NBFU=   167
 ExpMin= 4.38D-02 ExpMax= 5.48D+03 ExpMxC= 8.25D+02 IAcc=3 IRadAn=         5 AccDes= 0.00D+00
 Harris functional with IExCor= 1009 and IRadAn=       5 diagonalized for initial guess.
 HarFok:  IExCor= 1009 AccDes= 0.00D+00 IRadAn=         5 IDoV= 1 UseB2=F ITyADJ=14
 ICtDFT=  3500011 ScaDFX=  1.000000  1.000000  1.000000  1.000000
 FoFCou: FMM=F IPFlag=           0 FMFlag=      100000 FMFlg1=           0
         NFxFlg=           0 DoJE=T BraDBF=F KetDBF=T FulRan=T
         wScrn=  0.000000 ICntrl=       500 IOpCl=  0 I1Cent=   200000004 NGrid=           0
         NMat0=    1 NMatS0=      1 NMatT0=    0 NMatD0=    1 NMtDS0=    0 NMtDT0=    0
 Petite list used in FoFCou.
 Initial guess <Sx>= 0.0000 <Sy>= 0.0000 <Sz>= 0.5000 <S**2>= 0.7500 S= 0.5000
 Keep R1 and R2 ints in memory in canonical form, NReq=216648901.
 Requested convergence on RMS density matrix=1.00D-08 within 128 cycles.
 Requested convergence on MAX density matrix=1.00D-06.
 Requested convergence on             energy=1.00D-06.
 No special actions if energy rises.
 Inv3:  Mode=1 IEnd=     2940300.
 Iteration    1 A*A^-1 deviation from unit magnitude is 4.22D-15 for    231.
 Iteration    1 A*A^-1 deviation from orthogonality  is 3.59D-15 for    987    855.
 Iteration    1 A^-1*A deviation from unit magnitude is 4.22D-15 for    985.
 Iteration    1 A^-1*A deviation from orthogonality  is 1.39D-15 for    584     75.
 Error on total polarization charges =  0.05244
 SCF Done:  E(UM062X) =  -430.748743790     A.U. after   17 cycles
            NFock= 17  Conv=0.70D-08     -V/T= 2.0074
 <Sx>= 0.0000 <Sy>= 0.0000 <Sz>= 0.5000 <S**2>= 0.7613 S= 0.5057
 <L.S>= 0.000000000000E+00
 SMD-CDS (non-electrostatic) energy       (kcal/mol) =       3.79
 (included in total energy above)
 Annihilation of the first spin contaminant:
 S**2 before annihilation     0.7613,   after     0.7501

 **********************************************************************

            Population analysis using the SCF density.

 **********************************************************************

 Orbital symmetries:
 Alpha Orbitals:
       Occupied  (A) (A) (A) (A) (A) (A) (A) (A) (A) (A) (A) (A)
                 (A) (A) (A) (A) (A) (A) (A) (A) (A) (A) (A) (A)
                 (A) (A) (A) (A) (A) (A)
       Virtual   (A) (A) (A) (A) (A) (A) (A) (A) (A) (A) (A) (A)
                 (A) (A) (A) (A) (A) (A) (A) (A) (A) (A) (A) (A)
                 (A) (A) (A) (A) (A) (A) (A) (A) (A) (A) (A) (A)
                 (A) (A) (A) (A) (A) (A) (A) (A) (A) (A) (A) (A)
                 (A) (A) (A) (A) (A) (A) (A) (A) (A) (A) (A) (A)
                 (A) (A) (A) (A) (A) (A) (A) (A) (A) (A) (A) (A)
                 (A) (A) (A) (A) (A) (A) (A) (A) (A) (A) (A) (A)
                 (A) (A) (A) (A) (A) (A) (A) (A) (A) (A) (A) (A)
                 (A) (A) (A) (A) (A) (A) (A) (A) (A) (A) (A) (A)
                 (A) (A) (A) (A) (A) (A) (A) (A) (A) (A) (A) (A)
                 (A) (A) (A) (A) (A) (A) (A) (A) (A) (A) (A) (A)
                 (A) (A) (A) (A) (A)
 Beta  Orbitals:
       Occupied  (A) (A) (A) (A) (A) (A) (A) (A) (A) (A) (A) (A)
                 (A) (A) (A) (A) (A) (A) (A) (A) (A) (A) (A) (A)
                 (A) (A) (A) (A) (A)
       Virtual   (A) (A) (A) (A) (A) (A) (A) (A) (A) (A) (A) (A)
                 (A) (A) (A) (A) (A) (A) (A) (A) (A) (A) (A) (A)
                 (A) (A) (A) (A) (A) (A) (A) (A) (A) (A) (A) (A)
                 (A) (A) (A) (A) (A) (A) (A) (A) (A) (A) (A) (A)
                 (A) (A) (A) (A) (A) (A) (A) (A) (A) (A) (A) (A)
                 (A) (A) (A) (A) (A) (A) (A) (A) (A) (A) (A) (A)
                 (A) (A) (A) (A) (A) (A) (A) (A) (A) (A) (A) (A)
                 (A) (A) (A) (A) (A) (A) (A) (A) (A) (A) (A) (A)
                 (A) (A) (A) (A) (A) (A) (A) (A) (A) (A) (A) (A)
                 (A) (A) (A) (A) (A) (A) (A) (A) (A) (A) (A) (A)
                 (A) (A) (A) (A) (A) (A) (A) (A) (A) (A) (A) (A)
                 (A) (A) (A) (A) (A) (A)
 The electronic state is 2-A.
 Alpha  occ. eigenvalues --  -19.68377 -19.61976 -14.84915 -14.76139 -14.75820
 Alpha  occ. eigenvalues --  -10.68753 -10.55103 -10.54975  -1.24814  -1.19040
 Alpha  occ. eigenvalues --   -1.14404  -0.97836  -0.92135  -0.73948  -0.69487
 Alpha  occ. eigenvalues --   -0.68726  -0.61403  -0.57621  -0.54455  -0.52569
 Alpha  occ. eigenvalues --   -0.50360  -0.49276  -0.46808  -0.40710  -0.37999
 Alpha  occ. eigenvalues --   -0.37445  -0.35435  -0.35089  -0.32363  -0.12550
 Alpha virt. eigenvalues --    0.02405   0.04090   0.04655   0.05394   0.06800
 Alpha virt. eigenvalues --    0.07077   0.08034   0.09495   0.10163   0.11064
 Alpha virt. eigenvalues --    0.11204   0.12096   0.13577   0.15513   0.16830
 Alpha virt. eigenvalues --    0.19689   0.20841   0.21250   0.21343   0.22688
 Alpha virt. eigenvalues --    0.22900   0.23975   0.25119   0.25894   0.26699
 Alpha virt. eigenvalues --    0.27552   0.27856   0.28278   0.29470   0.30268
 Alpha virt. eigenvalues --    0.30505   0.31456   0.33210   0.34586   0.35215
 Alpha virt. eigenvalues --    0.36303   0.38803   0.41042   0.41653   0.43100
 Alpha virt. eigenvalues --    0.46970   0.49393   0.52066   0.58004   0.67790
 Alpha virt. eigenvalues --    0.73409   0.74895   0.77371   0.80254   0.82516
 Alpha virt. eigenvalues --    0.88156   0.91329   0.91962   0.96547   0.97284
 Alpha virt. eigenvalues --    0.99424   0.99712   1.02908   1.03541   1.04676
 Alpha virt. eigenvalues --    1.07156   1.12570   1.13925   1.15863   1.19340
 Alpha virt. eigenvalues --    1.22463   1.23585   1.28298   1.30441   1.33303
 Alpha virt. eigenvalues --    1.33596   1.33949   1.36629   1.38281   1.39808
 Alpha virt. eigenvalues --    1.42081   1.42674   1.45560   1.46273   1.49544
 Alpha virt. eigenvalues --    1.51507   1.57264   1.59577   1.64023   1.64229
 Alpha virt. eigenvalues --    1.69918   1.79531   1.83118   1.90211   1.91116
 Alpha virt. eigenvalues --    1.95394   1.96898   2.02596   2.03252   2.04230
 Alpha virt. eigenvalues --    2.08023   2.11229   2.16477   2.22838   2.28964
 Alpha virt. eigenvalues --    2.31566   2.32404   2.35129   2.37827   2.46149
 Alpha virt. eigenvalues --    2.47273   2.51171   2.53087   2.54596   2.59588
 Alpha virt. eigenvalues --    2.60478   2.63585   2.71491   2.74413   2.75120
 Alpha virt. eigenvalues --    2.80526   2.80930   2.84781   2.88117   2.97111
 Alpha virt. eigenvalues --    3.02010   3.06651   3.17630   3.18700   3.27437
 Alpha virt. eigenvalues --    3.33734   3.38656   3.57909   3.75864   4.06997
 Alpha virt. eigenvalues --    4.23463   4.29414   4.35089   4.44247   4.56481
 Alpha virt. eigenvalues --    4.68138   4.80572
  Beta  occ. eigenvalues --  -19.68307 -19.61737 -14.84914 -14.75720 -14.75406
  Beta  occ. eigenvalues --  -10.68579 -10.55078 -10.54959  -1.24301  -1.18439
  Beta  occ. eigenvalues --   -1.13797  -0.96592  -0.91449  -0.73187  -0.69070
  Beta  occ. eigenvalues --   -0.68360  -0.60443  -0.55985  -0.53855  -0.52262
  Beta  occ. eigenvalues --   -0.48911  -0.48839  -0.46499  -0.38772  -0.37158
  Beta  occ. eigenvalues --   -0.36952  -0.34041  -0.31683  -0.30522
  Beta virt. eigenvalues --    0.01981   0.02347   0.04069   0.04232   0.04950
  Beta virt. eigenvalues --    0.06568   0.06603   0.08454   0.08930   0.09134
  Beta virt. eigenvalues --    0.10966   0.11183   0.13495   0.14046   0.14962
  Beta virt. eigenvalues --    0.15724   0.19576   0.20871   0.21109   0.21156
  Beta virt. eigenvalues --    0.22730   0.22952   0.23557   0.24845   0.26050
  Beta virt. eigenvalues --    0.26899   0.26987   0.27671   0.28480   0.29320
  Beta virt. eigenvalues --    0.30149   0.30423   0.31489   0.33108   0.34609
  Beta virt. eigenvalues --    0.35402   0.35806   0.38342   0.40826   0.41478
  Beta virt. eigenvalues --    0.43413   0.47265   0.49243   0.52333   0.58267
  Beta virt. eigenvalues --    0.68270   0.73867   0.75234   0.77552   0.81322
  Beta virt. eigenvalues --    0.82831   0.88526   0.91384   0.92128   0.96672
  Beta virt. eigenvalues --    0.97415   0.99644   1.00501   1.04828   1.04871
  Beta virt. eigenvalues --    1.05305   1.07287   1.12695   1.14049   1.16124
  Beta virt. eigenvalues --    1.19846   1.23013   1.23852   1.29290   1.30595
  Beta virt. eigenvalues --    1.33304   1.33683   1.34644   1.36752   1.38381
  Beta virt. eigenvalues --    1.40611   1.42212   1.42741   1.46874   1.47046
  Beta virt. eigenvalues --    1.50607   1.51659   1.57410   1.60604   1.64210
  Beta virt. eigenvalues --    1.64610   1.70381   1.79752   1.83601   1.90355
  Beta virt. eigenvalues --    1.91332   1.95783   1.97258   2.03386   2.03500
  Beta virt. eigenvalues --    2.04568   2.08436   2.11910   2.16952   2.23243
  Beta virt. eigenvalues --    2.29820   2.32008   2.33192   2.35737   2.38333
  Beta virt. eigenvalues --    2.46698   2.47597   2.51709   2.53400   2.55050
  Beta virt. eigenvalues --    2.60105   2.61507   2.64015   2.72137   2.74856
  Beta virt. eigenvalues --    2.75756   2.81411   2.81530   2.85165   2.88525
  Beta virt. eigenvalues --    2.97818   3.02386   3.07017   3.18377   3.19060
  Beta virt. eigenvalues --    3.28012   3.34261   3.39174   3.58048   3.76298
  Beta virt. eigenvalues --    4.07291   4.23753   4.29495   4.35277   4.44856
  Beta virt. eigenvalues --    4.58277   4.68590   4.80649
          Condensed to atoms (all electrons):
               1          2          3          4          5          6
     1  N    7.189053  -0.039321  -0.011422  -0.009140  -0.079906   0.001138
     2  N   -0.039321   7.650339   0.219562  -0.094924  -0.245176  -0.046647
     3  C   -0.011422   0.219562   5.430680   0.301019  -0.079561   0.400030
     4  C   -0.009140  -0.094924   0.301019   5.486536   0.144267  -0.028050
     5  N   -0.079906  -0.245176  -0.079561   0.144267   7.796780   0.002085
     6  H    0.001138  -0.046647   0.400030  -0.028050   0.002085   0.479113
     7  H    0.003978   0.003797  -0.034784   0.407992  -0.053863   0.000620
     8  H   -0.016340   0.037708   0.006355  -0.003788  -0.002165  -0.000022
     9  C    0.296001  -0.059141   0.004614   0.000098  -0.089790   0.000173
    10  O   -0.132392  -0.059192   0.001137  -0.010018   0.039372  -0.000017
    11  O   -0.130639   0.046679  -0.007605  -0.003133  -0.032306   0.000002
               7          8          9         10         11
     1  N    0.003978  -0.016340   0.296001  -0.132392  -0.130639
     2  N    0.003797   0.037708  -0.059141  -0.059192   0.046679
     3  C   -0.034784   0.006355   0.004614   0.001137  -0.007605
     4  C    0.407992  -0.003788   0.000098  -0.010018  -0.003133
     5  N   -0.053863  -0.002165  -0.089790   0.039372  -0.032306
     6  H    0.000620  -0.000022   0.000173  -0.000017   0.000002
     7  H    0.482657  -0.000002   0.000133   0.000026  -0.000135
     8  H   -0.000002   0.281570  -0.005211   0.247152   0.009000
     9  C    0.000133  -0.005211   4.536393   0.215622   0.367685
    10  O    0.000026   0.247152   0.215622   8.327052  -0.069225
    11  O   -0.000135   0.009000   0.367685  -0.069225   8.515169
          Atomic-Atomic Spin Densities.
               1          2          3          4          5          6
     1  N    0.180645  -0.222235   0.080110   0.086109  -0.239199   0.001393
     2  N   -0.222235   0.661108  -0.187533  -0.088128   0.135076  -0.001698
     3  C    0.080110  -0.187533   0.130522   0.136388  -0.083586  -0.002585
     4  C    0.086109  -0.088128   0.136388   0.119716  -0.196301   0.003664
     5  N   -0.239199   0.135076  -0.083586  -0.196301   0.685007  -0.000338
     6  H    0.001393  -0.001698  -0.002585   0.003664  -0.000338  -0.004047
     7  H    0.001571  -0.000165   0.002958  -0.001608  -0.002303  -0.000020
     8  H   -0.001774   0.000387  -0.000643   0.000423  -0.000341   0.000003
     9  C    0.136874  -0.041753   0.003834   0.007024  -0.043793  -0.000012
    10  O   -0.024903   0.017461  -0.001172  -0.003806   0.008305   0.000010
    11  O   -0.043169   0.012911  -0.004071  -0.004201   0.027578   0.000003
               7          8          9         10         11
     1  N    0.001571  -0.001774   0.136874  -0.024903  -0.043169
     2  N   -0.000165   0.000387  -0.041753   0.017461   0.012911
     3  C    0.002958  -0.000643   0.003834  -0.001172  -0.004071
     4  C   -0.001608   0.000423   0.007024  -0.003806  -0.004201
     5  N   -0.002303  -0.000341  -0.043793   0.008305   0.027578
     6  H   -0.000020   0.000003  -0.000012   0.000010   0.000003
     7  H   -0.003563   0.000000  -0.000039   0.000003   0.000015
     8  H    0.000000  -0.000736   0.000532   0.000721  -0.000163
     9  C   -0.000039   0.000532   0.313197  -0.049407  -0.107767
    10  O    0.000003   0.000721  -0.049407   0.056536   0.015001
    11  O    0.000015  -0.000163  -0.107767   0.015001   0.210335
 Mulliken charges and spin densities:
               1          2
     1  N   -0.071009  -0.044578
     2  N   -0.413684   0.285430
     3  C   -0.230025   0.074223
     4  C   -0.190860   0.059280
     5  N   -0.399738   0.290105
     6  H    0.191574  -0.003627
     7  H    0.189582  -0.003152
     8  H    0.445743  -0.001591
     9  C    0.733424   0.218689
    10  O   -0.559516   0.018749
    11  O   -0.695492   0.106471
 Sum of Mulliken charges =  -1.00000   1.00000
 Mulliken charges and spin densities with hydrogens summed into heavy atoms:
               1          2
     1  N   -0.071009  -0.044578
     2  N   -0.413684   0.285430
     3  C   -0.038450   0.070596
     4  C   -0.001278   0.056128
     5  N   -0.399738   0.290105
     9  C    0.733424   0.218689
    10  O   -0.113773   0.017158
    11  O   -0.695492   0.106471
 Electronic spatial extent (au):  <R**2>=            831.8807
 Charge=             -1.0000 electrons
 Dipole moment (field-independent basis, Debye):
    X=              4.3788    Y=              4.8183    Z=             -0.0007  Tot=              6.5108
 Quadrupole moment (field-independent basis, Debye-Ang):
   XX=            -60.5107   YY=            -56.7613   ZZ=            -50.1335
   XY=             -6.0899   XZ=              0.0031   YZ=             -0.0004
 Traceless Quadrupole moment (field-independent basis, Debye-Ang):
   XX=             -4.7089   YY=             -0.9594   ZZ=              5.6683
   XY=             -6.0899   XZ=              0.0031   YZ=             -0.0004
 Octapole moment (field-independent basis, Debye-Ang**2):
  XXX=             36.4756  YYY=             22.4128  ZZZ=             -0.0022  XYY=              3.1213
  XXY=             11.0837  XXZ=             -0.0019  XZZ=             -9.8005  YZZ=              1.0135
  YYZ=             -0.0010  XYZ=              0.0057
 Hexadecapole moment (field-independent basis, Debye-Ang**3):
 XXXX=           -812.3877 YYYY=           -309.1618 ZZZZ=            -57.4966 XXXY=            -20.3505
 XXXZ=              0.0118 YYYX=            -25.3314 YYYZ=             -0.0030 ZZZX=             -0.0047
 ZZZY=             -0.0004 XXYY=           -180.0248 XXZZ=           -150.8879 YYZZ=            -64.2877
 XXYZ=              0.0025 YYXZ=              0.0085 ZZXY=             -1.7092
 N-N= 3.637480984741D+02 E-N=-1.746512791603D+03  KE= 4.275958106945D+02
                          Isotropic Fermi Contact Couplings
        Atom                 a.u.       MegaHertz       Gauss      10(-4) cm-1
     1  N(14)             -0.02378      -7.68286      -2.74143      -2.56272
     2  N(14)              0.07249      23.42273       8.35781       7.81298
     3  C(13)              0.00113       1.27121       0.45360       0.42403
     4  C(13)             -0.00075      -0.84583      -0.30181      -0.28214
     5  N(14)              0.07288      23.54753       8.40234       7.85461
     6  H(1)              -0.00131      -5.83862      -2.08337      -1.94755
     7  H(1)              -0.00116      -5.19645      -1.85422      -1.73335
     8  H(1)              -0.00060      -2.66418      -0.95065      -0.88868
     9  C(13)              0.03456      38.85395      13.86406      12.96028
    10  O(17)              0.00452      -2.74021      -0.97778      -0.91404
    11  O(17)              0.02732     -16.55869      -5.90855      -5.52338
 --------------------------------------------------------
       Center         ----  Spin Dipole Couplings  ----
                      3XX-RR        3YY-RR        3ZZ-RR
 --------------------------------------------------------
     1   Atom       -0.033430     -0.039431      0.072862
     2   Atom       -0.323691     -0.315784      0.639475
     3   Atom       -0.022216     -0.030539      0.052754
     4   Atom       -0.017861     -0.024917      0.042777
     5   Atom       -0.320475     -0.315479      0.635954
     6   Atom        0.002179      0.001638     -0.003818
     7   Atom        0.003671      0.000302     -0.003973
     8   Atom        0.001879      0.005392     -0.007271
     9   Atom       -0.126250     -0.138425      0.264675
    10   Atom       -0.075525     -0.079844      0.155369
    11   Atom       -0.223808     -0.237443      0.461252
 --------------------------------------------------------
                        XY            XZ            YZ
 --------------------------------------------------------
     1   Atom        0.000215     -0.000094     -0.000071
     2   Atom        0.000941     -0.000298      0.000325
     3   Atom       -0.002154      0.000025     -0.000050
     4   Atom        0.003167     -0.000018     -0.000085
     5   Atom       -0.001362     -0.000076      0.000053
     6   Atom        0.008869      0.000005     -0.000001
     7   Atom       -0.007928     -0.000001     -0.000004
     8   Atom       -0.000160      0.000003     -0.000000
     9   Atom        0.004959     -0.000030     -0.000019
    10   Atom        0.006313     -0.000002      0.000042
    11   Atom       -0.007383      0.000048      0.000044
 --------------------------------------------------------


 ---------------------------------------------------------------------------------
              Anisotropic Spin Dipole Couplings in Principal Axis System
 ---------------------------------------------------------------------------------

       Atom             a.u.   MegaHertz   Gauss  10(-4) cm-1        Axes

              Baa    -0.0394    -1.521    -0.543    -0.507 -0.0357  0.9994  0.0006
     1 N(14)  Bbb    -0.0334    -1.289    -0.460    -0.430  0.9994  0.0357  0.0009
              Bcc     0.0729     2.810     1.003     0.937 -0.0009 -0.0006  1.0000
 
              Baa    -0.3238   -12.488    -4.456    -4.166  0.9932 -0.1166  0.0003
     2 N(14)  Bbb    -0.3157   -12.175    -4.344    -4.061  0.1166  0.9932 -0.0003
              Bcc     0.6395    24.663     8.800     8.227 -0.0003  0.0003  1.0000
 
              Baa    -0.0311    -4.168    -1.487    -1.390  0.2365  0.9716  0.0005
     3 C(13)  Bbb    -0.0217    -2.911    -1.039    -0.971  0.9716 -0.2365 -0.0005
              Bcc     0.0528     7.079     2.526     2.361  0.0004 -0.0006  1.0000
 
              Baa    -0.0261    -3.506    -1.251    -1.170 -0.3577  0.9338  0.0011
     4 C(13)  Bbb    -0.0166    -2.234    -0.797    -0.745  0.9338  0.3577  0.0008
              Bcc     0.0428     5.740     2.048     1.915 -0.0004 -0.0013  1.0000
 
              Baa    -0.3208   -12.373    -4.415    -4.127  0.9690  0.2470  0.0001
     5 N(14)  Bbb    -0.3151   -12.154    -4.337    -4.054 -0.2470  0.9690 -0.0001
              Bcc     0.6360    24.527     8.752     8.181 -0.0001  0.0001  1.0000
 
              Baa    -0.0070    -3.716    -1.326    -1.240 -0.6962  0.7178  0.0012
     6 H(1)   Bbb    -0.0038    -2.037    -0.727    -0.679  0.0007 -0.0010  1.0000
              Bcc     0.0108     5.753     2.053     1.919  0.7178  0.6962  0.0002
 
              Baa    -0.0061    -3.264    -1.165    -1.089  0.6293  0.7771  0.0016
     7 H(1)   Bbb    -0.0040    -2.120    -0.756    -0.707 -0.0011 -0.0011  1.0000
              Bcc     0.0101     5.384     1.921     1.796  0.7771 -0.6293  0.0001
 
              Baa    -0.0073    -3.879    -1.384    -1.294 -0.0003  0.0000  1.0000
     8 H(1)   Bbb     0.0019     0.999     0.356     0.333  0.9990  0.0454  0.0003
              Bcc     0.0054     2.881     1.028     0.961 -0.0454  0.9990 -0.0000
 
              Baa    -0.1402   -18.812    -6.713    -6.275 -0.3352  0.9421  0.0000
     9 C(13)  Bbb    -0.1245   -16.705    -5.961    -5.572  0.9421  0.3352  0.0001
              Bcc     0.2647    35.517    12.673    11.847 -0.0001 -0.0000  1.0000
 
              Baa    -0.0844     6.104     2.178     2.036 -0.5815  0.8135 -0.0001
    10 O(17)  Bbb    -0.0710     5.138     1.833     1.714  0.8135  0.5815 -0.0001
              Bcc     0.1554   -11.242    -4.012    -3.750 -0.0000  0.0002  1.0000
 
              Baa    -0.2407    17.415     6.214     5.809  0.4010  0.9161 -0.0001
    11 O(17)  Bbb    -0.2206    15.961     5.695     5.324  0.9161 -0.4010 -0.0000
              Bcc     0.4613   -33.376   -11.909   -11.133  0.0001  0.0001  1.0000
 

 ---------------------------------------------------------------------------------

 D1PCM: PCM CHGder 1st derivatives, ID1Alg=3 FixD1E=F DoIter=F DoCFld=F I1PDM=0.
 Calling FoFJK, ICntrl=      2127 FMM=F ISym2X=0 I1Cent= 0 IOpClX= 1 NMat=1 NMatS=1 NMatT=0.
 ***** Axes restored to original set *****
 -------------------------------------------------------------------
 Center     Atomic                   Forces (Hartrees/Bohr)
 Number     Number              X              Y              Z
 -------------------------------------------------------------------
      1        7          -0.074256165   -0.001064000   -0.000048157
      2        7          -0.023048706    0.042174470    0.000060763
      3        6           0.039158454   -0.033066479   -0.000062429
      4        6           0.034617139    0.036627927    0.000059141
      5        7          -0.016642576   -0.042114008   -0.000015036
      6        1           0.000754756   -0.000172187   -0.000009479
      7        1           0.000827631    0.000126104    0.000004937
      8        1           0.001573459   -0.004919746    0.000005990
      9        6           0.090757507    0.022554522    0.000014176
     10        8          -0.017417312    0.029437705   -0.000010251
     11        8          -0.036324187   -0.049584307    0.000000345
 -------------------------------------------------------------------
 Cartesian Forces:  Max     0.090757507 RMS     0.029523462

 GradGradGradGradGradGradGradGradGradGradGradGradGradGradGradGradGradGrad
 Berny optimization.
 FormGI is forming the generalized inverse of G from B-inverse, IUseBI=4.
 Internal  Forces:  Max     0.061011720 RMS     0.016567526
 Search for a local minimum.
 Step number   1 out of a maximum of   54
 All quantities printed in internal units (Hartrees-Bohrs-Radians)
 Mixed Optimization -- RFO/linear search
 Second derivative matrix not updated -- first step.
 ITU=  0
     Eigenvalues ---    0.01454   0.01831   0.01901   0.02055   0.02143
     Eigenvalues ---    0.02284   0.02400   0.02752   0.16000   0.16000
     Eigenvalues ---    0.16000   0.22616   0.24748   0.25000   0.25000
     Eigenvalues ---    0.25000   0.36045   0.36062   0.40107   0.42768
     Eigenvalues ---    0.52029   0.53684   0.54689   0.59917   0.61974
     Eigenvalues ---    0.62211   1.03053
 RFO step:  Lambda=-1.90173113D-02 EMin= 1.45410494D-02
 Linear search not attempted -- first point.
 Iteration  1 RMS(Cart)=  0.03607245 RMS(Int)=  0.00078778
 Iteration  2 RMS(Cart)=  0.00081962 RMS(Int)=  0.00010026
 Iteration  3 RMS(Cart)=  0.00000051 RMS(Int)=  0.00010026
 Variable       Old X    -DE/DX   Delta X   Delta X   Delta X     New X
                                 (Linear)    (Quad)   (Total)
    R1        2.52562   0.03017   0.00000   0.05381   0.05398   2.57960
    R2        2.51988   0.02945   0.00000   0.05189   0.05207   2.57195
    R3        2.67957  -0.03845   0.00000  -0.08607  -0.08607   2.59350
    R4        2.48910   0.04196   0.00000   0.06392   0.06385   2.55295
    R5        2.67717  -0.01677   0.00000  -0.04273  -0.04294   2.63423
    R6        2.04011   0.00044   0.00000   0.00116   0.00116   2.04127
    R7        2.49066   0.04121   0.00000   0.06277   0.06270   2.55336
    R8        2.03984   0.00058   0.00000   0.00154   0.00154   2.04138
    R9        1.84571  -0.00270   0.00000  -0.00501  -0.00501   1.84070
   R10        2.49412   0.02903   0.00000   0.04545   0.04545   2.53957
   R11        2.27441   0.06101   0.00000   0.05813   0.05813   2.33254
    A1        2.01496  -0.00635   0.00000  -0.01283  -0.01256   2.00240
    A2        2.13310   0.00008   0.00000  -0.00507  -0.00521   2.12789
    A3        2.13512   0.00626   0.00000   0.01790   0.01777   2.15289
    A4        1.81173  -0.00376   0.00000  -0.00938  -0.00927   1.80246
    A5        1.89119   0.00654   0.00000   0.01488   0.01462   1.90581
    A6        2.12434  -0.00262   0.00000  -0.00380  -0.00367   2.12068
    A7        2.26765  -0.00392   0.00000  -0.01108  -0.01095   2.25670
    A8        1.89984   0.00706   0.00000   0.01666   0.01641   1.91624
    A9        2.26192  -0.00414   0.00000  -0.01173  -0.01160   2.25031
   A10        2.12143  -0.00292   0.00000  -0.00493  -0.00480   2.11663
   A11        1.80705  -0.00349   0.00000  -0.00932  -0.00920   1.79786
   A12        1.99508  -0.00594   0.00000  -0.02207  -0.02207   1.97301
   A13        2.12514   0.01144   0.00000   0.04251   0.04251   2.16765
   A14        2.16296  -0.00550   0.00000  -0.02044  -0.02044   2.14252
   A15        1.96359  -0.00812   0.00000  -0.04537  -0.04537   1.91821
    D1       -0.00085   0.00004   0.00000   0.00078   0.00077  -0.00008
    D2        3.14126   0.00002   0.00000   0.00049   0.00049  -3.14144
    D3        0.00043  -0.00001   0.00000  -0.00020  -0.00020   0.00023
    D4        3.14150   0.00001   0.00000   0.00008   0.00008   3.14158
    D5       -0.00059   0.00001   0.00000   0.00037   0.00037  -0.00021
    D6        3.14134   0.00000   0.00000   0.00004   0.00004   3.14138
    D7        3.14156   0.00000   0.00000   0.00007   0.00008  -3.14155
    D8        0.00030  -0.00001   0.00000  -0.00025  -0.00026   0.00004
    D9        0.00088  -0.00004   0.00000  -0.00097  -0.00098  -0.00010
   D10       -3.14125  -0.00001   0.00000  -0.00035  -0.00035   3.14159
   D11       -0.00068   0.00004   0.00000   0.00093   0.00093   0.00025
   D12        3.14120   0.00002   0.00000   0.00045   0.00045  -3.14154
   D13        3.14150   0.00001   0.00000   0.00024   0.00024  -3.14145
   D14        0.00019  -0.00001   0.00000  -0.00025  -0.00025  -0.00005
   D15        0.00015  -0.00002   0.00000  -0.00043  -0.00043  -0.00028
   D16        3.14149   0.00000   0.00000   0.00000   0.00000   3.14149
   D17        0.00079  -0.00001   0.00000  -0.00029  -0.00028   0.00051
   D18       -3.14114   0.00000   0.00000   0.00007   0.00006  -3.14108
         Item               Value     Threshold  Converged?
 Maximum Force            0.061012     0.000450     NO 
 RMS     Force            0.016568     0.000300     NO 
 Maximum Displacement     0.130843     0.001800     NO 
 RMS     Displacement     0.036226     0.001200     NO 
 Predicted change in Energy=-9.832326D-03
 GradGradGradGradGradGradGradGradGradGradGradGradGradGradGradGradGradGrad

                          Input orientation:                          
 ---------------------------------------------------------------------
 Center     Atomic      Atomic             Coordinates (Angstroms)
 Number     Number       Type             X           Y           Z
 ---------------------------------------------------------------------
      1          7           0        0.010425   -0.072804    0.000085
      2          7           0        0.682267    1.115484    0.000102
      3          6           0        1.979526    0.738360    0.000048
      4          6           0        2.052124   -0.653724    0.000134
      5          7           0        0.806321   -1.176847   -0.000076
      6          1           0        2.778666    1.465131    0.000044
      7          1           0        2.926640   -1.287888    0.000170
      8          1           0       -1.254814    1.775419   -0.000195
      9          6           0       -1.360758   -0.131134   -0.000054
     10          8           0       -1.938915    1.082024    0.000093
     11          8           0       -2.010488   -1.180615   -0.000291
 ---------------------------------------------------------------------
                    Distance matrix (angstroms):
                    1          2          3          4          5
     1  N    0.000000
     2  N    1.365064   0.000000
     3  C    2.129635   1.350964   0.000000
     4  C    2.122735   2.237545   1.393976   0.000000
     5  N    1.361015   2.295686   2.245981   1.351179   0.000000
     6  H    3.166765   2.125357   1.080194   2.239957   3.296998
     7  H    3.159231   3.288375   2.236674   1.080251   2.123225
     8  H    2.239812   2.046410   3.396534   4.103239   3.600576
     9  C    1.372423   2.393325   3.451596   3.452661   2.406189
    10  O    2.265735   2.621395   3.933483   4.352151   3.555112
    11  O    2.304634   3.538785   4.427492   4.096637   2.816811
                    6          7          8          9         10
     6  H    0.000000
     7  H    2.756993   0.000000
     8  H    4.045397   5.183474   0.000000
     9  C    4.436541   4.440705   1.909494   0.000000
    10  O    4.733111   5.412034   0.974059   1.343882   0.000000
    11  O    5.471377   4.938293   3.051095   1.234326   2.263771
                   11
    11  O    0.000000
 Stoichiometry    C3H3N3O2(1-,2)
 Framework group  C1[X(C3H3N3O2)]
 Deg. of freedom    27
 Full point group                 C1      NOp   1
 Largest Abelian subgroup         C1      NOp   1
 Largest concise Abelian subgroup C1      NOp   1
                         Standard orientation:                         
 ---------------------------------------------------------------------
 Center     Atomic      Atomic             Coordinates (Angstroms)
 Number     Number       Type             X           Y           Z
 ---------------------------------------------------------------------
      1          7           0        0.020662   -0.072032    0.000085
      2          7           0        0.701750    1.110980    0.000102
      3          6           0        1.996029    0.723751    0.000049
      4          6           0        2.057769   -0.668858    0.000134
      5          7           0        0.807923   -1.182249   -0.000076
      6          1           0        2.800813    1.444267    0.000045
      7          1           0        2.927312   -1.309823    0.000171
      8          1           0       -1.230124    1.786001   -0.000194
      9          6           0       -1.350934   -0.119667   -0.000054
     10          8           0       -1.919612    1.097963    0.000094
     11          8           0       -2.008829   -1.164049   -0.000291
 ---------------------------------------------------------------------
 Rotational constants (GHZ):           5.2260234           1.8181494           1.3488726
 Standard basis: 6-31+G(d,p) (6D, 7F)
 There are   167 symmetry adapted cartesian basis functions of A   symmetry.
 There are   167 symmetry adapted basis functions of A   symmetry.
   167 basis functions,   277 primitive gaussians,   167 cartesian basis functions
    30 alpha electrons       29 beta electrons
       nuclear repulsion energy       361.0974828344 Hartrees.
 NAtoms=   11 NActive=   11 NUniq=   11 SFac= 1.00D+00 NAtFMM=   60 NAOKFM=F Big=F
 Integral buffers will be    131072 words long.
 Raffenetti 2 integral format.
 Two-electron integral symmetry is turned on.
 ------------------------------------------------------------------------------
 Polarizable Continuum Model (PCM)
 =================================
 Model                : PCM.
 Atomic radii         : SMD-Coulomb.
 Polarization charges : Total charges.
 Charge compensation  : None.
 Solution method      : On-the-fly selection.
 Cavity type          : VdW (van der Waals Surface) (Alpha=1.000).
 Cavity algorithm     : GePol (No added spheres)
                        Default sphere list used, NSphG=   11.
                        Lebedev-Laikov grids with approx.  5.0 points / Ang**2.
                        Smoothing algorithm: York/Karplus (Gamma=1.0000).
                        Polarization charges: spherical gaussians, with
                                              point-specific exponents (IZeta= 3).
                        Self-potential: point-specific (ISelfS= 7).
                        Self-field    : sphere-specific E.n sum rule (ISelfD= 2).
 1st derivatives      : Analytical E(r).r(x)/FMM algorithm (CHGder, D1EAlg=3).
                        Cavity 1st derivative terms included.
 Solvent              : Water, Eps=  78.355300 Eps(inf)=   1.777849
 ------------------------------------------------------------------------------
 Spheres list:
 ISph  on   Nord     Re0    Alpha      Xe            Ye            Ze
    1   N      1    1.8900  1.000      0.020662     -0.072032      0.000085
    2   N      2    1.8900  1.000      0.701750      1.110980      0.000102
    3   C      3    1.8500  1.000      1.996029      0.723751      0.000049
    4   C      4    1.8500  1.000      2.057769     -0.668858      0.000134
    5   N      5    1.8900  1.000      0.807923     -1.182249     -0.000076
    6   H      6    1.2000  1.000      2.800813      1.444267      0.000045
    7   H      7    1.2000  1.000      2.927312     -1.309823      0.000171
    8   H      8    1.2000  1.000     -1.230124      1.786001     -0.000194
    9   C      9    1.8500  1.000     -1.350934     -0.119667     -0.000054
   10   O     10    1.5200  1.000     -1.919612      1.097963      0.000094
   11   O     11    1.5200  1.000     -2.008829     -1.164049     -0.000291
 ------------------------------------------------------------------------------
 ------------------------------------------------------------------------------
 Atomic radii for non-electrostatic terms: SMD-CDS.
 ------------------------------------------------------------------------------
 Nuclear repulsion after PCM non-electrostatic terms =      361.1031474521 Hartrees.
 One-electron integrals computed using PRISM.
 NBasis=   167 RedAO= T EigKep=  2.47D-05  NBF=   167
 NBsUse=   167 1.00D-06 EigRej= -1.00D+00 NBFU=   167
 Initial guess from the checkpoint file:  "/scratch/gongke2021/1-H-Tz-1-eletron/Gau-20957.chk"
 B after Tr=     0.000000    0.000000    0.000000
         Rot=    0.999988   -0.000039    0.000023    0.004925 Ang=  -0.56 deg.
 Initial guess <Sx>= 0.0000 <Sy>= 0.0000 <Sz>= 0.5000 <S**2>= 0.7614 S= 0.5057
 ExpMin= 4.38D-02 ExpMax= 5.48D+03 ExpMxC= 8.25D+02 IAcc=2 IRadAn=         4 AccDes= 0.00D+00
 Harris functional with IExCor= 1009 and IRadAn=       4 diagonalized for initial guess.
 HarFok:  IExCor= 1009 AccDes= 0.00D+00 IRadAn=         4 IDoV= 1 UseB2=F ITyADJ=14
 ICtDFT=  3500011 ScaDFX=  1.000000  1.000000  1.000000  1.000000
 FoFCou: FMM=F IPFlag=           0 FMFlag=      100000 FMFlg1=           0
         NFxFlg=           0 DoJE=T BraDBF=F KetDBF=T FulRan=T
         wScrn=  0.000000 ICntrl=       500 IOpCl=  0 I1Cent=   200000004 NGrid=           0
         NMat0=    1 NMatS0=      1 NMatT0=    0 NMatD0=    1 NMtDS0=    0 NMtDT0=    0
 Petite list used in FoFCou.
 Keep R1 and R2 ints in memory in canonical form, NReq=216648901.
 Requested convergence on RMS density matrix=1.00D-08 within 128 cycles.
 Requested convergence on MAX density matrix=1.00D-06.
 Requested convergence on             energy=1.00D-06.
 No special actions if energy rises.
 Inv3:  Mode=1 IEnd=     3030075.
 Iteration    1 A*A^-1 deviation from unit magnitude is 3.66D-15 for    997.
 Iteration    1 A*A^-1 deviation from orthogonality  is 2.00D-15 for   1002    868.
 Iteration    1 A^-1*A deviation from unit magnitude is 3.66D-15 for    997.
 Iteration    1 A^-1*A deviation from orthogonality  is 9.57D-15 for    537    449.
 Error on total polarization charges =  0.05133
 SCF Done:  E(UM062X) =  -430.760576558     A.U. after   16 cycles
            NFock= 16  Conv=0.29D-08     -V/T= 2.0082
 <Sx>= 0.0000 <Sy>= 0.0000 <Sz>= 0.5000 <S**2>= 0.7632 S= 0.5066
 <L.S>= 0.000000000000E+00
 SMD-CDS (non-electrostatic) energy       (kcal/mol) =       3.55
 (included in total energy above)
 Annihilation of the first spin contaminant:
 S**2 before annihilation     0.7632,   after     0.7501
 D1PCM: PCM CHGder 1st derivatives, ID1Alg=3 FixD1E=F DoIter=F DoCFld=F I1PDM=0.
 Calling FoFJK, ICntrl=      2127 FMM=F ISym2X=0 I1Cent= 0 IOpClX= 1 NMat=1 NMatS=1 NMatT=0.
 ***** Axes restored to original set *****
 -------------------------------------------------------------------
 Center     Atomic                   Forces (Hartrees/Bohr)
 Number     Number              X              Y              Z
 -------------------------------------------------------------------
      1        7          -0.018128760   -0.004212196   -0.000014208
      2        7          -0.003168097    0.016679295   -0.000004870
      3        6           0.005761997   -0.013877958    0.000020176
      4        6           0.003927732    0.014113406   -0.000025918
      5        7          -0.000674602   -0.015719741    0.000023089
      6        1          -0.000793367    0.000575565    0.000002680
      7        1          -0.000672179   -0.000668511   -0.000002928
      8        1           0.002129848    0.000167191    0.000004166
      9        6           0.032419596    0.002973501   -0.000000096
     10        8          -0.012193702    0.006861954   -0.000005300
     11        8          -0.008608465   -0.006892506    0.000003208
 -------------------------------------------------------------------
 Cartesian Forces:  Max     0.032419596 RMS     0.009055873

 GradGradGradGradGradGradGradGradGradGradGradGradGradGradGradGradGradGrad
 Berny optimization.
 Using GEDIIS/GDIIS optimizer.
 FormGI is forming the generalized inverse of G from B-inverse, IUseBI=4.
 Internal  Forces:  Max     0.013856813 RMS     0.004577593
 Search for a local minimum.
 Step number   2 out of a maximum of   54
 All quantities printed in internal units (Hartrees-Bohrs-Radians)
 Mixed Optimization -- RFO/linear search
 Update second derivatives using D2CorX and points    1    2
 DE= -1.18D-02 DEPred=-9.83D-03 R= 1.20D+00
 TightC=F SS=  1.41D+00  RLast= 1.86D-01 DXNew= 5.0454D-01 5.5785D-01
 Trust test= 1.20D+00 RLast= 1.86D-01 DXMaxT set to 5.05D-01
 ITU=  1  0
 Use linear search instead of GDIIS.
     Eigenvalues ---    0.01454   0.01829   0.01877   0.02057   0.02144
     Eigenvalues ---    0.02286   0.02404   0.02752   0.15759   0.16000
     Eigenvalues ---    0.16074   0.22585   0.22755   0.24869   0.25000
     Eigenvalues ---    0.25834   0.36019   0.36057   0.36238   0.41371
     Eigenvalues ---    0.51874   0.52414   0.54749   0.59810   0.59966
     Eigenvalues ---    0.63654   1.02262
 RFO step:  Lambda=-1.59428009D-03 EMin= 1.45410491D-02
 Quartic linear search produced a step of  0.34791.
 Iteration  1 RMS(Cart)=  0.01252739 RMS(Int)=  0.00018936
 Iteration  2 RMS(Cart)=  0.00025862 RMS(Int)=  0.00004426
 Iteration  3 RMS(Cart)=  0.00000003 RMS(Int)=  0.00004426
 Variable       Old X    -DE/DX   Delta X   Delta X   Delta X     New X
                                 (Linear)    (Quad)   (Total)
    R1        2.57960   0.00944   0.01878   0.00977   0.02863   2.60823
    R2        2.57195   0.00892   0.01812   0.00874   0.02693   2.59887
    R3        2.59350  -0.01386  -0.02994  -0.02040  -0.05035   2.54316
    R4        2.55295   0.00628   0.02221  -0.00438   0.01781   2.57076
    R5        2.63423  -0.00664  -0.01494  -0.01288  -0.02791   2.60632
    R6        2.04127  -0.00019   0.00040  -0.00104  -0.00063   2.04064
    R7        2.55336   0.00599   0.02181  -0.00477   0.01701   2.57037
    R8        2.04138  -0.00015   0.00053  -0.00099  -0.00045   2.04093
    R9        1.84070   0.00160  -0.00174   0.00546   0.00372   1.84442
   R10        2.53957   0.01065   0.01581   0.01095   0.02676   2.56633
   R11        2.33254   0.01040   0.02022  -0.00193   0.01829   2.35083
    A1        2.00240   0.00201  -0.00437   0.02153   0.01728   2.01968
    A2        2.12789  -0.00203  -0.00181  -0.01313  -0.01500   2.11289
    A3        2.15289   0.00001   0.00618  -0.00840  -0.00228   2.15061
    A4        1.80246  -0.00549  -0.00322  -0.02407  -0.02724   1.77523
    A5        1.90581   0.00434   0.00509   0.01327   0.01825   1.92406
    A6        2.12068  -0.00317  -0.00128  -0.01597  -0.01719   2.10348
    A7        2.25670  -0.00117  -0.00381   0.00270  -0.00106   2.25564
    A8        1.91624   0.00430   0.00571   0.01225   0.01785   1.93409
    A9        2.25031  -0.00122  -0.00404   0.00257  -0.00141   2.24890
   A10        2.11663  -0.00308  -0.00167  -0.01482  -0.01644   2.10019
   A11        1.79786  -0.00517  -0.00320  -0.02298  -0.02614   1.77172
   A12        1.97301   0.00574  -0.00768   0.03672   0.02904   2.00205
   A13        2.16765   0.00141   0.01479  -0.00392   0.01087   2.17852
   A14        2.14252  -0.00715  -0.00711  -0.03280  -0.03991   2.10261
   A15        1.91821  -0.00258  -0.01579  -0.00912  -0.02490   1.89331
    D1       -0.00008   0.00000   0.00027  -0.00018   0.00009   0.00001
    D2       -3.14144  -0.00000   0.00017  -0.00030  -0.00013  -3.14157
    D3        0.00023  -0.00001  -0.00007  -0.00044  -0.00051  -0.00028
    D4        3.14158  -0.00001   0.00003  -0.00031  -0.00028   3.14130
    D5       -0.00021   0.00000   0.00013   0.00011   0.00024   0.00003
    D6        3.14138   0.00000   0.00001   0.00031   0.00032  -3.14148
    D7       -3.14155  -0.00000   0.00003  -0.00003   0.00000  -3.14155
    D8        0.00004   0.00000  -0.00009   0.00017   0.00008   0.00013
    D9       -0.00010   0.00001  -0.00034   0.00072   0.00038   0.00027
   D10        3.14159   0.00000  -0.00012   0.00017   0.00004  -3.14155
   D11        0.00025  -0.00001   0.00032  -0.00105  -0.00073  -0.00048
   D12       -3.14154  -0.00000   0.00016  -0.00033  -0.00018   3.14147
   D13       -3.14145  -0.00001   0.00008  -0.00044  -0.00036   3.14137
   D14       -0.00005   0.00000  -0.00009   0.00027   0.00019   0.00014
   D15       -0.00028   0.00001  -0.00015   0.00087   0.00072   0.00044
   D16        3.14149   0.00000   0.00000   0.00022   0.00022  -3.14147
   D17        0.00051  -0.00000  -0.00010  -0.00007  -0.00017   0.00034
   D18       -3.14108  -0.00001   0.00002  -0.00027  -0.00025  -3.14133
         Item               Value     Threshold  Converged?
 Maximum Force            0.013857     0.000450     NO 
 RMS     Force            0.004578     0.000300     NO 
 Maximum Displacement     0.049183     0.001800     NO 
 RMS     Displacement     0.012557     0.001200     NO 
 Predicted change in Energy=-1.582026D-03
 GradGradGradGradGradGradGradGradGradGradGradGradGradGradGradGradGradGrad

                          Input orientation:                          
 ---------------------------------------------------------------------
 Center     Atomic      Atomic             Coordinates (Angstroms)
 Number     Number       Type             X           Y           Z
 ---------------------------------------------------------------------
      1          7           0        0.010102   -0.076886    0.000092
      2          7           0        0.677320    1.131340    0.000149
      3          6           0        1.976898    0.729158    0.000253
      4          6           0        2.050152   -0.648101   -0.000101
      5          7           0        0.806217   -1.198293    0.000164
      6          1           0        2.775805    1.455687    0.000355
      7          1           0        2.926022   -1.279985   -0.000231
      8          1           0       -1.262251    1.778353   -0.000430
      9          6           0       -1.334731   -0.127396   -0.000044
     10          8           0       -1.948314    1.084129   -0.000156
     11          8           0       -2.006228   -1.174601    0.000010
 ---------------------------------------------------------------------
                    Distance matrix (angstroms):
                    1          2          3          4          5
     1  N    0.000000
     2  N    1.380214   0.000000
     3  C    2.125558   1.360387   0.000000
     4  C    2.118511   2.247460   1.379206   0.000000
     5  N    1.375264   2.333195   2.255119   1.360179   0.000000
     6  H    3.161945   2.123403   1.079859   2.225420   3.304979
     7  H    3.154368   3.297142   2.222047   1.080012   2.121379
     8  H    2.249621   2.044642   3.404834   4.106055   3.624773
     9  C    1.345782   2.373345   3.420611   3.424700   2.393842
    10  O    2.276697   2.626059   3.941231   4.357563   3.577274
    11  O    2.295771   3.538191   4.414702   4.090406   2.812545
                    6          7          8          9         10
     6  H    0.000000
     7  H    2.739793   0.000000
     8  H    4.050927   5.186045   0.000000
     9  C    4.404845   4.413896   1.907126   0.000000
    10  O    4.738709   5.417397   0.976028   1.358041   0.000000
    11  O    5.457679   4.933376   3.045232   1.244004   2.259472
                   11
    11  O    0.000000
 Stoichiometry    C3H3N3O2(1-,2)
 Framework group  C1[X(C3H3N3O2)]
 Deg. of freedom    27
 Full point group                 C1      NOp   1
 Largest Abelian subgroup         C1      NOp   1
 Largest concise Abelian subgroup C1      NOp   1
                         Standard orientation:                         
 ---------------------------------------------------------------------
 Center     Atomic      Atomic             Coordinates (Angstroms)
 Number     Number       Type             X           Y           Z
 ---------------------------------------------------------------------
      1          7           0        0.019992   -0.076007    0.000057
      2          7           0        0.690975    1.130132    0.000114
      3          6           0        1.989293    0.723900    0.000218
      4          6           0        2.058251   -0.653581   -0.000135
      5          7           0        0.812606   -1.199891    0.000130
      6          1           0        2.790461    1.447933    0.000321
      7          1           0        2.932146   -1.288194   -0.000266
      8          1           0       -1.246569    1.783191   -0.000464
      9          6           0       -1.324992   -0.122322   -0.000079
     10          8           0       -1.934794    1.091110   -0.000190
     11          8           0       -1.999751   -1.167428   -0.000025
 ---------------------------------------------------------------------
 Rotational constants (GHZ):           5.1833974           1.8238524           1.3491387
 Standard basis: 6-31+G(d,p) (6D, 7F)
 There are   167 symmetry adapted cartesian basis functions of A   symmetry.
 There are   167 symmetry adapted basis functions of A   symmetry.
   167 basis functions,   277 primitive gaussians,   167 cartesian basis functions
    30 alpha electrons       29 beta electrons
       nuclear repulsion energy       360.5549874414 Hartrees.
 NAtoms=   11 NActive=   11 NUniq=   11 SFac= 1.00D+00 NAtFMM=   60 NAOKFM=F Big=F
 Integral buffers will be    131072 words long.
 Raffenetti 2 integral format.
 Two-electron integral symmetry is turned on.
 ------------------------------------------------------------------------------
 Polarizable Continuum Model (PCM)
 =================================
 Model                : PCM.
 Atomic radii         : SMD-Coulomb.
 Polarization charges : Total charges.
 Charge compensation  : None.
 Solution method      : On-the-fly selection.
 Cavity type          : VdW (van der Waals Surface) (Alpha=1.000).
 Cavity algorithm     : GePol (No added spheres)
                        Default sphere list used, NSphG=   11.
                        Lebedev-Laikov grids with approx.  5.0 points / Ang**2.
                        Smoothing algorithm: York/Karplus (Gamma=1.0000).
                        Polarization charges: spherical gaussians, with
                                              point-specific exponents (IZeta= 3).
                        Self-potential: point-specific (ISelfS= 7).
                        Self-field    : sphere-specific E.n sum rule (ISelfD= 2).
 1st derivatives      : Analytical E(r).r(x)/FMM algorithm (CHGder, D1EAlg=3).
                        Cavity 1st derivative terms included.
 Solvent              : Water, Eps=  78.355300 Eps(inf)=   1.777849
 ------------------------------------------------------------------------------
 Spheres list:
 ISph  on   Nord     Re0    Alpha      Xe            Ye            Ze
    1   N      1    1.8900  1.000      0.019992     -0.076007      0.000057
    2   N      2    1.8900  1.000      0.690975      1.130132      0.000114
    3   C      3    1.8500  1.000      1.989293      0.723900      0.000218
    4   C      4    1.8500  1.000      2.058251     -0.653581     -0.000135
    5   N      5    1.8900  1.000      0.812606     -1.199891      0.000130
    6   H      6    1.2000  1.000      2.790461      1.447933      0.000321
    7   H      7    1.2000  1.000      2.932146     -1.288194     -0.000266
    8   H      8    1.2000  1.000     -1.246569      1.783191     -0.000464
    9   C      9    1.8500  1.000     -1.324992     -0.122322     -0.000079
   10   O     10    1.5200  1.000     -1.934794      1.091110     -0.000190
   11   O     11    1.5200  1.000     -1.999751     -1.167428     -0.000025
 ------------------------------------------------------------------------------
 ------------------------------------------------------------------------------
 Atomic radii for non-electrostatic terms: SMD-CDS.
 ------------------------------------------------------------------------------
 Nuclear repulsion after PCM non-electrostatic terms =      360.5603339149 Hartrees.
 One-electron integrals computed using PRISM.
 NBasis=   167 RedAO= T EigKep=  2.46D-05  NBF=   167
 NBsUse=   167 1.00D-06 EigRej= -1.00D+00 NBFU=   167
 Initial guess from the checkpoint file:  "/scratch/gongke2021/1-H-Tz-1-eletron/Gau-20957.chk"
 B after Tr=     0.000000   -0.000000    0.000000
         Rot=    0.999998    0.000041    0.000000   -0.002209 Ang=   0.25 deg.
 Initial guess <Sx>= 0.0000 <Sy>= 0.0000 <Sz>= 0.5000 <S**2>= 0.7632 S= 0.5066
 ExpMin= 4.38D-02 ExpMax= 5.48D+03 ExpMxC= 8.25D+02 IAcc=2 IRadAn=         4 AccDes= 0.00D+00
 Harris functional with IExCor= 1009 and IRadAn=       4 diagonalized for initial guess.
 HarFok:  IExCor= 1009 AccDes= 0.00D+00 IRadAn=         4 IDoV= 1 UseB2=F ITyADJ=14
 ICtDFT=  3500011 ScaDFX=  1.000000  1.000000  1.000000  1.000000
 FoFCou: FMM=F IPFlag=           0 FMFlag=      100000 FMFlg1=           0
         NFxFlg=           0 DoJE=T BraDBF=F KetDBF=T FulRan=T
         wScrn=  0.000000 ICntrl=       500 IOpCl=  0 I1Cent=   200000004 NGrid=           0
         NMat0=    1 NMatS0=      1 NMatT0=    0 NMatD0=    1 NMtDS0=    0 NMtDT0=    0
 Petite list used in FoFCou.
 Keep R1 and R2 ints in memory in canonical form, NReq=216648901.
 Requested convergence on RMS density matrix=1.00D-08 within 128 cycles.
 Requested convergence on MAX density matrix=1.00D-06.
 Requested convergence on             energy=1.00D-06.
 No special actions if energy rises.
 Inv3:  Mode=1 IEnd=     3036108.
 Iteration    1 A*A^-1 deviation from unit magnitude is 3.55D-15 for    981.
 Iteration    1 A*A^-1 deviation from orthogonality  is 1.76D-15 for   1003    867.
 Iteration    1 A^-1*A deviation from unit magnitude is 3.33D-15 for    981.
 Iteration    1 A^-1*A deviation from orthogonality  is 2.54D-14 for    504    448.
 Error on total polarization charges =  0.05090
 SCF Done:  E(UM062X) =  -430.762013899     A.U. after   14 cycles
            NFock= 14  Conv=0.70D-08     -V/T= 2.0083
 <Sx>= 0.0000 <Sy>= 0.0000 <Sz>= 0.5000 <S**2>= 0.7640 S= 0.5070
 <L.S>= 0.000000000000E+00
 SMD-CDS (non-electrostatic) energy       (kcal/mol) =       3.35
 (included in total energy above)
 Annihilation of the first spin contaminant:
 S**2 before annihilation     0.7640,   after     0.7501
 D1PCM: PCM CHGder 1st derivatives, ID1Alg=3 FixD1E=F DoIter=F DoCFld=F I1PDM=0.
 Calling FoFJK, ICntrl=      2127 FMM=F ISym2X=0 I1Cent= 0 IOpClX= 1 NMat=1 NMatS=1 NMatT=0.
 ***** Axes restored to original set *****
 -------------------------------------------------------------------
 Center     Atomic                   Forces (Hartrees/Bohr)
 Number     Number              X              Y              Z
 -------------------------------------------------------------------
      1        7          -0.003389572    0.000518375    0.000007591
      2        7           0.003737079   -0.000450134    0.000021932
      3        6           0.000261289    0.002724496   -0.000041555
      4        6           0.000773060   -0.002258333    0.000047449
      5        7           0.002163537    0.000748206   -0.000038718
      6        1           0.000238600    0.000208916   -0.000003967
      7        1           0.000156457   -0.000229264    0.000004799
      8        1          -0.000559394    0.000681979    0.000002872
      9        6          -0.003843974   -0.003826753    0.000006389
     10        8           0.000619173    0.000989548   -0.000004018
     11        8          -0.000156255    0.000892965   -0.000002773
 -------------------------------------------------------------------
 Cartesian Forces:  Max     0.003843974 RMS     0.001526753

 GradGradGradGradGradGradGradGradGradGradGradGradGradGradGradGradGradGrad
 Berny optimization.
 Using GEDIIS/GDIIS optimizer.
 FormGI is forming the generalized inverse of G from B-inverse, IUseBI=4.
 Internal  Forces:  Max     0.004000570 RMS     0.001246811
 Search for a local minimum.
 Step number   3 out of a maximum of   54
 All quantities printed in internal units (Hartrees-Bohrs-Radians)
 Mixed Optimization -- RFO/linear search
 Update second derivatives using D2CorX and points    1    2    3
 DE= -1.44D-03 DEPred=-1.58D-03 R= 9.09D-01
 TightC=F SS=  1.41D+00  RLast= 1.13D-01 DXNew= 8.4853D-01 3.4047D-01
 Trust test= 9.09D-01 RLast= 1.13D-01 DXMaxT set to 5.05D-01
 ITU=  1  1  0
 Use linear search instead of GDIIS.
     Eigenvalues ---    0.01454   0.01833   0.01859   0.02055   0.02142
     Eigenvalues ---    0.02279   0.02401   0.02752   0.15945   0.16000
     Eigenvalues ---    0.16177   0.22326   0.22607   0.24983   0.25306
     Eigenvalues ---    0.28333   0.35081   0.36054   0.36099   0.42024
     Eigenvalues ---    0.50557   0.52196   0.54924   0.58906   0.60025
     Eigenvalues ---    0.63451   1.02193
 RFO step:  Lambda=-1.47575751D-04 EMin= 1.45410561D-02
 Quartic linear search produced a step of -0.10219.
 Iteration  1 RMS(Cart)=  0.00723208 RMS(Int)=  0.00001553
 Iteration  2 RMS(Cart)=  0.00001337 RMS(Int)=  0.00000329
 Iteration  3 RMS(Cart)=  0.00000000 RMS(Int)=  0.00000329
 Variable       Old X    -DE/DX   Delta X   Delta X   Delta X     New X
                                 (Linear)    (Quad)   (Total)
    R1        2.60823   0.00275  -0.00293   0.00785   0.00492   2.61315
    R2        2.59887   0.00186  -0.00275   0.00620   0.00345   2.60232
    R3        2.54316   0.00400   0.00514   0.00251   0.00765   2.55081
    R4        2.57076   0.00001  -0.00182   0.00179  -0.00003   2.57073
    R5        2.60632   0.00167   0.00285  -0.00007   0.00278   2.60910
    R6        2.04064   0.00032   0.00006   0.00072   0.00079   2.04143
    R7        2.57037   0.00063  -0.00174   0.00259   0.00085   2.57122
    R8        2.04093   0.00026   0.00005   0.00057   0.00062   2.04155
    R9        1.84442   0.00006  -0.00038   0.00066   0.00028   1.84470
   R10        2.56633   0.00143  -0.00273   0.00531   0.00258   2.56890
   R11        2.35083  -0.00065  -0.00187   0.00138  -0.00049   2.35034
    A1        2.01968  -0.00349  -0.00177  -0.00960  -0.01135   2.00833
    A2        2.11289   0.00244   0.00153   0.00658   0.00810   2.12100
    A3        2.15061   0.00105   0.00023   0.00302   0.00325   2.15386
    A4        1.77523   0.00244   0.00278   0.00569   0.00848   1.78370
    A5        1.92406  -0.00073  -0.00186  -0.00116  -0.00303   1.92103
    A6        2.10348   0.00034   0.00176  -0.00071   0.00105   2.10453
    A7        2.25564   0.00039   0.00011   0.00187   0.00198   2.25763
    A8        1.93409  -0.00045  -0.00182  -0.00003  -0.00187   1.93222
    A9        2.24890   0.00028   0.00014   0.00142   0.00157   2.25047
   A10        2.10019   0.00016   0.00168  -0.00139   0.00030   2.10049
   A11        1.77172   0.00223   0.00267   0.00510   0.00777   1.77949
   A12        2.00205  -0.00068  -0.00297   0.00169  -0.00128   2.00077
   A13        2.17852   0.00102  -0.00111   0.00480   0.00368   2.18220
   A14        2.10261  -0.00035   0.00408  -0.00648  -0.00240   2.10021
   A15        1.89331   0.00162   0.00254   0.00628   0.00882   1.90213
    D1        0.00001   0.00000  -0.00001   0.00012   0.00011   0.00012
    D2       -3.14157   0.00001   0.00001   0.00022   0.00023  -3.14134
    D3       -0.00028   0.00001   0.00005   0.00040   0.00045   0.00017
    D4        3.14130   0.00001   0.00003   0.00030   0.00033  -3.14156
    D5        0.00003  -0.00000  -0.00002  -0.00009  -0.00011  -0.00008
    D6       -3.14148  -0.00000  -0.00003  -0.00019  -0.00023   3.14148
    D7       -3.14155   0.00000  -0.00000   0.00002   0.00002  -3.14153
    D8        0.00013  -0.00000  -0.00001  -0.00008  -0.00009   0.00003
    D9        0.00027  -0.00002  -0.00004  -0.00060  -0.00064  -0.00037
   D10       -3.14155  -0.00000  -0.00000  -0.00011  -0.00012   3.14151
   D11       -0.00048   0.00003   0.00007   0.00092   0.00100   0.00051
   D12        3.14147   0.00001   0.00002   0.00030   0.00031  -3.14140
   D13        3.14137   0.00001   0.00004   0.00038   0.00041  -3.14140
   D14        0.00014  -0.00001  -0.00002  -0.00025  -0.00027  -0.00013
   D15        0.00044  -0.00002  -0.00007  -0.00077  -0.00084  -0.00040
   D16       -3.14147  -0.00001  -0.00002  -0.00020  -0.00023   3.14148
   D17        0.00034  -0.00000   0.00002  -0.00016  -0.00015   0.00020
   D18       -3.14133  -0.00000   0.00003  -0.00006  -0.00004  -3.14137
         Item               Value     Threshold  Converged?
 Maximum Force            0.004001     0.000450     NO 
 RMS     Force            0.001247     0.000300     NO 
 Maximum Displacement     0.025002     0.001800     NO 
 RMS     Displacement     0.007232     0.001200     NO 
 Predicted change in Energy=-9.294686D-05
 GradGradGradGradGradGradGradGradGradGradGradGradGradGradGradGradGradGrad

                          Input orientation:                          
 ---------------------------------------------------------------------
 Center     Atomic      Atomic             Coordinates (Angstroms)
 Number     Number       Type             X           Y           Z
 ---------------------------------------------------------------------
      1          7           0        0.007843   -0.076681    0.000055
      2          7           0        0.684352    1.129356    0.000186
      3          6           0        1.984648    0.729558   -0.000037
      4          6           0        2.056322   -0.649256    0.000190
      5          7           0        0.810291   -1.195812   -0.000086
      6          1           0        2.783297    1.456990   -0.000077
      7          1           0        2.930705   -1.283757    0.000264
      8          1           0       -1.275481    1.783796   -0.000015
      9          6           0       -1.340961   -0.129310   -0.000092
     10          8           0       -1.955373    1.083323    0.000004
     11          8           0       -2.014648   -1.174802   -0.000332
 ---------------------------------------------------------------------
                    Distance matrix (angstroms):
                    1          2          3          4          5
     1  N    0.000000
     2  N    1.382820   0.000000
     3  C    2.134895   1.360371   0.000000
     4  C    2.126995   2.246278   1.380676   0.000000
     5  N    1.377089   2.328576   2.255252   1.360631   0.000000
     6  H    3.171008   2.124362   1.080277   2.228175   3.306072
     7  H    3.162301   3.296849   2.224513   1.080340   2.122237
     8  H    2.260154   2.066213   3.426348   4.125610   3.637101
     9  C    1.349831   2.384562   3.434724   3.436842   2.401106
    10  O    2.280313   2.640126   3.955871   4.369843   3.583762
    11  O    2.301378   3.548767   4.429555   4.104754   2.825017
                    6          7          8          9         10
     6  H    0.000000
     7  H    2.744708   0.000000
     8  H    4.071914   5.205947   0.000000
     9  C    4.418807   4.424916   1.914226   0.000000
    10  O    4.753380   5.429256   0.976174   1.359404   0.000000
    11  O    5.472349   4.946553   3.049536   1.243747   2.258903
                   11
    11  O    0.000000
 Stoichiometry    C3H3N3O2(1-,2)
 Framework group  C1[X(C3H3N3O2)]
 Deg. of freedom    27
 Full point group                 C1      NOp   1
 Largest Abelian subgroup         C1      NOp   1
 Largest concise Abelian subgroup C1      NOp   1
                         Standard orientation:                         
 ---------------------------------------------------------------------
 Center     Atomic      Atomic             Coordinates (Angstroms)
 Number     Number       Type             X           Y           Z
 ---------------------------------------------------------------------
      1          7           0        0.017990   -0.075525    0.000072
      2          7           0        0.698815    1.128081    0.000204
      3          6           0        1.997670    0.723626   -0.000019
      4          6           0        2.064404   -0.655436    0.000208
      5          7           0        0.816423   -1.197524   -0.000069
      6          1           0        2.798921    1.448192   -0.000060
      7          1           0        2.936508   -1.293065    0.000281
      8          1           0       -1.258661    1.789538    0.000002
      9          6           0       -1.330995   -0.123321   -0.000075
     10          8           0       -1.941058    1.091505    0.000021
     11          8           0       -2.008423   -1.166393   -0.000315
 ---------------------------------------------------------------------
 Rotational constants (GHZ):           5.1891017           1.8095907           1.3417006
 Standard basis: 6-31+G(d,p) (6D, 7F)
 There are   167 symmetry adapted cartesian basis functions of A   symmetry.
 There are   167 symmetry adapted basis functions of A   symmetry.
   167 basis functions,   277 primitive gaussians,   167 cartesian basis functions
    30 alpha electrons       29 beta electrons
       nuclear repulsion energy       359.8827317278 Hartrees.
 NAtoms=   11 NActive=   11 NUniq=   11 SFac= 1.00D+00 NAtFMM=   60 NAOKFM=F Big=F
 Integral buffers will be    131072 words long.
 Raffenetti 2 integral format.
 Two-electron integral symmetry is turned on.
[...]
    R9        1.84363   0.00008   0.00000   0.00014   0.00014   1.84378
   R10        2.56966   0.00013   0.00000   0.00041   0.00041   2.57007
   R11        2.34845  -0.00023   0.00000  -0.00039  -0.00039   2.34806
    A1        2.01037  -0.00006   0.00000  -0.00017  -0.00017   2.01019
    A2        2.12069   0.00000   0.00000   0.00000   0.00000   2.12069
    A3        2.15213   0.00006   0.00000   0.00017   0.00017   2.15230
    A4        1.78125   0.00003   0.00000   0.00005   0.00005   1.78130
    A5        1.92279   0.00000   0.00000   0.00002   0.00002   1.92281
    A6        2.10270   0.00003   0.00000   0.00028   0.00028   2.10298
    A7        2.25769  -0.00003   0.00000  -0.00030  -0.00030   2.25739
    A8        1.93248   0.00004   0.00000   0.00014   0.00014   1.93261
    A9        2.25135  -0.00005   0.00000  -0.00037  -0.00037   2.25098
   A10        2.09936   0.00001   0.00000   0.00023   0.00023   2.09959
   A11        1.77789  -0.00000   0.00000  -0.00003  -0.00003   1.77786
   A12        1.99779   0.00002   0.00000  -0.00002  -0.00002   1.99778
   A13        2.18292   0.00000   0.00000   0.00012   0.00012   2.18304
   A14        2.10247  -0.00002   0.00000  -0.00010  -0.00010   2.10236
   A15        1.90207   0.00003   0.00000   0.00007   0.00007   1.90215
    D1        0.00012  -0.00001   0.00000  -0.00011  -0.00011   0.00000
    D2       -3.14140  -0.00001   0.00000  -0.00017  -0.00017  -3.14157
    D3        0.00011  -0.00001   0.00000  -0.00011  -0.00011  -0.00000
    D4       -3.14156  -0.00001   0.00000  -0.00006  -0.00006   3.14157
    D5       -0.00005   0.00000   0.00000   0.00003   0.00003  -0.00001
    D6        3.14152   0.00000   0.00000   0.00006   0.00006   3.14158
    D7       -3.14157   0.00000   0.00000  -0.00002  -0.00002  -3.14159
    D8       -0.00000   0.00000   0.00000   0.00001   0.00001   0.00001
    D9       -0.00030   0.00002   0.00000   0.00030   0.00030  -0.00000
   D10        3.14153   0.00000   0.00000   0.00006   0.00006   3.14159
   D11        0.00040  -0.00002   0.00000  -0.00040  -0.00040   0.00000
   D12       -3.14144  -0.00001   0.00000  -0.00015  -0.00015  -3.14159
   D13       -3.14145  -0.00001   0.00000  -0.00014  -0.00014  -3.14159
   D14       -0.00010   0.00001   0.00000   0.00011   0.00011   0.00000
   D15       -0.00029   0.00002   0.00000   0.00030   0.00030   0.00000
   D16        3.14152   0.00000   0.00000   0.00008   0.00008  -3.14159
   D17        0.00009   0.00000   0.00000  -0.00009  -0.00009   0.00000
   D18       -3.14148  -0.00000   0.00000  -0.00011  -0.00011  -3.14159
         Item               Value     Threshold  Converged?
 Maximum Force            0.000231     0.000450     YES
 RMS     Force            0.000049     0.000300     YES
 Maximum Displacement     0.000673     0.001800     YES
 RMS     Displacement     0.000213     0.001200     YES
 Predicted change in Energy=-1.501614D-07
 Optimization completed.
    -- Stationary point found.
                           ----------------------------
                           !   Optimized Parameters   !
                           ! (Angstroms and Degrees)  !
 --------------------------                            --------------------------
 ! Name  Definition              Value          Derivative Info.                !
 --------------------------------------------------------------------------------
 ! R1    R(1,2)                  1.3836         -DE/DX =    0.0001              !
 ! R2    R(1,5)                  1.3777         -DE/DX =    0.0001              !
 ! R3    R(1,9)                  1.349          -DE/DX =    0.0                 !
 ! R4    R(2,3)                  1.359          -DE/DX =   -0.0001              !
 ! R5    R(3,4)                  1.3817         -DE/DX =    0.0                 !
 ! R6    R(3,6)                  1.0803         -DE/DX =    0.0                 !
 ! R7    R(4,5)                  1.3594         -DE/DX =    0.0                 !
 ! R8    R(4,7)                  1.0803         -DE/DX =    0.0                 !
 ! R9    R(8,10)                 0.9756         -DE/DX =    0.0001              !
 ! R10   R(9,10)                 1.3598         -DE/DX =    0.0001              !
 ! R11   R(9,11)                 1.2427         -DE/DX =   -0.0002              !
 ! A1    A(2,1,5)              115.1856         -DE/DX =   -0.0001              !
 ! A2    A(2,1,9)              121.5066         -DE/DX =    0.0                 !
 ! A3    A(5,1,9)              123.3079         -DE/DX =    0.0001              !
 ! A4    A(1,2,3)              102.0579         -DE/DX =    0.0                 !
 ! A5    A(2,3,4)              110.168          -DE/DX =    0.0                 !
 ! A6    A(2,3,6)              120.476          -DE/DX =    0.0                 !
 ! A7    A(4,3,6)              129.3561         -DE/DX =    0.0                 !
 ! A8    A(3,4,5)              110.7228         -DE/DX =    0.0                 !
 ! A9    A(3,4,7)              128.9927         -DE/DX =    0.0                 !
 ! A10   A(5,4,7)              120.2845         -DE/DX =    0.0                 !
 ! A11   A(1,5,4)              101.8658         -DE/DX =    0.0                 !
 ! A12   A(1,9,10)             114.4651         -DE/DX =    0.0                 !
 ! A13   A(1,9,11)             125.0723         -DE/DX =    0.0                 !
 ! A14   A(10,9,11)            120.4625         -DE/DX =    0.0                 !
 ! A15   A(8,10,9)             108.9808         -DE/DX =    0.0                 !
 ! D1    D(5,1,2,3)              0.0068         -DE/DX =    0.0                 !
 ! D2    D(9,1,2,3)           -179.9892         -DE/DX =    0.0                 !
 ! D3    D(2,1,5,4)              0.0061         -DE/DX =    0.0                 !
 ! D4    D(9,1,5,4)            180.002          -DE/DX =    0.0                 !
 ! D5    D(2,1,9,10)            -0.0028         -DE/DX =    0.0                 !
 ! D6    D(2,1,9,11)           179.9956         -DE/DX =    0.0                 !
 ! D7    D(5,1,9,10)          -179.9984         -DE/DX =    0.0                 !
 ! D8    D(5,1,9,11)             0.0            -DE/DX =    0.0                 !
 ! D9    D(1,2,3,4)             -0.0171         -DE/DX =    0.0                 !
 ! D10   D(1,2,3,6)            179.9961         -DE/DX =    0.0                 !
 ! D11   D(2,3,4,5)              0.0228         -DE/DX =    0.0                 !
 ! D12   D(2,3,4,7)           -179.9912         -DE/DX =    0.0                 !
 ! D13   D(6,3,4,5)           -179.992          -DE/DX =    0.0                 !
 ! D14   D(6,3,4,7)             -0.006          -DE/DX =    0.0                 !
 ! D15   D(3,4,5,1)             -0.0168         -DE/DX =    0.0                 !
 ! D16   D(7,4,5,1)           -180.0042         -DE/DX =    0.0                 !
 ! D17   D(1,9,10,8)             0.0052         -DE/DX =    0.0                 !
 ! D18   D(11,9,10,8)         -179.9933         -DE/DX =    0.0                 !
 --------------------------------------------------------------------------------
 GradGradGradGradGradGradGradGradGradGradGradGradGradGradGradGradGradGrad


 ----------------------------------------------------------------------

 Electric dipole moment (input orientation):
 (Debye = 10**-18 statcoulomb cm , SI units = C m)
                  (au)            (Debye)         (10**-30 SI)
   Tot        0.286740D+01      0.728819D+01      0.243108D+02
   x          0.218939D+01      0.556488D+01      0.185625D+02
   y          0.185163D+01      0.470636D+01      0.156987D+02
   z          0.250893D-03      0.637706D-03      0.212716D-02

 Dipole polarizability, Alpha (input orientation).
 (esu units = cm**3 , SI units = C**2 m**2 J**-1)
 Alpha(0;0):
               (au)            (10**-24 esu)      (10**-40 SI)
   iso        0.109520D+03      0.162292D+02      0.180574D+02
   aniso      0.864456D+02      0.128099D+02      0.142530D+02
   xx         0.157125D+03      0.232835D+02      0.259064D+02
   yx         0.948613D+01      0.140570D+01      0.156405D+01
   yy         0.112199D+03      0.166262D+02      0.184991D+02
   zx         0.671709D-02      0.995370D-03      0.110750D-02
   zy         0.904012D-03      0.133961D-03      0.149051D-03
   zz         0.592355D+02      0.877780D+01      0.976661D+01

 ----------------------------------------------------------------------

 Dipole orientation:
     7          0.07753598         -0.09175284         -0.08161568
     7         -0.51546427          0.60939827          2.36639661
     6          0.88165603         -1.04193026          3.75079105
     6          2.22409771         -2.63000708          2.17170385
     7          1.75341414         -2.07314823         -0.29148729
     1          0.83250658         -0.98347993          5.79075267
     1          3.50430113         -4.14389202          2.65850468
     1         -2.66250913          3.14819967          0.34119031
     6         -0.93435895          1.10481018         -2.09231952
     8         -2.54816196          3.01287578         -1.49391091
     8         -0.49094404          0.58076296         -4.33820169

 Electric dipole moment (dipole orientation):
 (Debye = 10**-18 statcoulomb cm , SI units = C m)
                  (au)            (Debye)         (10**-30 SI)
   Tot        0.286740D+01      0.728819D+01      0.243108D+02
   x          0.000000D+00      0.000000D+00      0.000000D+00
   y          0.000000D+00      0.000000D+00      0.000000D+00
   z          0.286740D+01      0.728819D+01      0.243108D+02

 Dipole polarizability, Alpha (dipole orientation).
 (esu units = cm**3 , SI units = C**2 m**2 J**-1)
 Alpha(0;0):
               (au)            (10**-24 esu)      (10**-40 SI)
   iso        0.109520D+03      0.162292D+02      0.180574D+02
   aniso      0.864456D+02      0.128099D+02      0.142530D+02
   xx         0.852303D+02      0.126298D+02      0.140526D+02
   yx        -0.307386D+02     -0.455499D+01     -0.506811D+01
   yy         0.955835D+02      0.141640D+02      0.157596D+02
   zx         0.132888D+02      0.196920D+01      0.219103D+01
   zy        -0.157098D+02     -0.232795D+01     -0.259019D+01
   zz         0.147745D+03      0.218936D+02      0.243599D+02

 ----------------------------------------------------------------------
 1\1\GINC-NODE2\Freq\UM062X\6-31+G(d,p)\C3H3N3O2(1-,2)\GONGKE2021\01-Ju
 l-2023\0\\#N Geom=AllCheck Guess=TCheck SCRF=Check GenChk UM062X/6-31+
 G(d,p) Freq\\"Sketch 2"\\-1,2\N,0.0080723435,-0.0764268756,0.000021166
 9\N,0.6834000921,1.1311387646,0.00014214\C,1.9819220348,0.7302211136,-
 0.0000158432\C,2.0544743257,-0.6495881863,0.0001677761\N,0.810060011,-
 1.1966950109,-0.0000538194\H,2.7800762905,1.4581673906,-0.0000359285\H
 ,2.9286610222,-1.2843201402,0.0002419122\H,-1.2710816695,1.7825451102,
 0.0000143243\C,-1.3398494719,-0.13034275,-0.0000997901\O,-1.9520172312
 ,1.0838754398,-0.0000303642\O,-2.0127237472,-1.1751688559,-0.000290574
 \\Version=ES64L-G16RevA.03\State=2-A\HF=-430.7621007\S2=0.764065\S2-1=
 0.\S2A=0.750113\RMSD=1.823e-09\RMSF=8.225e-05\ZeroPoint=0.0714802\Ther
 mal=0.07791\Dipole=2.1893935,1.8516259,0.0002509\DipoleDeriv=-0.800382
 3,-0.0884689,-0.0000398,-0.0402993,-0.0942952,-0.0000018,-0.0001557,0.
 0000454,-0.0207863,-0.4604078,0.7845209,-0.0000716,-0.579965,-0.962048
 ,-0.0000474,-0.0000881,-0.0002161,-0.3424781,-0.0917213,-0.6520797,0.0
 000076,0.2401969,0.3329339,-0.0000107,0.0002046,0.0002145,-0.2419206,-
 0.0974345,0.5267243,-0.0000384,-0.2766949,0.3331684,-0.0000864,-0.0001
 968,0.0001504,-0.2440431,-0.3781288,-0.615208,0.0000576,0.6754909,-0.8
 066496,0.0001075,0.0001099,-0.0001882,-0.3470076,0.0372807,-0.0672503,
 -0.0000038,-0.0953706,0.0788512,0.0000019,-0.0000477,-0.0000345,0.2521
 767,0.0135074,0.06199,-0.0000133,0.0936098,0.0938548,0.0000085,0.00003
 84,-0.0000112,0.2469425,0.468659,-0.0714973,0.0000007,-0.0578501,0.504
 7668,-0.000005,-0.0000292,0.0000123,0.4519678,3.8457386,0.4185617,0.00
 02948,1.0030398,2.7693185,0.0003313,0.0006001,0.00034,0.4914784,-1.206
 3346,0.2989839,-0.0000159,1.0797836,-1.5359031,-0.0000412,0.0000143,-0
 .0001016,-0.5691125,-2.3307765,-0.5962765,-0.0001778,-2.0419412,-1.713
 9979,-0.0002568,-0.0004499,-0.0002109,-0.6772171\Polar=157.1248023,9.4
 861295,112.1989489,0.0067171,0.000904,59.2355008\Quadrupole=-3.2779314
 ,-1.1582529,4.4361843,-4.1981023,-0.0011504,-0.0015099\PG=C01 [X(C3H3N
 3O2)]\NImag=0\\0.90025970,0.00313289,0.57313164,0.00005073,0.00004452,
 0.08577893,-0.11842978,-0.07405181,-0.00001950,0.51991146,0.00845567,-
 0.19807832,-0.00001770,-0.05761404,0.39171904,0.00000327,-0.00001820,-
 0.04295911,-0.00000453,0.00002325,0.06151525,-0.09403588,-0.04300283,0
 .00001238,-0.29757372,0.05119398,0.00001532,0.71261901,-0.02644852,-0.
 01347900,0.00000299,0.09460064,-0.12456708,-0.00001716,0.14413215,0.78
 068532,-0.00000846,0.00000458,0.00446067,0.00002169,-0.00000367,-0.046
 13037,-0.00001458,-0.00002638,0.10880077,-0.10329271,0.03512041,-0.000
 01860,-0.05290279,0.03484845,0.00000894,-0.06891976,0.02254648,-0.0000
 1475,0.74343201,0.01752532,-0.00574509,0.00000231,0.07411715,-0.035090
 56,0.00001024,0.01352579,-0.37957346,0.00003127,-0.15061988,0.74883135
 ,0.00000236,0.00000746,0.00362523,-0.00001031,-0.00000810,0.02191488,0
 .00000433,0.00003481,-0.06271368,0.00005641,-0.00003463,0.11188094,-0.
 12695262,0.08345781,0.00000983,0.00432997,0.00401618,-0.00001274,-0.04
 003664,-0.07475858,0.00000975,-0.27767702,-0.10908059,-0.00003300,0.49
 396469,0.00154931,-0.19491205,-0.00001256,0.00230737,-0.04725009,-0.00
 000240,-0.03460598,-0.04699023,-0.00000812,-0.06818771,-0.14210600,-0.
 00001021,0.06371336,0.40824946,-0.00000853,-0.00001843,-0.04187885,0.0
 0001282,-0.00000006,0.00197645,-0.00001289,0.00000352,0.02242484,-0.00
 002347,-0.00002309,-0.04801780,0.00003470,0.00002684,0.06300055,-0.006
 43195,0.00158163,0.00000134,-0.01507751,-0.02055468,-0.00000210,-0.220
 46239,-0.15100393,0.00000475,0.00860925,0.00438514,0.00000041,0.000574
 43,0.00322732,0.00000004,0.23303925,0.00539287,-0.00036086,-0.00000101
 ,0.00783881,0.01197792,0.00000088,-0.15685940,-0.20468562,0.00000633,-
 0.02234310,-0.00495137,-0.00000369,0.00057804,-0.00432874,0.00000211,0
 .16482670,0.20115320,-0.00000133,-0.00000288,0.00554922,0.00000392,0.0
 0000323,-0.00512781,-0.00000043,0.00000119,-0.02635434,0.00000554,0.00
 000410,0.00020275,-0.00000426,-0.00000103,0.00648895,-0.00000462,-0.00
 000446,0.02089140,-0.00589778,-0.00180573,-0.00000233,0.00086327,-0.00
 268608,-0.00000057,0.00651644,-0.00333477,0.00000039,-0.25397191,0.144
 88561,-0.00001918,-0.01595691,0.01744958,0.00000144,-0.00034892,0.0005
 6782,0.00000009,0.26895037,-0.00610470,-0.00079487,-0.00000160,0.00028
 650,-0.00493891,0.00000207,0.02368690,-0.00301347,-0.00000231,0.150580
 86,-0.17124968,0.00001586,-0.01087968,0.01286205,0.00000039,-0.0006191
 4,0.00015138,-0.00000019,-0.15670441,0.16564577,0.00000062,-0.00000274
 ,0.00570696,0.00000350,-0.00000046,0.00658438,-0.00000491,0.00000271,0
 .00020023,-0.00001397,0.00001123,-0.02756679,-0.00000459,0.00000373,-0
 .00531197,0.00000004,-0.00000015,-0.00244743,0.00002016,-0.00001424,0.
 02193759,-0.00130024,0.00816999,-0.00000014,0.00564028,-0.00057362,-0.
 00000228,-0.00486590,-0.00170119,0.00000159,0.00170021,-0.00174730,-0.
 00000012,-0.00101133,0.00034168,0.,0.00004944,0.00009772,0.00000016,-0
 .00017353,-0.00041513,-0.00000010,0.24712697,0.00082824,-0.00112169,0.
 00000020,-0.00087096,-0.00076093,0.00000152,-0.00046096,0.00058126,0.0
 0000002,-0.00125408,0.00039585,-0.00000015,-0.00087934,-0.00045778,-0.
 00000020,-0.00019737,-0.00001577,-0.00000004,-0.00021760,0.00004778,0.
 00000002,0.21801837,0.29976677,0.00000051,0.00000015,0.00182407,-0.000
 00010,0.00000081,0.00040233,-0.00000035,-0.00000048,-0.00115879,0.0000
 0006,0.00000004,-0.00002083,-0.00000034,0.00000080,-0.00070582,-0.0000
 0002,0.00000001,-0.00005613,-0.00000005,-0.00000004,0.00017817,0.00001
 511,0.00001838,0.00576244,-0.36617744,-0.00964284,-0.00002051,-0.03309
 122,-0.00513559,-0.00000447,0.01469105,-0.00985522,-0.00000150,0.01190
 511,0.01247914,0.00000171,-0.03360577,0.00357339,-0.00000241,0.0017132
 2,-0.00005532,0.00000113,0.00161789,0.00008907,-0.00000114,0.02347919,
 -0.02499306,-0.00000079,0.76007871,-0.00295831,-0.12259068,-0.00000886
 ,-0.03067240,0.01851079,0.00000065,0.00181613,-0.01382331,-0.00000215,
 0.00554782,-0.00566353,0.00000124,0.03387898,-0.00446535,0.00000142,-0
 .00121606,0.00095723,0.00000021,0.00176965,0.00086353,-0.00000013,0.00
 828986,-0.03955333,-0.00000272,0.15084791,0.76049122,-0.00003086,-0.00
 000797,-0.04264429,-0.00000489,0.00000720,0.00047061,0.00000445,-0.000
 00210,-0.00162252,0.00000009,0.00000051,-0.00074205,0.00000465,-0.0000
 0304,-0.00003088,0.00000056,-0.00000032,0.00087743,0.00000015,-0.00000
 022,0.00076420,0.00000163,-0.00000372,-0.00334515,0.00006751,0.0000756
 5,0.13586052,-0.03876028,0.05301410,0.00000142,-0.00839235,-0.00129896
 ,0.00000084,-0.00087259,0.00415430,-0.00000071,-0.00317578,0.00286189,
 -0.00000021,-0.00610779,-0.00294956,-0.00000163,-0.00034387,-0.0001558
 9,-0.00000011,-0.00088482,-0.00007471,0.00000023,-0.26782362,-0.193491
 11,-0.00001383,-0.15487367,0.03570018,-0.00000306,0.45633066,0.0120534
 9,-0.02305957,0.00000086,-0.01240421,0.01794298,0.00000352,0.00812963,
 -0.00377928,-0.00000350,0.00223753,0.00419701,0.00000184,0.00670314,-0
 .01379594,-0.00000191,0.00041829,0.00002563,-0.00000002,0.00078700,0.0
 0033653,-0.00000011,-0.23689099,-0.25603066,-0.00001496,0.08492287,-0.
 19410611,-0.00001100,0.12801371,0.54713183,-0.00000348,0.00000241,0.00
 825236,-0.00000121,0.00000011,-0.00237531,-0.00000081,0.00000081,0.000
 46832,0.00000027,-0.00000056,0.00178744,-0.00000016,-0.00000139,0.0040
 8059,0.,0.00000005,-0.00009520,0.00000007,0.00000019,-0.00007564,-0.00
 001662,-0.00001614,-0.00688913,0.00000187,-0.00000795,-0.03749290,0.00
 001905,0.00003396,0.02427860,-0.03898102,-0.05597362,-0.00001461,-0.00
 527761,-0.01065132,-0.00000169,-0.00705962,0.00166865,0.00000184,-0.00
 570659,-0.00833228,-0.00000241,0.00247899,0.01358123,-0.00000006,-0.00
 132094,0.00011174,-0.00000010,-0.00071411,0.00015445,0.00000016,-0.002
 82145,0.00351786,-0.00000020,-0.22573707,-0.20300377,-0.00004023,0.024
 90411,0.00602956,0.00000102,0.26023533,-0.01342626,-0.01298952,-0.0000
 0916,-0.00353705,-0.02946484,-0.00000438,-0.00755539,0.00864488,0.0000
 0393,-0.00847678,-0.00904451,-0.00000442,0.00325066,0.03319467,0.00000
 941,-0.00084790,0.00007700,-0.00000011,-0.00071106,0.00008989,0.000000
 15,0.00641060,-0.00285151,-0.00000200,-0.20223036,-0.40062043,-0.00005
 500,-0.02577395,-0.07886240,-0.00001148,0.25289750,0.49182677,-0.00000
 483,-0.00000890,0.01228481,-0.00000139,-0.00000462,0.00372869,-0.00000
 252,0.00000009,0.00162488,-0.00000053,-0.00000141,-0.00035009,-0.00000
 383,0.00000736,-0.00202606,-0.00000040,0.00000025,0.00007116,-0.000000
 17,0.00000011,0.00003030,0.00000076,0.00000010,0.00400884,-0.00004139,
 -0.00005736,-0.05209497,-0.00000198,-0.00000868,0.00806088,0.00005627,
 0.00007305,0.02466155\\0.00015118,0.00004168,0.00000024,-0.00012245,0.
 00000517,0.00002433,0.00004240,-0.00000010,-0.00003641,0.00008973,0.00
 001345,0.00003588,-0.00009273,0.00002148,-0.00002544,-0.00003807,0.000
 04610,-0.00000370,0.00000031,0.00000631,0.00000384,-0.00006215,-0.0000
 9062,-0.00000065,0.00003927,0.00025852,0.00000356,0.00009275,-0.000072
 55,0.00000087,-0.00010024,-0.00022944,-0.00000252\\\@


    UPON JULIA'S CLOTHES

 WHENAS IN SILKS MY JULIA GOES,
 THEN, THEN, METHINKS, HOW SWEETLY FLOWS
 THAT LIQUEFACTION OF HER CLOTHES.

 NEXT, WHEN I CAST MINE EYES, AND SEE
 THAT BRAVE VIBRATION, EACH WAY FREE,
 O, HOW THAT GLITTERING TAKETH ME!
     -- ROBERT HERRICK, 1648
 Job cpu time:       0 days  0 hours 41 minutes 40.6 seconds.
 Elapsed time:       0 days  0 hours  2 minutes  6.0 seconds.
 File lengths (MBytes):  RWF=     92 Int=      0 D2E=      0 Chk=      7 Scr=      1
 Normal termination of Gaussian 16 at Sat Jul  1 04:55:43 2023.
