 Entering Gaussian System, Link 0=/opt/soft/g16/g16
 Initial command:
 /opt/soft/g16/l1.exe "/scratch/gongke2021/TS/Gau-20123.inp" -scrdir="/scratch/gongke2021/TS/"
 Entering Link 1 = /opt/soft/g16/l1.exe PID=     20124.
  
 Copyright (c) 1988,1990,1992,1993,1995,1998,2003,2009,2016,
            Gaussian, Inc.  All Rights Reserved.
  
 This is part of the Gaussian(R) 16 program.  It is based on
 the Gaussian(R) 09 system (copyright 2009, Gaussian, Inc.),
 the Gaussian(R) 03 system (copyright 2003, Gaussian, Inc.),
 the Gaussian(R) 98 system (copyright 1998, Gaussian, Inc.),
 the Gaussian(R) 94 system (copyright 1995, Gaussian, Inc.),
 the Gaussian 92(TM) system (copyright 1992, Gaussian, Inc.),
 the Gaussian 90(TM) system (copyright 1990, Gaussian, Inc.),
 the Gaussian 88(TM) system (copyright 1988, Gaussian, Inc.),
 the Gaussian 86(TM) system (copyright 1986, Carnegie Mellon
 University), and the Gaussian 82(TM) system (copyright 1983,
 Carnegie Mellon University). Gaussian is a federally registered
 trademark of Gaussian, Inc.
  
 This software contains proprietary and confidential information,
 including trade secrets, belonging to Gaussian, Inc.
  
 This software is provided under written license and may be
 used, copied, transmitted, or stored only in accord with that
 written license.
  
 The following legend is applicable only to US Government
 contracts under FAR:
  
                    RESTRICTED RIGHTS LEGEND
  
 Use, reproduction and disclosure by the US Government is
 subject to restrictions as set forth in subparagraphs (a)
 and (c) of the Commercial Computer Software - Restricted
 Rights clause in FAR 52.227-19.
  
 Gaussian, Inc.
 340 Quinnipiac St., Bldg. 40, Wallingford CT 06492
  
  
 ---------------------------------------------------------------
 Warning -- This program may not be used in any manner that
 competes with the business of Gaussian, Inc. or will provide
 assistance to any competitor of Gaussian, Inc.  The licensee
 of this program is prohibited from giving any competitor of
 Gaussian, Inc. access to this program.  By using this program,
 the user acknowledges that Gaussian, Inc. is engaged in the
 business of creating and licensing software in the field of
 computational chemistry and represents and warrants to the
 licensee that it is not a competitor of Gaussian, Inc. and that
 it will not use this program in any manner prohibited above.
 ---------------------------------------------------------------
  

 Cite this work as:
 Gaussian 16, Revision A.03,
 M. J. Frisch, G. W. Trucks, H. B. Schlegel, G. E. Scuseria, 
 M. A. Robb, J. R. Cheeseman, G. Scalmani, V. Barone, 
 G. A. Petersson, H. Nakatsuji, X. Li, M. Caricato, A. V. Marenich, 
 J. Bloino, B. G. Janesko, R. Gomperts, B. Mennucci, H. P. Hratchian, 
 J. V. Ortiz, A. F. Izmaylov, J. L. Sonnenberg, D. Williams-Young, 
 F. Ding, F. Lipparini, F. Egidi, J. Goings, B. Peng, A. Petrone, 
 T. Henderson, D. Ranasinghe, V. G. Zakrzewski, J. Gao, N. Rega, 
 G. Zheng, W. Liang, M. Hada, M. Ehara, K. Toyota, R. Fukuda, 
 J. Hasegawa, M. Ishida, T. Nakajima, Y. Honda, O. Kitao, H. Nakai, 
 T. Vreven, K. Throssell, J. A. Montgomery, Jr., J. E. Peralta, 
 F. Ogliaro, M. J. Bearpark, J. J. Heyd, E. N. Brothers, K. N. Kudin, 
 V. N. Staroverov, T. A. Keith, R. Kobayashi, J. Normand, 
 K. Raghavachari, A. P. Rendell, J. C. Burant, S. S. Iyengar, 
 J. Tomasi, M. Cossi, J. M. Millam, M. Klene, C. Adamo, R. Cammi, 
 J. W. Ochterski, R. L. Martin, K. Morokuma, O. Farkas, 
 J. B. Foresman, and D. J. Fox, Gaussian, Inc., Wallingford CT, 2016.
 
 ******************************************
 Gaussian 16:  ES64L-G16RevA.03 25-Dec-2016
                 7-Jul-2023 
 ******************************************
 %mem=10GB
 %nprocshared=24
 Will use up to   24 processors via shared memory.
 ----------------------------------------------------------------------
 # opt=(calcfc,ts,noeigentest,maxcycle=600) freq 6-31+g(d,p) scrf=(smd,
 solvent=water) integral=grid=ultrafine m062x
 ----------------------------------------------------------------------
 1/5=1,6=600,10=4,11=1,18=20,26=6,38=1/1,3;
 2/9=110,12=2,17=6,18=5,40=1/2;
 3/5=1,6=6,7=111,11=2,25=1,30=1,70=32201,71=2,72=1,74=-55,75=-5,140=1/1,2,3;
 4//1;
 5/5=2,38=5,53=1/2;
 8/6=4,10=90,11=11/1;
 11/6=1,8=1,9=11,15=111,16=1/1,2,10;
 10/6=1,13=1/2;
 6/7=2,8=2,9=2,10=2,28=1/1;
 7/10=1,18=20,25=1/1,2,3,16;
 1/5=1,6=600,10=4,11=1,18=20,26=6/3(2);
 2/9=110/2;
 99//99;
 2/9=110/2;
 3/5=1,6=6,7=111,11=2,25=1,30=1,70=32205,71=1,72=1,74=-55,75=-5/1,2,3;
 4/5=5,16=3,69=1/1;
 5/5=2,38=5,53=1/2;
 7//1,2,3,16;
 1/5=1,6=600,11=1,18=20,26=6/3(-5);
 2/9=110/2;
 6/7=2,8=2,9=2,10=2,19=2,28=1/1;
 99/9=1/99;
 --
 TS
 --
 Symbolic Z-matrix:
 Charge =  0 Multiplicity = 1
 O                     8.72728   19.5869   7.81993 
 H                     9.46617   19.8024   8.58374 
 H                     8.12055   18.958    8.27435 
 N                     10.1      19.099    4.534 
 N                     10.166    20.024    5.481 
 C                     11.285    20.75     5.18 
 C                     11.82     20.17     3.92 
 N                     11.06     19.148    3.512 
 H                     11.767    21.563    5.632 
 H                     12.632    20.549    3.286 
 H                     8.847     19.4667   6.84099 
 C                     9.06      18.192    4.59 
 O                     8.145     18.481    5.499 
 O                     9.009     17.227    3.772 
 
 Add virtual bond connecting atoms O13        and H11        Dist= 3.41D+00.

 GradGradGradGradGradGradGradGradGradGradGradGradGradGradGradGradGradGrad
 Berny optimization.
 Initialization pass.
                           ----------------------------
                           !    Initial Parameters    !
                           ! (Angstroms and Degrees)  !
 --------------------------                            --------------------------
 ! Name  Definition              Value          Derivative Info.                !
 --------------------------------------------------------------------------------
 ! R1    R(1,2)                  1.0843         calculate D2E/DX2 analytically  !
 ! R2    R(1,3)                  0.985          calculate D2E/DX2 analytically  !
 ! R3    R(1,11)                 0.9935         calculate D2E/DX2 analytically  !
 ! R4    R(4,5)                  1.3254         calculate D2E/DX2 analytically  !
 ! R5    R(4,8)                  1.403          calculate D2E/DX2 analytically  !
 ! R6    R(4,12)                 1.3811         calculate D2E/DX2 analytically  !
 ! R7    R(5,6)                  1.3674         calculate D2E/DX2 analytically  !
 ! R8    R(6,7)                  1.4867         calculate D2E/DX2 analytically  !
 ! R9    R(6,9)                  1.0477         calculate D2E/DX2 analytically  !
 ! R10   R(7,8)                  1.3374         calculate D2E/DX2 analytically  !
 ! R11   R(7,10)                 1.0977         calculate D2E/DX2 analytically  !
 ! R12   R(11,13)                1.807          calculate D2E/DX2 analytically  !
 ! R13   R(12,13)                1.3218         calculate D2E/DX2 analytically  !
 ! R14   R(12,14)                1.2661         calculate D2E/DX2 analytically  !
 ! A1    A(2,1,3)              102.8068         calculate D2E/DX2 analytically  !
 ! A2    A(2,1,11)             129.4932         calculate D2E/DX2 analytically  !
 ! A3    A(3,1,11)             116.8442         calculate D2E/DX2 analytically  !
 ! A4    A(5,4,8)              117.5163         calculate D2E/DX2 analytically  !
 ! A5    A(5,4,12)             117.8299         calculate D2E/DX2 analytically  !
 ! A6    A(8,4,12)             124.5916         calculate D2E/DX2 analytically  !
 ! A7    A(4,5,6)              104.7143         calculate D2E/DX2 analytically  !
 ! A8    A(5,6,7)              105.8973         calculate D2E/DX2 analytically  !
 ! A9    A(5,6,9)              133.91           calculate D2E/DX2 analytically  !
 ! A10   A(7,6,9)              120.1879         calculate D2E/DX2 analytically  !
 ! A11   A(6,7,8)              110.6214         calculate D2E/DX2 analytically  !
 ! A12   A(6,7,10)             128.3898         calculate D2E/DX2 analytically  !
 ! A13   A(8,7,10)             120.5321         calculate D2E/DX2 analytically  !
 ! A14   A(4,8,7)              101.1455         calculate D2E/DX2 analytically  !
 ! A15   A(1,11,13)            138.6706         calculate D2E/DX2 analytically  !
 ! A16   A(4,12,13)            113.928          calculate D2E/DX2 analytically  !
 ! A17   A(4,12,14)            120.3111         calculate D2E/DX2 analytically  !
 ! A18   A(13,12,14)           125.6689         calculate D2E/DX2 analytically  !
 ! A19   A(11,13,12)           111.1662         calculate D2E/DX2 analytically  !
 ! D1    D(2,1,3,11)          -147.7825         calculate D2E/DX2 analytically  !
 ! D2    D(2,1,11,13)          145.2384         calculate D2E/DX2 analytically  !
 ! D3    D(3,1,11,13)            7.5894         calculate D2E/DX2 analytically  !
 ! D4    D(8,4,5,6)             -3.5343         calculate D2E/DX2 analytically  !
 ! D5    D(12,4,5,6)           179.201          calculate D2E/DX2 analytically  !
 ! D6    D(5,4,8,7)              3.0902         calculate D2E/DX2 analytically  !
 ! D7    D(12,4,8,7)          -179.8483         calculate D2E/DX2 analytically  !
 ! D8    D(5,4,12,13)            8.7931         calculate D2E/DX2 analytically  !
 ! D9    D(5,4,12,14)         -174.5002         calculate D2E/DX2 analytically  !
 ! D10   D(8,4,12,13)         -168.26           calculate D2E/DX2 analytically  !
 ! D11   D(8,4,12,14)            8.4467         calculate D2E/DX2 analytically  !
 ! D12   D(4,5,6,7)              2.307          calculate D2E/DX2 analytically  !
 ! D13   D(4,5,6,9)           -178.5231         calculate D2E/DX2 analytically  !
 ! D14   D(5,6,7,8)             -0.5903         calculate D2E/DX2 analytically  !
 ! D15   D(5,6,7,10)           171.5731         calculate D2E/DX2 analytically  !
 ! D16   D(9,6,7,8)           -179.8984         calculate D2E/DX2 analytically  !
 ! D17   D(9,6,7,10)            -7.7351         calculate D2E/DX2 analytically  !
 ! D18   D(6,7,8,4)             -1.2947         calculate D2E/DX2 analytically  !
 ! D19   D(10,7,8,4)          -174.1673         calculate D2E/DX2 analytically  !
 ! D20   D(1,11,13,12)        -146.9779         calculate D2E/DX2 analytically  !
 ! D21   D(4,12,13,11)         -25.8481         calculate D2E/DX2 analytically  !
 ! D22   D(14,12,13,11)        157.6517         calculate D2E/DX2 analytically  !
 --------------------------------------------------------------------------------
 Trust Radius=3.00D-01 FncErr=5.00D-06 GrdErr=5.00D-06 EigMax=2.50D+02 EigMin=1.00D-04
 Number of steps in this run=    100 maximum allowed number of steps=    100.
 Search for a saddle point of order  1.
 GradGradGradGradGradGradGradGradGradGradGradGradGradGradGradGradGradGrad

                          Input orientation:                          
 ---------------------------------------------------------------------
 Center     Atomic      Atomic             Coordinates (Angstroms)
 Number     Number       Type             X           Y           Z
 ---------------------------------------------------------------------
      1          8           0        8.727280   19.586900    7.819930
      2          1           0        9.466170   19.802400    8.583740
      3          1           0        8.120550   18.958000    8.274350
      4          7           0       10.100000   19.099000    4.534000
      5          7           0       10.166000   20.024000    5.481000
      6          6           0       11.285000   20.750000    5.180000
      7          6           0       11.820000   20.170000    3.920000
      8          7           0       11.060000   19.148000    3.512000
      9          1           0       11.767000   21.563000    5.632000
     10          1           0       12.632000   20.549000    3.286000
     11          1           0        8.847000   19.466700    6.840990
     12          6           0        9.060000   18.192000    4.590000
     13          8           0        8.145000   18.481000    5.499000
     14          8           0        9.009000   17.227000    3.772000
 ---------------------------------------------------------------------
                    Distance matrix (angstroms):
                    1          2          3          4          5
     1  O    0.000000
     2  H    1.084345   0.000000
     3  H    0.984954   1.618464   0.000000
     4  N    3.594404   4.158955   4.234185   0.000000
     5  N    2.780569   3.188395   3.622572   1.325440   0.000000
     6  C    3.855381   3.973856   4.774936   2.132450   1.367420
     7  C    5.011425   5.236995   5.840825   2.117177   2.278981
     8  N    4.918585   5.356406   5.599682   1.403027   2.333147
     9  H    4.234608   4.135976   5.202368   3.171086   2.225876
    10  H    6.060445   6.216586   6.911447   3.173488   3.342874
    11  H    0.993531   1.879692   1.685534   2.650927   1.974821
    12  C    3.533963   4.325312   3.878628   1.381081   2.318047
    13  O    2.636054   3.606551   2.816149   2.266092   2.542757
    14  O    4.694063   5.476726   4.904779   2.296804   3.475995
                    6          7          8          9         10
     6  C    0.000000
     7  C    1.486683   0.000000
     8  N    2.323629   1.337366   0.000000
     9  H    1.047663   2.207759   3.290361   0.000000
    10  H    2.332819   1.097698   2.117796   2.698173   0.000000
    11  H    3.217078   4.226765   4.010126   3.792431   5.304296
    12  C    3.441234   3.461067   2.464958   4.447162   4.473818
    13  O    3.887123   4.341841   3.590304   4.757657   5.413609
    14  O    4.424270   4.072453   2.822134   5.465076   4.939434
                   11         12         13         14
    11  H    0.000000
    12  C    2.595609   0.000000
    13  O    1.807027   1.321751   0.000000
    14  O    3.802788   1.266077   2.302508   0.000000
 Stoichiometry    C3H5N3O3
 Framework group  C1[X(C3H5N3O3)]
 Deg. of freedom    36
 Full point group                 C1      NOp   1
 Largest Abelian subgroup         C1      NOp   1
 Largest concise Abelian subgroup C1      NOp   1
                         Standard orientation:                         
 ---------------------------------------------------------------------
 Center     Atomic      Atomic             Coordinates (Angstroms)
 Number     Number       Type             X           Y           Z
 ---------------------------------------------------------------------
      1          8           0        2.631582   -1.384827    0.176076
      2          1           0        2.633182   -2.265828    0.808247
      3          1           0        3.483514   -0.948232    0.407871
      4          7           0       -0.543804    0.288417   -0.016072
      5          7           0       -0.088234   -0.943081   -0.196792
      6          6           0       -1.196638   -1.739377   -0.112005
      7          6           0       -2.346697   -0.817277    0.081181
      8          7           0       -1.930403    0.453030    0.120795
      9          1           0       -1.354093   -2.773709   -0.166431
     10          1           0       -3.418790   -1.052625    0.068164
     11          1           0        1.877016   -0.790156   -0.077105
     12          6           0        0.370695    1.323200   -0.033392
     13          8           0        1.583313    0.960654   -0.414372
     14          8           0        0.004119    2.504513    0.236925
 ---------------------------------------------------------------------
 Rotational constants (GHZ):           2.0335824           1.5101604           0.8846279
 Standard basis: 6-31+G(d,p) (6D, 7F)
 There are   196 symmetry adapted cartesian basis functions of A   symmetry.
 There are   196 symmetry adapted basis functions of A   symmetry.
   196 basis functions,   323 primitive gaussians,   196 cartesian basis functions
    34 alpha electrons       34 beta electrons
       nuclear repulsion energy       449.6574490905 Hartrees.
 NAtoms=   14 NActive=   14 NUniq=   14 SFac= 1.00D+00 NAtFMM=   60 NAOKFM=F Big=F
 Integral buffers will be    131072 words long.
 Raffenetti 2 integral format.
 Two-electron integral symmetry is turned on.
 Force inversion solution in PCM.
 ------------------------------------------------------------------------------
 Polarizable Continuum Model (PCM)
 =================================
 Model                : PCM.
 Atomic radii         : SMD-Coulomb.
 Polarization charges : Total charges.
 Charge compensation  : None.
 Solution method      : Matrix inversion.
 Cavity type          : VdW (van der Waals Surface) (Alpha=1.000).
 Cavity algorithm     : GePol (No added spheres)
                        Default sphere list used, NSphG=   14.
                        Lebedev-Laikov grids with approx.  5.0 points / Ang**2.
                        Smoothing algorithm: York/Karplus (Gamma=1.0000).
                        Polarization charges: spherical gaussians, with
                                              point-specific exponents (IZeta= 3).
                        Self-potential: point-specific (ISelfS= 7).
                        Self-field    : sphere-specific E.n sum rule (ISelfD= 2).
 1st derivatives      : Analytical E(r).r(x)/FMM algorithm (CHGder, D1EAlg=3).
                        Cavity 1st derivative terms included.
 2nd derivatives      : Analytical E(r).r(xy)/FMM algorithm (CHGder, D2EAlg=3).
                        Cavity 2nd derivative terms included.
 Solvent              : Water, Eps=  78.355300 Eps(inf)=   1.777849
 ------------------------------------------------------------------------------
 Spheres list:
 ISph  on   Nord     Re0    Alpha      Xe            Ye            Ze
    1   O      1    1.5200  1.000      2.631582     -1.384827      0.176076
    2   H      2    1.2000  1.000      2.633182     -2.265828      0.808247
    3   H      3    1.2000  1.000      3.483514     -0.948232      0.407871
    4   N      4    1.8900  1.000     -0.543804      0.288417     -0.016072
    5   N      5    1.8900  1.000     -0.088234     -0.943081     -0.196792
    6   C      6    1.8500  1.000     -1.196638     -1.739377     -0.112005
    7   C      7    1.8500  1.000     -2.346697     -0.817277      0.081181
    8   N      8    1.8900  1.000     -1.930403      0.453030      0.120795
    9   H      9    1.2000  1.000     -1.354093     -2.773709     -0.166431
   10   H     10    1.2000  1.000     -3.418790     -1.052625      0.068164
   11   H     11    1.2000  1.000      1.877016     -0.790156     -0.077105
   12   C     12    1.8500  1.000      0.370695      1.323200     -0.033392
   13   O     13    1.5200  1.000      1.583313      0.960654     -0.414372
   14   O     14    1.5200  1.000      0.004119      2.504513      0.236925
 ------------------------------------------------------------------------------
 ------------------------------------------------------------------------------
 Atomic radii for non-electrostatic terms: SMD-CDS.
 ------------------------------------------------------------------------------
 Nuclear repulsion after PCM non-electrostatic terms =      449.6656998624 Hartrees.
 One-electron integrals computed using PRISM.
 NBasis=   196 RedAO= T EigKep=  2.84D-05  NBF=   196
 NBsUse=   196 1.00D-06 EigRej= -1.00D+00 NBFU=   196
 ExpMin= 4.38D-02 ExpMax= 5.48D+03 ExpMxC= 8.25D+02 IAcc=3 IRadAn=         5 AccDes= 0.00D+00
 Harris functional with IExCor= 1009 and IRadAn=       5 diagonalized for initial guess.
 HarFok:  IExCor= 1009 AccDes= 0.00D+00 IRadAn=         5 IDoV= 1 UseB2=F ITyADJ=14
 ICtDFT=  3500011 ScaDFX=  1.000000  1.000000  1.000000  1.000000
 FoFCou: FMM=F IPFlag=           0 FMFlag=      100000 FMFlg1=           0
         NFxFlg=           0 DoJE=T BraDBF=F KetDBF=T FulRan=T
         wScrn=  0.000000 ICntrl=       500 IOpCl=  0 I1Cent=   200000004 NGrid=           0
         NMat0=    1 NMatS0=      1 NMatT0=    0 NMatD0=    1 NMtDS0=    0 NMtDT0=    0
 Petite list used in FoFCou.
 Requested convergence on RMS density matrix=1.00D-08 within 128 cycles.
 Requested convergence on MAX density matrix=1.00D-06.
 Requested convergence on             energy=1.00D-06.
 No special actions if energy rises.
 Inv3:  Mode=1 IEnd=     4234032.
 Iteration    1 A*A^-1 deviation from unit magnitude is 2.44D-15 for    600.
 Iteration    1 A*A^-1 deviation from orthogonality  is 2.41D-15 for    564     36.
 Iteration    1 A^-1*A deviation from unit magnitude is 2.44D-15 for     19.
 Iteration    1 A^-1*A deviation from orthogonality  is 8.22D-15 for    734    640.
 Error on total polarization charges =  0.04276
 SCF Done:  E(RM062X) =  -507.031360093     A.U. after   14 cycles
            NFock= 14  Conv=0.60D-08     -V/T= 2.0099
 SMD-CDS (non-electrostatic) energy       (kcal/mol) =       5.18
 (included in total energy above)
 DoSCS=F DFT=T ScalE2(SS,OS)=  1.000000  1.000000
 Range of M.O.s used for correlation:     1   196
 NBasis=   196 NAE=    34 NBE=    34 NFC=     0 NFV=     0
 NROrb=    196 NOA=    34 NOB=    34 NVA=   162 NVB=   162

 **** Warning!!: The largest alpha MO coefficient is  0.65253555D+02

 Symmetrizing basis deriv contribution to polar:
 IMax=3 JMax=2 DiffMx= 0.00D+00
 G2DrvN: will do    15 centers at a time, making    1 passes.
 Calling FoFCou, ICntrl=  3107 FMM=F I1Cent=   0 AccDes= 0.00D+00.
 NEqPCM:  Using equilibrium solvation (IEInf=0, Eps=  78.3553, EpsInf=   1.7778)
 G2PCM: DoFxE=T DoFxN=T DoGrad=T DoDP/DQ/DG/TGxP=FFFF NFrqRd=   0 IEInf=0 SqF1=F DoCFld=F IF1Alg=4.
 End of G2Drv F.D. properties file   721 does not exist.
 End of G2Drv F.D. properties file   722 does not exist.
 End of G2Drv F.D. properties file   788 does not exist.
          IDoAtm=11111111111111
 NEqPCM:  Using equilibrium solvation (IEInf=0, Eps=  78.3553, EpsInf=   1.7778)
          Differentiating once with respect to nuclear coordinates.
 Keep R1 ints in memory in canonical form, NReq=210913837.
          There are    45 degrees of freedom in the 1st order CPHF.  IDoFFX=6 NUNeed=     0.
     39 vectors produced by pass  0 Test12= 1.22D-14 2.22D-09 XBig12= 1.62D-01 1.47D-01.
 AX will form    39 AO Fock derivatives at one time.
     39 vectors produced by pass  1 Test12= 1.22D-14 2.22D-09 XBig12= 2.23D-02 3.86D-02.
     39 vectors produced by pass  2 Test12= 1.22D-14 2.22D-09 XBig12= 5.88D-04 4.76D-03.
     39 vectors produced by pass  3 Test12= 1.22D-14 2.22D-09 XBig12= 6.59D-06 4.23D-04.
     39 vectors produced by pass  4 Test12= 1.22D-14 2.22D-09 XBig12= 8.62D-08 3.04D-05.
     39 vectors produced by pass  5 Test12= 1.22D-14 2.22D-09 XBig12= 4.64D-10 2.37D-06.
     34 vectors produced by pass  6 Test12= 1.22D-14 2.22D-09 XBig12= 2.22D-12 2.29D-07.
      6 vectors produced by pass  7 Test12= 1.22D-14 2.22D-09 XBig12= 8.43D-15 1.27D-08.
 InvSVY:  IOpt=1 It=  1 EMax= 1.33D-15
 Solved reduced A of dimension   274 with    39 vectors.
 End of Minotr F.D. properties file   721 does not exist.
 End of Minotr F.D. properties file   722 does not exist.
 End of Minotr F.D. properties file   788 does not exist.

 **********************************************************************

            Population analysis using the SCF density.

 **********************************************************************

 Orbital symmetries:
       Occupied  (A) (A) (A) (A) (A) (A) (A) (A) (A) (A) (A) (A)
                 (A) (A) (A) (A) (A) (A) (A) (A) (A) (A) (A) (A)
                 (A) (A) (A) (A) (A) (A) (A) (A) (A) (A)
       Virtual   (A) (A) (A) (A) (A) (A) (A) (A) (A) (A) (A) (A)
                 (A) (A) (A) (A) (A) (A) (A) (A) (A) (A) (A) (A)
                 (A) (A) (A) (A) (A) (A) (A) (A) (A) (A) (A) (A)
                 (A) (A) (A) (A) (A) (A) (A) (A) (A) (A) (A) (A)
                 (A) (A) (A) (A) (A) (A) (A) (A) (A) (A) (A) (A)
                 (A) (A) (A) (A) (A) (A) (A) (A) (A) (A) (A) (A)
                 (A) (A) (A) (A) (A) (A) (A) (A) (A) (A) (A) (A)
                 (A) (A) (A) (A) (A) (A) (A) (A) (A) (A) (A) (A)
                 (A) (A) (A) (A) (A) (A) (A) (A) (A) (A) (A) (A)
                 (A) (A) (A) (A) (A) (A) (A) (A) (A) (A) (A) (A)
                 (A) (A) (A) (A) (A) (A) (A) (A) (A) (A) (A) (A)
                 (A) (A) (A) (A) (A) (A) (A) (A) (A) (A) (A) (A)
                 (A) (A) (A) (A) (A) (A) (A) (A) (A) (A) (A) (A)
                 (A) (A) (A) (A) (A) (A)
 The electronic state is 1-A.
 Alpha  occ. eigenvalues --  -19.75583 -19.62941 -19.62378 -14.89224 -14.84095
 Alpha  occ. eigenvalues --  -14.83441 -10.71208 -10.60948 -10.60727  -1.24513
 Alpha  occ. eigenvalues --   -1.23331  -1.16388  -1.08341  -1.01382  -0.94768
 Alpha  occ. eigenvalues --   -0.76304  -0.72300  -0.71493  -0.66213  -0.64464
 Alpha  occ. eigenvalues --   -0.58610  -0.58267  -0.55074  -0.52907  -0.50600
 Alpha  occ. eigenvalues --   -0.50220  -0.48258  -0.42199  -0.40797  -0.38059
 Alpha  occ. eigenvalues --   -0.37803  -0.35166  -0.34700  -0.33356
 Alpha virt. eigenvalues --   -0.02778   0.01430   0.03162   0.04065   0.04786
 Alpha virt. eigenvalues --    0.05249   0.06047   0.06256   0.07609   0.09026
 Alpha virt. eigenvalues --    0.09503   0.10103   0.10668   0.11176   0.12243
 Alpha virt. eigenvalues --    0.15033   0.15331   0.17186   0.18089   0.18667
 Alpha virt. eigenvalues --    0.19637   0.20641   0.21126   0.21680   0.22492
 Alpha virt. eigenvalues --    0.23850   0.24317   0.24852   0.25684   0.26498
 Alpha virt. eigenvalues --    0.27228   0.27629   0.28375   0.28976   0.29232
 Alpha virt. eigenvalues --    0.30875   0.31420   0.31992   0.32847   0.33321
 Alpha virt. eigenvalues --    0.35092   0.36035   0.37030   0.38870   0.39656
 Alpha virt. eigenvalues --    0.40402   0.41127   0.43096   0.46339   0.48993
 Alpha virt. eigenvalues --    0.51513   0.61934   0.71519   0.72519   0.75967
 Alpha virt. eigenvalues --    0.80477   0.83177   0.86128   0.87315   0.88325
 Alpha virt. eigenvalues --    0.92549   0.95128   0.95395   0.96738   0.97355
 Alpha virt. eigenvalues --    0.99988   1.01057   1.01905   1.04095   1.05801
 Alpha virt. eigenvalues --    1.08369   1.13024   1.13769   1.15665   1.17541
 Alpha virt. eigenvalues --    1.19485   1.20149   1.23508   1.25322   1.28164
 Alpha virt. eigenvalues --    1.30755   1.33098   1.33227   1.35442   1.37325
 Alpha virt. eigenvalues --    1.38666   1.39612   1.40294   1.41416   1.42015
 Alpha virt. eigenvalues --    1.43905   1.45880   1.46522   1.50935   1.52789
 Alpha virt. eigenvalues --    1.53467   1.57162   1.61563   1.65341   1.67776
 Alpha virt. eigenvalues --    1.79495   1.83459   1.84065   1.85421   1.87199
 Alpha virt. eigenvalues --    1.92094   1.94455   1.96026   2.00513   2.01208
 Alpha virt. eigenvalues --    2.02595   2.04107   2.05328   2.06895   2.13031
 Alpha virt. eigenvalues --    2.17592   2.19288   2.19849   2.22275   2.28150
 Alpha virt. eigenvalues --    2.30000   2.31610   2.32442   2.36127   2.44662
 Alpha virt. eigenvalues --    2.46807   2.47665   2.50803   2.51655   2.52866
 Alpha virt. eigenvalues --    2.55775   2.60898   2.64240   2.65634   2.69060
 Alpha virt. eigenvalues --    2.73453   2.76248   2.77855   2.81490   2.86483
 Alpha virt. eigenvalues --    2.89630   2.92649   3.01341   3.03544   3.05717
 Alpha virt. eigenvalues --    3.09823   3.21678   3.27172   3.28000   3.37149
 Alpha virt. eigenvalues --    3.53339   3.61275   3.67998   4.01389   4.21865
 Alpha virt. eigenvalues --    4.23170   4.26962   4.34027   4.40307   4.56713
 Alpha virt. eigenvalues --    4.62403   4.68548
          Condensed to atoms (all electrons):
               1          2          3          4          5          6
     1  O    7.952162   0.256786   0.278200  -0.025099   0.021851  -0.004884
     2  H    0.256786   0.219471  -0.012767   0.001149  -0.001965   0.001399
     3  H    0.278200  -0.012767   0.232191   0.001468   0.000464  -0.000473
     4  N   -0.025099   0.001149   0.001468   7.503310  -0.049341   0.070428
     5  N    0.021851  -0.001965   0.000464  -0.049341   7.292120   0.203464
     6  C   -0.004884   0.001399  -0.000473   0.070428   0.203464   5.368777
     7  C    0.003243   0.000280  -0.000072  -0.162334   0.116903   0.169178
     8  N    0.000645  -0.000023  -0.000050  -0.114306  -0.318726  -0.049075
     9  H   -0.000097  -0.000001  -0.000001   0.009338  -0.041514   0.394949
    10  H    0.000000   0.000000  -0.000000   0.007685  -0.000518  -0.014177
    11  H    0.188071  -0.001919  -0.006458   0.001867   0.023704   0.006249
    12  C   -0.012246  -0.000074   0.000847   0.027832   0.035277  -0.007085
    13  O   -0.032285   0.001767  -0.000671  -0.015665  -0.134286   0.008999
    14  O   -0.001705   0.000023   0.000016  -0.093101   0.019676  -0.003492
               7          8          9         10         11         12
     1  O    0.003243   0.000645  -0.000097   0.000000   0.188071  -0.012246
     2  H    0.000280  -0.000023  -0.000001   0.000000  -0.001919  -0.000074
     3  H   -0.000072  -0.000050  -0.000001  -0.000000  -0.006458   0.000847
     4  N   -0.162334  -0.114306   0.009338   0.007685   0.001867   0.027832
     5  N    0.116903  -0.318726  -0.041514  -0.000518   0.023704   0.035277
     6  C    0.169178  -0.049075   0.394949  -0.014177   0.006249  -0.007085
     7  C    5.385217   0.296225  -0.028356   0.383518  -0.004030  -0.011730
     8  N    0.296225   7.440646   0.003809  -0.045528   0.005932  -0.019701
     9  H   -0.028356   0.003809   0.417980   0.000383  -0.000042   0.000032
    10  H    0.383518  -0.045528   0.000383   0.426600  -0.000001   0.000495
    11  H   -0.004030   0.005932  -0.000042  -0.000001   0.191610  -0.000316
    12  C   -0.011730  -0.019701   0.000032   0.000495  -0.000316   4.457505
    13  O   -0.006584   0.007006  -0.000020   0.000055   0.055173   0.330049
    14  O   -0.001278  -0.031496   0.000033  -0.000029   0.001499   0.408451
              13         14
     1  O   -0.032285  -0.001705
     2  H    0.001767   0.000023
     3  H   -0.000671   0.000016
     4  N   -0.015665  -0.093101
     5  N   -0.134286   0.019676
     6  C    0.008999  -0.003492
     7  C   -0.006584  -0.001278
     8  N    0.007006  -0.031496
     9  H   -0.000020   0.000033
    10  H    0.000055  -0.000029
    11  H    0.055173   0.001499
    12  C    0.330049   0.408451
    13  O    8.658335  -0.112450
    14  O   -0.112450   8.497188
 Mulliken charges:
               1
     1  O   -0.624640
     2  H    0.535873
     3  H    0.507305
     4  N   -0.163230
     5  N   -0.167108
     6  C   -0.144257
     7  C   -0.140179
     8  N   -0.175357
     9  H    0.243506
    10  H    0.241516
    11  H    0.538662
    12  C    0.790667
    13  O   -0.759423
    14  O   -0.683335
 Sum of Mulliken charges =  -0.00000
 Mulliken charges with hydrogens summed into heavy atoms:
               1
     1  O    0.957199
     4  N   -0.163230
     5  N   -0.167108
     6  C    0.099250
     7  C    0.101337
     8  N   -0.175357
    12  C    0.790667
    13  O   -0.759423
    14  O   -0.683335
 APT charges:
               1
     1  O   -1.143300
     2  H    0.979374
     3  H    1.021762
     4  N   -0.458288
     5  N   -0.373538
     6  C   -0.457646
     7  C   -0.456241
     8  N   -0.174944
     9  H    0.776933
    10  H    0.861758
    11  H    0.108986
    12  C    0.335434
    13  O   -0.654474
    14  O   -0.365815
 Sum of APT charges =  -0.00000
 APT charges with hydrogens summed into heavy atoms:
               1
     1  O    0.966822
     4  N   -0.458288
     5  N   -0.373538
     6  C    0.319287
     7  C    0.405516
     8  N   -0.174944
    12  C    0.335434
    13  O   -0.654474
    14  O   -0.365815
 Electronic spatial extent (au):  <R**2>=           1222.6309
 Charge=             -0.0000 electrons
 Dipole moment (field-independent basis, Debye):
    X=              5.1180    Y=            -16.6724    Z=              2.9465  Tot=             17.6874
 Quadrupole moment (field-independent basis, Debye-Ang):
   XX=            -22.1841   YY=            -56.8040   ZZ=            -52.7811
   XY=            -11.1785   XZ=             10.7174   YZ=             -6.1535
 Traceless Quadrupole moment (field-independent basis, Debye-Ang):
   XX=             21.7390   YY=            -12.8809   ZZ=             -8.8581
   XY=            -11.1785   XZ=             10.7174   YZ=             -6.1535
 Octapole moment (field-independent basis, Debye-Ang**2):
  XXX=             94.7586  YYY=           -105.1296  ZZZ=              4.0383  XYY=             22.9026
  XXY=            -77.9134  XXZ=             27.5916  XZZ=             12.8032  YZZ=             -5.9027
  YYZ=              7.1344  XYZ=            -12.2312
 Hexadecapole moment (field-independent basis, Debye-Ang**3):
 XXXX=           -387.4803 YYYY=           -660.6979 ZZZZ=            -66.2997 XXXY=           -126.8491
 XXXZ=             88.6326 YYYX=            -67.5293 YYYZ=            -39.8733 ZZZX=             12.8342
 ZZZY=             -8.2094 XXYY=           -159.2499 XXZZ=           -143.2550 YYZZ=           -113.8877
 XXYZ=            -40.9891 YYXZ=             39.3214 ZZXY=            -21.8123
 N-N= 4.496656998624D+02 E-N=-2.086593568106D+03  KE= 5.020751033563D+02
  Exact polarizability:   0.000   0.000   0.000   0.000   0.000   0.000
 Approx polarizability: 103.228   3.981 109.480  -6.308   3.699  55.630
 D2PCM: PCM CHGder 2nd derivatives, FixD1E=F FixD2E=F DoIter=F DoCFld=F I1PDM=0
 Calling FoFJK, ICntrl=    100147 FMM=F ISym2X=0 I1Cent= 0 IOpClX= 0 NMat=1 NMatS=1 NMatT=0.
 ***** Axes restored to original set *****
 -------------------------------------------------------------------
 Center     Atomic                   Forces (Hartrees/Bohr)
 Number     Number              X              Y              Z
 -------------------------------------------------------------------
      1        8           0.022779102    0.014043910    0.091471256
      2        1          -0.037708503   -0.011344017   -0.065611306
      3        1           0.001952289    0.003195817   -0.015751209
      4        7           0.039111301    0.017154896   -0.027627300
      5        7           0.061622210    0.036246468   -0.008736206
      6        6          -0.021668873   -0.069230326   -0.063607280
      7        6          -0.024551693    0.005859500    0.015915900
      8        7          -0.012627571    0.022291217    0.051187766
      9        1          -0.002105823    0.020361833    0.024684009
     10        1          -0.005580936   -0.006144316    0.009483688
     11        1           0.008796448   -0.008935604   -0.011119097
     12        6          -0.083922715   -0.039969024    0.010963769
     13        8           0.044233943   -0.014196292   -0.034352237
     14        8           0.009670820    0.030665937    0.023098247
 -------------------------------------------------------------------
 Cartesian Forces:  Max     0.091471256 RMS     0.035045924
 FormGI is forming the generalized inverse of G from B-inverse, IUseBI=4.

 GradGradGradGradGradGradGradGradGradGradGradGradGradGradGradGradGradGrad
 Berny optimization.
 Internal  Forces:  Max     0.074167536 RMS     0.021020701
 Search for a saddle point.
 Step number   1 out of a maximum of  100
 All quantities printed in internal units (Hartrees-Bohrs-Radians)
 Swapping is turned off.
 Second derivative matrix not updated -- analytic derivatives used.
 ITU=  0
     Eigenvalues ---   -0.01956  -0.01022  -0.00058   0.00096   0.00497
     Eigenvalues ---    0.01100   0.01699   0.01761   0.03083   0.04190
     Eigenvalues ---    0.05259   0.06134   0.07914   0.08351   0.09494
     Eigenvalues ---    0.10377   0.11545   0.15953   0.18861   0.19581
     Eigenvalues ---    0.20853   0.23018   0.24430   0.29037   0.32483
     Eigenvalues ---    0.34899   0.37476   0.38345   0.42086   0.45534
     Eigenvalues ---    0.46482   0.47641   0.47873   0.57186   0.63865
     Eigenvalues ---    0.74346
 Eigenvectors required to have negative eigenvalues:
                          R12       A15       A19       D1        D2
   1                   -0.81737   0.48667   0.23695  -0.09989   0.09531
                          A2        A18       A6        R13       D21
   1                    0.08098  -0.04480  -0.03760   0.03571  -0.03413
 RFO step:  Lambda0=4.470223577D-04 Lambda=-7.02834307D-02.
 Linear search not attempted -- option 19 set.
 Maximum step size (   0.300) exceeded in Quadratic search.
    -- Step size scaled by   0.531
 Iteration  1 RMS(Cart)=  0.08933305 RMS(Int)=  0.02002022
 Iteration  2 RMS(Cart)=  0.02019055 RMS(Int)=  0.00640355
 Iteration  3 RMS(Cart)=  0.00075598 RMS(Int)=  0.00633345
 Iteration  4 RMS(Cart)=  0.00001519 RMS(Int)=  0.00633343
 Iteration  5 RMS(Cart)=  0.00000032 RMS(Int)=  0.00633343
 Variable       Old X    -DE/DX   Delta X   Delta X   Delta X     New X
                                 (Linear)    (Quad)   (Total)
    R1        2.04912  -0.07417   0.00000  -0.12353  -0.12353   1.92558
    R2        1.86129  -0.01051   0.00000  -0.00320  -0.00320   1.85809
    R3        1.87750   0.01224   0.00000   0.00819   0.00819   1.88569
    R4        2.50472  -0.00018   0.00000   0.00103   0.00093   2.50565
    R5        2.65134  -0.04297   0.00000  -0.07922  -0.07927   2.57207
    R6        2.60987   0.04312   0.00000   0.06257   0.06257   2.67243
    R7        2.58405  -0.05098   0.00000  -0.04409  -0.04411   2.53994
    R8        2.80942  -0.04800   0.00000  -0.08036  -0.08028   2.72915
    R9        1.97980   0.02548   0.00000   0.02477   0.02477   2.00456
   R10        2.52726  -0.02555   0.00000  -0.01015  -0.01007   2.51718
   R11        2.07435  -0.01173   0.00000  -0.01592  -0.01592   2.05843
   R12        3.41479  -0.00402   0.00000   0.01366   0.01366   3.42844
   R13        2.49775  -0.05582   0.00000  -0.07719  -0.07719   2.42056
   R14        2.39254  -0.03868   0.00000  -0.02879  -0.02879   2.36375
    A1        1.79432   0.01922   0.00000   0.01574  -0.01256   1.78175
    A2        2.26008  -0.01708   0.00000  -0.16019  -0.17875   2.08133
    A3        2.03932  -0.00479   0.00000  -0.08028  -0.09842   1.94089
    A4        2.05105  -0.01954   0.00000  -0.02070  -0.02084   2.03021
    A5        2.05652   0.02841   0.00000   0.02269   0.02274   2.07926
    A6        2.17453  -0.00879   0.00000  -0.00232  -0.00227   2.17227
    A7        1.82761   0.00527   0.00000  -0.00177  -0.00194   1.82567
    A8        1.84826   0.00746   0.00000   0.01688   0.01692   1.86518
    A9        2.33717  -0.02298   0.00000  -0.07399  -0.07402   2.26315
   A10        2.09767   0.01554   0.00000   0.05719   0.05716   2.15483
   A11        1.93071  -0.00424   0.00000  -0.01671  -0.01661   1.91410
   A12        2.24082   0.00161   0.00000   0.01005   0.00996   2.25078
   A13        2.10368   0.00295   0.00000   0.00861   0.00851   2.11219
   A14        1.76532   0.01123   0.00000   0.02326   0.02330   1.78862
   A15        2.42026   0.00144   0.00000   0.00975   0.00975   2.43001
   A16        1.98842   0.01698   0.00000  -0.00097  -0.00099   1.98743
   A17        2.09983  -0.01814   0.00000  -0.03375  -0.03377   2.06605
   A18        2.19334   0.00137   0.00000   0.03535   0.03534   2.22867
   A19        1.94022   0.01093   0.00000  -0.01156  -0.01156   1.92866
    D1       -2.57929   0.00913   0.00000   0.34459   0.34090  -2.23839
    D2        2.53489   0.00184   0.00000  -0.26023  -0.24129   2.29359
    D3        0.13246  -0.00177   0.00000   0.11463   0.09569   0.22815
    D4       -0.06168   0.00341   0.00000   0.01667   0.01653  -0.04515
    D5        3.12765   0.00180   0.00000   0.02405   0.02399  -3.13154
    D6        0.05393  -0.00313   0.00000  -0.01399  -0.01393   0.04001
    D7       -3.13895  -0.00031   0.00000  -0.02122  -0.02112   3.12312
    D8        0.15347  -0.00177   0.00000  -0.01784  -0.01782   0.13565
    D9       -3.04560   0.00196   0.00000  -0.00515  -0.00532  -3.05092
   D10       -2.93669  -0.00329   0.00000  -0.00941  -0.00924  -2.94593
   D11        0.14742   0.00043   0.00000   0.00328   0.00326   0.15068
   D12        0.04026  -0.00177   0.00000  -0.01072  -0.01077   0.02949
   D13       -3.11582   0.00002   0.00000  -0.00318  -0.00355  -3.11937
   D14       -0.01030   0.00034   0.00000   0.00300   0.00307  -0.00724
   D15        2.99451   0.00325   0.00000   0.02000   0.02020   3.01472
   D16       -3.13982  -0.00077   0.00000  -0.00203  -0.00230   3.14106
   D17       -0.13500   0.00214   0.00000   0.01497   0.01484  -0.12017
   D18       -0.02260   0.00069   0.00000   0.00474   0.00490  -0.01770
   D19       -3.03979  -0.00190   0.00000  -0.01106  -0.01099  -3.05078
   D20       -2.56525  -0.00182   0.00000  -0.00004  -0.00004  -2.56529
   D21       -0.45113   0.00080   0.00000  -0.08208  -0.08191  -0.53305
   D22        2.75154  -0.00245   0.00000  -0.09281  -0.09298   2.65856
         Item               Value     Threshold  Converged?
 Maximum Force            0.074168     0.000450     NO 
 RMS     Force            0.021021     0.000300     NO 
 Maximum Displacement     0.494099     0.001800     NO 
 RMS     Displacement     0.104813     0.001200     NO 
 Predicted change in Energy=-3.243394D-02
 GradGradGradGradGradGradGradGradGradGradGradGradGradGradGradGradGradGrad

                          Input orientation:                          
 ---------------------------------------------------------------------
 Center     Atomic      Atomic             Coordinates (Angstroms)
 Number     Number       Type             X           Y           Z
 ---------------------------------------------------------------------
      1          8           0        8.712995   19.612150    7.844318
      2          1           0        9.510795   19.540934    8.474201
      3          1           0        8.100474   18.935786    8.210585
      4          7           0       10.107941   19.130669    4.569778
      5          7           0       10.174291   20.123161    5.446504
      6          6           0       11.281712   20.803826    5.104646
      7          6           0       11.829957   20.153195    3.937674
      8          7           0       11.069610   19.110742    3.606795
      9          1           0       11.716454   21.660018    5.555382
     10          1           0       12.657972   20.467758    3.303672
     11          1           0        8.851756   19.480823    6.864913
     12          6           0        9.031153   18.216947    4.644407
     13          8           0        8.125795   18.550409    5.486935
     14          8           0        9.034094   17.230581    3.875200
 ---------------------------------------------------------------------
                    Distance matrix (angstroms):
                    1          2          3          4          5
     1  O    0.000000
     2  H    1.018974   0.000000
     3  H    0.983261   1.557145   0.000000
     4  N    3.591701   3.971073   4.162136   0.000000
     5  N    2.854125   3.153754   3.653864   1.325930   0.000000
     6  C    3.940076   4.010604   4.822520   2.112646   1.344080
     7  C    5.026933   5.131614   5.800767   2.100108   2.240246
     8  N    4.874592   5.128997   5.480990   1.361080   2.282787
     9  H    4.295784   4.227879   5.248510   3.155366   2.179920
    10  H    6.075555   6.123569   6.869899   3.145391   3.298355
    11  H    0.997866   1.740044   1.634724   2.639745   2.042934
    12  C    3.505317   4.080480   3.755065   1.414189   2.363002
    13  O    2.651293   3.438477   2.750896   2.259819   2.582929
    14  O    4.639922   5.168732   4.751308   2.290398   3.483686
                    6          7          8          9         10
     6  C    0.000000
     7  C    1.444201   0.000000
     8  N    2.270480   1.332036   0.000000
     9  H    1.060768   2.213680   3.273257   0.000000
    10  H    2.291406   1.089273   2.110988   2.716272   0.000000
    11  H    3.279262   4.229716   3.958682   3.830177   5.305068
    12  C    3.459592   3.475893   2.455771   4.460432   4.474096
    13  O    3.896645   4.323187   3.537646   4.750493   5.383631
    14  O    4.396750   4.045050   2.783949   5.444078   4.892694
                   11         12         13         14
    11  H    0.000000
    12  C    2.561291   0.000000
    13  O    1.814253   1.280907   0.000000
    14  O    3.746361   1.250842   2.272584   0.000000
 Stoichiometry    C3H5N3O3
 Framework group  C1[X(C3H5N3O3)]
 Deg. of freedom    36
 Full point group                 C1      NOp   1
 Largest Abelian subgroup         C1      NOp   1
 Largest concise Abelian subgroup C1      NOp   1
                         Standard orientation:                         
 ---------------------------------------------------------------------
 Center     Atomic      Atomic             Coordinates (Angstroms)
 Number     Number       Type             X           Y           Z
 ---------------------------------------------------------------------
      1          8           0        2.572438   -1.506011    0.213303
      2          1           0        2.457156   -2.107171    1.027935
      3          1           0        3.397415   -1.018039    0.432615
      4          7           0       -0.526053    0.295517   -0.019433
      5          7           0       -0.192160   -0.967185   -0.247889
      6          6           0       -1.348185   -1.646095   -0.151781
      7          6           0       -2.384182   -0.674560    0.110037
      8          7           0       -1.850005    0.543920    0.175468
      9          1           0       -1.532330   -2.686484   -0.246175
     10          1           0       -3.463531   -0.816926    0.145423
     11          1           0        1.838014   -0.878837   -0.037717
     12          6           0        0.477488    1.291116   -0.059668
     13          8           0        1.612014    0.867003   -0.476443
     14          8           0        0.166807    2.461373    0.254310
 ---------------------------------------------------------------------
 Rotational constants (GHZ):           2.0731093           1.4994709           0.8960789
 Standard basis: 6-31+G(d,p) (6D, 7F)
 There are   196 symmetry adapted cartesian basis functions of A   symmetry.
 There are   196 symmetry adapted basis functions of A   symmetry.
   196 basis functions,   323 primitive gaussians,   196 cartesian basis functions
    34 alpha electrons       34 beta electrons
       nuclear repulsion energy       452.8317986036 Hartrees.
 NAtoms=   14 NActive=   14 NUniq=   14 SFac= 1.00D+00 NAtFMM=   60 NAOKFM=F Big=F
 Integral buffers will be    131072 words long.
 Raffenetti 2 integral format.
 Two-electron integral symmetry is turned on.
 ------------------------------------------------------------------------------
 Polarizable Continuum Model (PCM)
 =================================
 Model                : PCM.
 Atomic radii         : SMD-Coulomb.
 Polarization charges : Total charges.
 Charge compensation  : None.
 Solution method      : Matrix inversion.
 Cavity type          : VdW (van der Waals Surface) (Alpha=1.000).
 Cavity algorithm     : GePol (No added spheres)
                        Default sphere list used, NSphG=   14.
                        Lebedev-Laikov grids with approx.  5.0 points / Ang**2.
                        Smoothing algorithm: York/Karplus (Gamma=1.0000).
                        Polarization charges: spherical gaussians, with
                                              point-specific exponents (IZeta= 3).
                        Self-potential: point-specific (ISelfS= 7).
                        Self-field    : sphere-specific E.n sum rule (ISelfD= 2).
 1st derivatives      : Analytical E(r).r(x)/FMM algorithm (CHGder, D1EAlg=3).
                        Cavity 1st derivative terms included.
 Solvent              : Water, Eps=  78.355300 Eps(inf)=   1.777849
 ------------------------------------------------------------------------------
 Spheres list:
 ISph  on   Nord     Re0    Alpha      Xe            Ye            Ze
    1   O      1    1.5200  1.000      2.572438     -1.506011      0.213303
    2   H      2    1.2000  1.000      2.457156     -2.107171      1.027935
    3   H      3    1.2000  1.000      3.397415     -1.018039      0.432615
    4   N      4    1.8900  1.000     -0.526053      0.295517     -0.019433
    5   N      5    1.8900  1.000     -0.192160     -0.967185     -0.247889
    6   C      6    1.8500  1.000     -1.348185     -1.646095     -0.151781
    7   C      7    1.8500  1.000     -2.384182     -0.674560      0.110037
    8   N      8    1.8900  1.000     -1.850005      0.543920      0.175468
    9   H      9    1.2000  1.000     -1.532330     -2.686484     -0.246175
   10   H     10    1.2000  1.000     -3.463531     -0.816926      0.145423
   11   H     11    1.2000  1.000      1.838014     -0.878837     -0.037717
   12   C     12    1.8500  1.000      0.477488      1.291116     -0.059668
   13   O     13    1.5200  1.000      1.612014      0.867003     -0.476443
   14   O     14    1.5200  1.000      0.166807      2.461373      0.254310
 ------------------------------------------------------------------------------
 ------------------------------------------------------------------------------
 Atomic radii for non-electrostatic terms: SMD-CDS.
 ------------------------------------------------------------------------------
 Nuclear repulsion after PCM non-electrostatic terms =      452.8399895381 Hartrees.
 One-electron integrals computed using PRISM.
 NBasis=   196 RedAO= T EigKep=  2.57D-05  NBF=   196
 NBsUse=   196 1.00D-06 EigRej= -1.00D+00 NBFU=   196
 Initial guess from the checkpoint file:  "/scratch/gongke2021/TS/Gau-20124.chk"
 B after Tr=     0.000000   -0.000000   -0.000000
         Rot=    0.999598    0.002560   -0.001475    0.028202 Ang=   3.25 deg.
 ExpMin= 4.38D-02 ExpMax= 5.48D+03 ExpMxC= 8.25D+02 IAcc=2 IRadAn=         4 AccDes= 0.00D+00
 Harris functional with IExCor= 1009 and IRadAn=       4 diagonalized for initial guess.
 HarFok:  IExCor= 1009 AccDes= 0.00D+00 IRadAn=         4 IDoV= 1 UseB2=F ITyADJ=14
 ICtDFT=  3500011 ScaDFX=  1.000000  1.000000  1.000000  1.000000
 FoFCou: FMM=F IPFlag=           0 FMFlag=      100000 FMFlg1=           0
         NFxFlg=           0 DoJE=T BraDBF=F KetDBF=T FulRan=T
         wScrn=  0.000000 ICntrl=       500 IOpCl=  0 I1Cent=   200000004 NGrid=           0
         NMat0=    1 NMatS0=      1 NMatT0=    0 NMatD0=    1 NMtDS0=    0 NMtDT0=    0
 Petite list used in FoFCou.
 Requested convergence on RMS density matrix=1.00D-08 within 128 cycles.
 Requested convergence on MAX density matrix=1.00D-06.
 Requested convergence on             energy=1.00D-06.
 No special actions if energy rises.
 Inv3:  Mode=1 IEnd=     4248300.
 Iteration    1 A*A^-1 deviation from unit magnitude is 3.22D-15 for      5.
 Iteration    1 A*A^-1 deviation from orthogonality  is 1.95D-15 for    635    283.
 Iteration    1 A^-1*A deviation from unit magnitude is 3.00D-15 for      5.
 Iteration    1 A^-1*A deviation from orthogonality  is 3.19D-15 for    704    635.
 Error on total polarization charges =  0.04196
 SCF Done:  E(RM062X) =  -507.061635318     A.U. after   13 cycles
            NFock= 13  Conv=0.57D-08     -V/T= 2.0091
 SMD-CDS (non-electrostatic) energy       (kcal/mol) =       5.14
 (included in total energy above)
 D1PCM: PCM CHGder 1st derivatives, ID1Alg=3 FixD1E=F DoIter=F DoCFld=F I1PDM=0.
 Calling FoFJK, ICntrl=      2127 FMM=F ISym2X=0 I1Cent= 0 IOpClX= 0 NMat=1 NMatS=1 NMatT=0.
 ***** Axes restored to original set *****
 -------------------------------------------------------------------
 Center     Atomic                   Forces (Hartrees/Bohr)
 Number     Number              X              Y              Z
 -------------------------------------------------------------------
      1        8           0.012352990   -0.005607003    0.047772902
      2        1          -0.018041074    0.006879849   -0.032290249
      3        1          -0.002488263    0.004139391   -0.009782280
      4        7           0.023483024    0.010428002   -0.015672003
      5        7           0.032261187    0.018201936   -0.001785639
      6        6          -0.006544434   -0.038856851   -0.035072757
      7        6          -0.013743973    0.005342313    0.005496634
      8        7          -0.007203489    0.012846230    0.026602397
      9        1          -0.004111186    0.012018305    0.014819740
     10        1          -0.002299257   -0.003931954    0.006193335
     11        1           0.004477228   -0.006528278   -0.006747449
     12        6          -0.048163392   -0.022601101    0.002655664
     13        8           0.024123209   -0.008152073   -0.012734948
     14        8           0.005897429    0.015821232    0.010544654
 -------------------------------------------------------------------
 Cartesian Forces:  Max     0.048163392 RMS     0.018790566

 GradGradGradGradGradGradGradGradGradGradGradGradGradGradGradGradGradGrad
 Berny optimization.
 FormGI is forming the generalized inverse of G from B-inverse, IUseBI=4.
 Internal  Forces:  Max     0.034549720 RMS     0.011144937
 Search for a saddle point.
 Step number   2 out of a maximum of  100
 All quantities printed in internal units (Hartrees-Bohrs-Radians)
 Swapping is turned off.
 Update second derivatives using D2CorX and points    1    2
 ITU=  0  0
     Eigenvalues ---   -0.01930  -0.00380   0.00048   0.00131   0.00497
     Eigenvalues ---    0.01101   0.01731   0.01776   0.03074   0.04210
     Eigenvalues ---    0.05270   0.06126   0.07900   0.08178   0.09501
     Eigenvalues ---    0.10373   0.11432   0.16107   0.18871   0.19585
     Eigenvalues ---    0.20857   0.24224   0.24445   0.29052   0.32484
     Eigenvalues ---    0.34899   0.37725   0.38483   0.42085   0.45541
     Eigenvalues ---    0.46477   0.47667   0.47870   0.57184   0.63915
     Eigenvalues ---    0.74531
 Eigenvectors required to have negative eigenvalues:
                          R12       A15       A19       D21       A2
   1                   -0.82284   0.49692   0.22762  -0.06390   0.05798
                          D22       A18       D1        A3        A6
   1                   -0.04809  -0.04402  -0.04116  -0.03854  -0.03744
 RFO step:  Lambda0=6.355056496D-04 Lambda=-2.64636604D-02.
 Linear search not attempted -- option 19 set.
 Maximum step size (   0.300) exceeded in Quadratic search.
    -- Step size scaled by   0.711
 Iteration  1 RMS(Cart)=  0.11971786 RMS(Int)=  0.03335624
 Iteration  2 RMS(Cart)=  0.05681246 RMS(Int)=  0.00530274
 Iteration  3 RMS(Cart)=  0.00539978 RMS(Int)=  0.00032692
 Iteration  4 RMS(Cart)=  0.00004700 RMS(Int)=  0.00032446
 Iteration  5 RMS(Cart)=  0.00000003 RMS(Int)=  0.00032446
 Variable       Old X    -DE/DX   Delta X   Delta X   Delta X     New X
                                 (Linear)    (Quad)   (Total)
    R1        1.92558  -0.03455   0.00000  -0.11110  -0.11110   1.81448
    R2        1.85809  -0.00495   0.00000  -0.01119  -0.01119   1.84691
    R3        1.88569   0.00745   0.00000   0.00331   0.00331   1.88901
    R4        2.50565   0.00076   0.00000  -0.00059  -0.00068   2.50496
    R5        2.57207  -0.02235   0.00000  -0.07532  -0.07535   2.49672
    R6        2.67243   0.02695   0.00000   0.05890   0.05890   2.73133
    R7        2.53994  -0.02516   0.00000  -0.02639  -0.02642   2.51352
    R8        2.72915  -0.02477   0.00000  -0.07364  -0.07357   2.65557
    R9        2.00456   0.01431   0.00000   0.01979   0.01979   2.02435
   R10        2.51718  -0.01277   0.00000  -0.00225  -0.00217   2.51501
   R11        2.05843  -0.00649   0.00000  -0.01393  -0.01393   2.04450
   R12        3.42844  -0.00281   0.00000   0.07960   0.07960   3.50804
   R13        2.42056  -0.02591   0.00000  -0.06866  -0.06866   2.35190
   R14        2.36375  -0.01896   0.00000  -0.01987  -0.01987   2.34388
    A1        1.78175   0.01447   0.00000   0.10417   0.10449   1.88625
    A2        2.08133  -0.01157   0.00000  -0.05568  -0.05618   2.02515
    A3        1.94089  -0.00370   0.00000  -0.01064  -0.01064   1.93025
    A4        2.03021  -0.01040   0.00000  -0.01510  -0.01544   2.01477
    A5        2.07926   0.01576   0.00000   0.01613   0.01587   2.09513
    A6        2.17227  -0.00526   0.00000   0.00120   0.00094   2.17320
    A7        1.82567   0.00194   0.00000  -0.00531  -0.00540   1.82026
    A8        1.86518   0.00471   0.00000   0.01567   0.01572   1.88090
    A9        2.26315  -0.01562   0.00000  -0.08993  -0.09001   2.17315
   A10        2.15483   0.01092   0.00000   0.07436   0.07427   2.22910
   A11        1.91410  -0.00303   0.00000  -0.01702  -0.01707   1.89703
   A12        2.25078   0.00150   0.00000   0.01415   0.01381   2.26459
   A13        2.11219   0.00181   0.00000   0.00711   0.00677   2.11896
   A14        1.78862   0.00688   0.00000   0.02279   0.02295   1.81157
   A15        2.43001   0.00209   0.00000  -0.10212  -0.10212   2.32789
   A16        1.98743   0.00952   0.00000  -0.00360  -0.00378   1.98365
   A17        2.06605  -0.01159   0.00000  -0.03319  -0.03337   2.03268
   A18        2.22867   0.00222   0.00000   0.03830   0.03812   2.26679
   A19        1.92866   0.00885   0.00000   0.06871   0.06871   1.99737
    D1       -2.23839   0.00665   0.00000   0.00496   0.00417  -2.23422
    D2        2.29359   0.00453   0.00000   0.38285   0.38218   2.67577
    D3        0.22815  -0.00351   0.00000   0.29092   0.29159   0.51974
    D4       -0.04515   0.00245   0.00000   0.02347   0.02304  -0.02211
    D5       -3.13154   0.00073   0.00000  -0.01916  -0.01936   3.13228
    D6        0.04001  -0.00222   0.00000  -0.02029  -0.02001   0.02000
    D7        3.12312   0.00033   0.00000   0.02535   0.02503  -3.13504
    D8        0.13565  -0.00088   0.00000  -0.01409  -0.01371   0.12194
    D9       -3.05092   0.00246   0.00000   0.02003   0.01979  -3.03114
   D10       -2.94593  -0.00265   0.00000  -0.05994  -0.05970  -3.00563
   D11        0.15068   0.00069   0.00000  -0.02582  -0.02620   0.12448
   D12        0.02949  -0.00140   0.00000  -0.01529  -0.01519   0.01430
   D13       -3.11937   0.00002   0.00000   0.00180   0.00073  -3.11864
   D14       -0.00724   0.00025   0.00000   0.00387   0.00400  -0.00324
   D15        3.01472   0.00301   0.00000   0.04520   0.04562   3.06033
   D16        3.14106  -0.00092   0.00000  -0.01106  -0.01172   3.12935
   D17       -0.12017   0.00184   0.00000   0.03026   0.02990  -0.09027
   D18       -0.01770   0.00076   0.00000   0.00831   0.00835  -0.00935
   D19       -3.05078  -0.00175   0.00000  -0.02992  -0.02989  -3.08067
   D20       -2.56529  -0.00037   0.00000  -0.03260  -0.03260  -2.59789
   D21       -0.53305   0.00306   0.00000   0.18312   0.18365  -0.34940
   D22        2.65856  -0.00025   0.00000   0.14756   0.14703   2.80559
         Item               Value     Threshold  Converged?
 Maximum Force            0.034550     0.000450     NO 
 RMS     Force            0.011145     0.000300     NO 
 Maximum Displacement     0.775315     0.001800     NO 
 RMS     Displacement     0.163443     0.001200     NO 
 Predicted change in Energy=-1.502321D-02
 GradGradGradGradGradGradGradGradGradGradGradGradGradGradGradGradGradGrad

                          Input orientation:                          
 ---------------------------------------------------------------------
 Center     Atomic      Atomic             Coordinates (Angstroms)
 Number     Number       Type             X           Y           Z
 ---------------------------------------------------------------------
      1          8           0        8.641207   19.609391    7.846689
      2          1           0        9.353920   19.951214    8.391802
      3          1           0        8.371857   18.742345    8.208457
      4          7           0       10.093771   19.133751    4.550377
      5          7           0       10.231771   20.059253    5.489277
      6          6           0       11.326646   20.726083    5.134662
      7          6           0       11.805812   20.159948    3.941064
      8          7           0       11.001565   19.159083    3.590763
      9          1           0       11.747303   21.540699    5.688736
     10          1           0       12.629934   20.467830    3.311351
     11          1           0        8.832798   19.537967    6.868205
     12          6           0        8.995361   18.196474    4.614119
     13          8           0        8.176129   18.447888    5.516674
     14          8           0        8.996927   17.285074    3.772835
 ---------------------------------------------------------------------
                    Distance matrix (angstroms):
                    1          2          3          4          5
     1  O    0.000000
     2  H    0.960182   0.000000
     3  H    0.977340   1.568256   0.000000
     4  N    3.633434   3.996519   4.061986   0.000000
     5  N    2.879177   3.034295   3.547882   1.325568   0.000000
     6  C    3.976641   3.886005   4.702575   2.096876   1.330099
     7  C    5.056850   5.085706   5.657940   2.086965   2.210137
     8  N    4.887429   5.137331   5.330302   1.321208   2.237687
     9  H    4.246709   3.944783   5.057016   3.134235   2.128685
    10  H    6.100504   6.067136   6.714921   3.122031   3.265193
    11  H    0.999620   1.662435   1.625348   2.669414   2.032316
    12  C    3.545599   4.180737   3.688631   1.445357   2.400950
    13  O    2.644684   3.451599   2.714905   2.254216   2.612071
    14  O    4.703750   5.345147   4.710530   2.285880   3.488135
                    6          7          8          9         10
     6  C    0.000000
     7  C    1.405270   0.000000
     8  N    2.223688   1.330885   0.000000
     9  H    1.071238   2.228061   3.260324   0.000000
    10  H    2.256040   1.081900   2.107719   2.753552   0.000000
    11  H    3.261299   4.218272   3.948256   3.727790   5.285272
    12  C    3.479192   3.493832   2.449229   4.462267   4.479552
    13  O    3.906643   4.311414   3.492566   4.727406   5.364699
    14  O    4.372951   4.022815   2.750206   5.417157   4.851974
                   11         12         13         14
    11  H    0.000000
    12  C    2.628105   0.000000
    13  O    1.856373   1.244571   0.000000
    14  O    3.831942   1.240326   2.250959   0.000000
 Stoichiometry    C3H5N3O3
 Framework group  C1[X(C3H5N3O3)]
 Deg. of freedom    36
 Full point group                 C1      NOp   1
 Largest Abelian subgroup         C1      NOp   1
 Largest concise Abelian subgroup C1      NOp   1
                         Standard orientation:                         
 ---------------------------------------------------------------------
 Center     Atomic      Atomic             Coordinates (Angstroms)
 Number     Number       Type             X           Y           Z
 ---------------------------------------------------------------------
      1          8           0        2.651809   -1.443620    0.132106
      2          1           0        2.467773   -2.278162    0.569848
      3          1           0        3.265384   -0.933869    0.696795
      4          7           0       -0.541290    0.282476   -0.030851
      5          7           0       -0.173913   -0.983228   -0.172839
      6          6           0       -1.312223   -1.666565   -0.092432
      7          6           0       -2.355898   -0.742049    0.083056
      8          7           0       -1.839307    0.484173    0.110784
      9          1           0       -1.384491   -2.733978   -0.146817
     10          1           0       -3.424821   -0.904532    0.121934
     11          1           0        1.855323   -0.890420   -0.110419
     12          6           0        0.452791    1.331439   -0.054003
     13          8           0        1.593687    0.931752   -0.349912
     14          8           0        0.053801    2.476875    0.205215
 ---------------------------------------------------------------------
 Rotational constants (GHZ):           2.0735376           1.5151870           0.8894743
 Standard basis: 6-31+G(d,p) (6D, 7F)
 There are   196 symmetry adapted cartesian basis functions of A   symmetry.
 There are   196 symmetry adapted basis functions of A   symmetry.
   196 basis functions,   323 primitive gaussians,   196 cartesian basis functions
    34 alpha electrons       34 beta electrons
       nuclear repulsion energy       455.3047665923 Hartrees.
 NAtoms=   14 NActive=   14 NUniq=   14 SFac= 1.00D+00 NAtFMM=   60 NAOKFM=F Big=F
 Integral buffers will be    131072 words long.
 Raffenetti 2 integral format.
 Two-electron integral symmetry is turned on.
 ------------------------------------------------------------------------------
 Polarizable Continuum Model (PCM)
 =================================
 Model                : PCM.
 Atomic radii         : SMD-Coulomb.
 Polarization charges : Total charges.
 Charge compensation  : None.
 Solution method      : Matrix inversion.
 Cavity type          : VdW (van der Waals Surface) (Alpha=1.000).
 Cavity algorithm     : GePol (No added spheres)
                        Default sphere list used, NSphG=   14.
                        Lebedev-Laikov grids with approx.  5.0 points / Ang**2.
                        Smoothing algorithm: York/Karplus (Gamma=1.0000).
                        Polarization charges: spherical gaussians, with
                                              point-specific exponents (IZeta= 3).
                        Self-potential: point-specific (ISelfS= 7).
                        Self-field    : sphere-specific E.n sum rule (ISelfD= 2).
 1st derivatives      : Analytical E(r).r(x)/FMM algorithm (CHGder, D1EAlg=3).
                        Cavity 1st derivative terms included.
 Solvent              : Water, Eps=  78.355300 Eps(inf)=   1.777849
 ------------------------------------------------------------------------------
 Spheres list:
 ISph  on   Nord     Re0    Alpha      Xe            Ye            Ze
    1   O      1    1.5200  1.000      2.651809     -1.443620      0.132106
    2   H      2    1.2000  1.000      2.467773     -2.278162      0.569848
    3   H      3    1.2000  1.000      3.265384     -0.933869      0.696795
    4   N      4    1.8900  1.000     -0.541290      0.282476     -0.030851
    5   N      5    1.8900  1.000     -0.173913     -0.983228     -0.172839
    6   C      6    1.8500  1.000     -1.312223     -1.666565     -0.092432
    7   C      7    1.8500  1.000     -2.355898     -0.742049      0.083056
    8   N      8    1.8900  1.000     -1.839307      0.484173      0.110784
    9   H      9    1.2000  1.000     -1.384491     -2.733978     -0.146817
   10   H     10    1.2000  1.000     -3.424821     -0.904532      0.121934
   11   H     11    1.2000  1.000      1.855323     -0.890420     -0.110419
   12   C     12    1.8500  1.000      0.452791      1.331439     -0.054003
   13   O     13    1.5200  1.000      1.593687      0.931752     -0.349912
   14   O     14    1.5200  1.000      0.053801      2.476875      0.205215
 ------------------------------------------------------------------------------
 ------------------------------------------------------------------------------
 Atomic radii for non-electrostatic terms: SMD-CDS.
 ------------------------------------------------------------------------------
 Nuclear repulsion after PCM non-electrostatic terms =      455.3129542568 Hartrees.
 One-electron integrals computed using PRISM.
 NBasis=   196 RedAO= T EigKep=  2.23D-05  NBF=   196
 NBsUse=   196 1.00D-06 EigRej= -1.00D+00 NBFU=   196
 Initial guess from the checkpoint file:  "/scratch/gongke2021/TS/Gau-20124.chk"
 B after Tr=    -0.000000   -0.000000    0.000000
         Rot=    0.999894   -0.002020    0.000782   -0.014412 Ang=  -1.67 deg.
 ExpMin= 4.38D-02 ExpMax= 5.48D+03 ExpMxC= 8.25D+02 IAcc=2 IRadAn=         4 AccDes= 0.00D+00
 Harris functional with IExCor= 1009 and IRadAn=       4 diagonalized for initial guess.
 HarFok:  IExCor= 1009 AccDes= 0.00D+00 IRadAn=         4 IDoV= 1 UseB2=F ITyADJ=14
 ICtDFT=  3500011 ScaDFX=  1.000000  1.000000  1.000000  1.000000
 FoFCou: FMM=F IPFlag=           0 FMFlag=      100000 FMFlg1=           0
         NFxFlg=           0 DoJE=T BraDBF=F KetDBF=T FulRan=T
         wScrn=  0.000000 ICntrl=       500 IOpCl=  0 I1Cent=   200000004 NGrid=           0
         NMat0=    1 NMatS0=      1 NMatT0=    0 NMatD0=    1 NMtDS0=    0 NMtDT0=    0
 Petite list used in FoFCou.
 Requested convergence on RMS density matrix=1.00D-08 within 128 cycles.
 Requested convergence on MAX density matrix=1.00D-06.
 Requested convergence on             energy=1.00D-06.
 No special actions if energy rises.
 Inv3:  Mode=1 IEnd=     4148928.
 Iteration    1 A*A^-1 deviation from unit magnitude is 2.66D-15 for    544.
 Iteration    1 A*A^-1 deviation from orthogonality  is 1.66D-15 for    556     37.
 Iteration    1 A^-1*A deviation from unit magnitude is 3.33D-15 for    544.
 Iteration    1 A^-1*A deviation from orthogonality  is 1.92D-15 for    575     27.
 Error on total polarization charges =  0.04192
 SCF Done:  E(RM062X) =  -507.072516588     A.U. after   14 cycles
            NFock= 14  Conv=0.57D-08     -V/T= 2.0083
 SMD-CDS (non-electrostatic) energy       (kcal/mol) =       5.14
 (included in total energy above)
 D1PCM: PCM CHGder 1st derivatives, ID1Alg=3 FixD1E=F DoIter=F DoCFld=F I1PDM=0.
 Calling FoFJK, ICntrl=      2127 FMM=F ISym2X=0 I1Cent= 0 IOpClX= 0 NMat=1 NMatS=1 NMatT=0.
 ***** Axes restored to original set *****
 -------------------------------------------------------------------
 Center     Atomic                   Forces (Hartrees/Bohr)
 Number     Number              X              Y              Z
 -------------------------------------------------------------------
      1        8          -0.019400803   -0.006786817    0.002658479
      2        1           0.014610182    0.007368507    0.003241786
      3        1          -0.000787346    0.000666797   -0.003038142
      4        7           0.006189941    0.007852587    0.000149551
      5        7           0.008481784    0.005160642    0.002583422
      6        6          -0.002272806   -0.007326791   -0.006637815
      7        6          -0.003006645   -0.000307870   -0.006127371
      8        7           0.005524802    0.002435475    0.001279160
      9        1          -0.001736247    0.004784199    0.006157914
     10        1           0.000310239   -0.002172330    0.002378964
     11        1           0.004279782   -0.002373603   -0.003206141
     12        6          -0.012079830   -0.014393079   -0.008074104
     13        8          -0.002360074    0.001815911    0.007523897
     14        8           0.002247023    0.003276370    0.001110399
 -------------------------------------------------------------------
 Cartesian Forces:  Max     0.019400803 RMS     0.006399958

 GradGradGradGradGradGradGradGradGradGradGradGradGradGradGradGradGradGrad
 Berny optimization.
 FormGI is forming the generalized inverse of G from B-inverse, IUseBI=4.
 Internal  Forces:  Max     0.017024596 RMS     0.004129812
 Search for a saddle point.
 Step number   3 out of a maximum of  100
 All quantities printed in internal units (Hartrees-Bohrs-Radians)
 Swapping is turned off.
 Update second derivatives using D2CorX and points    2    3
 ITU=  0  0  0
     Eigenvalues ---   -0.02019  -0.01117   0.00081   0.00278   0.00497
     Eigenvalues ---    0.01103   0.01726   0.01933   0.03052   0.04216
     Eigenvalues ---    0.05261   0.06091   0.07905   0.08240   0.09507
     Eigenvalues ---    0.10350   0.11504   0.16392   0.18930   0.19590
     Eigenvalues ---    0.20844   0.24393   0.26695   0.29169   0.32534
     Eigenvalues ---    0.34897   0.38067   0.39349   0.42088   0.45560
     Eigenvalues ---    0.46470   0.47684   0.47874   0.57198   0.64159
     Eigenvalues ---    0.74709
 Eigenvectors required to have negative eigenvalues:
                          R12       A15       A19       D3        D2
   1                   -0.79392   0.49414   0.21361  -0.15669  -0.10167
                          D1        D21       A2        D22       D20
   1                   -0.09466  -0.09121   0.08064  -0.07400   0.05349
 RFO step:  Lambda0=3.358573273D-05 Lambda=-1.29114467D-02.
 Linear search not attempted -- option 19 set.
 Maximum step size (   0.300) exceeded in Quadratic search.
    -- Step size scaled by   0.925
 Iteration  1 RMS(Cart)=  0.10035037 RMS(Int)=  0.04186318
 Iteration  2 RMS(Cart)=  0.05093436 RMS(Int)=  0.00806732
 Iteration  3 RMS(Cart)=  0.00924745 RMS(Int)=  0.00382561
 Iteration  4 RMS(Cart)=  0.00017254 RMS(Int)=  0.00382224
 Iteration  5 RMS(Cart)=  0.00000161 RMS(Int)=  0.00382224
 Iteration  6 RMS(Cart)=  0.00000002 RMS(Int)=  0.00382224
 Variable       Old X    -DE/DX   Delta X   Delta X   Delta X     New X
                                 (Linear)    (Quad)   (Total)
    R1        1.81448   0.01531   0.00000   0.11987   0.11987   1.93435
    R2        1.84691  -0.00149   0.00000  -0.00436  -0.00436   1.84254
    R3        1.88901   0.00396   0.00000   0.01431   0.01431   1.90331
    R4        2.50496   0.00257   0.00000   0.00541   0.00528   2.51024
    R5        2.49672   0.00314   0.00000   0.03366   0.03360   2.53032
    R6        2.73133   0.01702   0.00000   0.03828   0.03828   2.76961
    R7        2.51352  -0.00470   0.00000  -0.01217  -0.01219   2.50133
    R8        2.65557   0.00108   0.00000   0.02052   0.02064   2.67621
    R9        2.02435   0.00614   0.00000   0.01424   0.01424   2.03859
   R10        2.51501  -0.00356   0.00000  -0.01412  -0.01402   2.50099
   R11        2.04450  -0.00177   0.00000  -0.00497  -0.00497   2.03952
   R12        3.50804  -0.00137   0.00000  -0.12838  -0.12838   3.37966
   R13        2.35190   0.00774   0.00000   0.03711   0.03711   2.38901
   R14        2.34388  -0.00315   0.00000  -0.01550  -0.01550   2.32838
    A1        1.88625   0.00487   0.00000  -0.03096  -0.04683   1.83942
    A2        2.02515  -0.00559   0.00000  -0.14249  -0.15538   1.86978
    A3        1.93025  -0.00043   0.00000  -0.09450  -0.10254   1.82771
    A4        2.01477  -0.00324   0.00000  -0.00922  -0.00935   2.00542
    A5        2.09513   0.00508   0.00000   0.02295   0.02295   2.11809
    A6        2.17320  -0.00183   0.00000  -0.01353  -0.01353   2.15967
    A7        1.82026   0.00080   0.00000   0.00338   0.00327   1.82353
    A8        1.88090   0.00162   0.00000   0.00640   0.00655   1.88744
    A9        2.17315  -0.00592   0.00000  -0.05696  -0.05703   2.11611
   A10        2.22910   0.00430   0.00000   0.05054   0.05046   2.27957
   A11        1.89703  -0.00078   0.00000  -0.00288  -0.00326   1.89377
   A12        2.26459   0.00051   0.00000   0.00345   0.00266   2.26725
   A13        2.11896   0.00039   0.00000   0.00394   0.00316   2.12212
   A14        1.81157   0.00164   0.00000   0.00287   0.00305   1.81461
   A15        2.32789   0.00179   0.00000   0.04891   0.04891   2.37680
   A16        1.98365   0.00259   0.00000  -0.00381  -0.00384   1.97981
   A17        2.03268  -0.00441   0.00000  -0.00748  -0.00750   2.02517
   A18        2.26679   0.00183   0.00000   0.01144   0.01141   2.27820
   A19        1.99737   0.00286   0.00000   0.09681   0.09681   2.09418
    D1       -2.23422   0.00391   0.00000   0.27217   0.26476  -1.96946
    D2        2.67577   0.00081   0.00000   0.25381   0.26531   2.94108
    D3        0.51974  -0.00111   0.00000   0.48505   0.47355   0.99330
    D4       -0.02211   0.00126   0.00000   0.02505   0.02493   0.00283
    D5        3.13228   0.00077   0.00000   0.00838   0.00817   3.14046
    D6        0.02000  -0.00110   0.00000  -0.02210  -0.02203  -0.00203
    D7       -3.13504  -0.00053   0.00000  -0.00429  -0.00451  -3.13955
    D8        0.12194  -0.00056   0.00000  -0.06281  -0.06277   0.05916
    D9       -3.03114   0.00008   0.00000  -0.04990  -0.04993  -3.08107
   D10       -3.00563  -0.00110   0.00000  -0.08115  -0.08112  -3.08675
   D11        0.12448  -0.00046   0.00000  -0.06824  -0.06828   0.05621
   D12        0.01430  -0.00081   0.00000  -0.01654  -0.01666  -0.00236
   D13       -3.11864  -0.00034   0.00000  -0.01400  -0.01423  -3.13287
   D14       -0.00324   0.00023   0.00000   0.00451   0.00452   0.00128
   D15        3.06033   0.00190   0.00000   0.07223   0.07229   3.13262
   D16        3.12935  -0.00032   0.00000   0.00117   0.00104   3.13039
   D17       -0.09027   0.00135   0.00000   0.06889   0.06881  -0.02146
   D18       -0.00935   0.00045   0.00000   0.00974   0.00974   0.00039
   D19       -3.08067  -0.00106   0.00000  -0.05126  -0.05129  -3.13197
   D20       -2.59789  -0.00200   0.00000  -0.19000  -0.19000  -2.78789
   D21       -0.34940   0.00037   0.00000   0.15197   0.15203  -0.19736
   D22        2.80559  -0.00033   0.00000   0.13709   0.13703   2.94262
         Item               Value     Threshold  Converged?
 Maximum Force            0.017025     0.000450     NO 
 RMS     Force            0.004130     0.000300     NO 
 Maximum Displacement     0.491126     0.001800     NO 
 RMS     Displacement     0.137646     0.001200     NO 
 Predicted change in Energy=-8.129132D-03
 GradGradGradGradGradGradGradGradGradGradGradGradGradGradGradGradGradGrad

                          Input orientation:                          
 ---------------------------------------------------------------------
 Center     Atomic      Atomic             Coordinates (Angstroms)
 Number     Number       Type             X           Y           Z
 ---------------------------------------------------------------------
      1          8           0        8.477325   19.571564    7.887492
      2          1           0        9.175913   20.194712    8.301554
      3          1           0        8.631750   18.700685    8.297871
      4          7           0       10.104142   19.143196    4.543240
      5          7           0       10.302447   20.027493    5.514442
      6          6           0       11.381200   20.695934    5.138250
      7          6           0       11.818178   20.166761    3.899452
      8          7           0       10.997402   19.190248    3.546865
      9          1           0       11.789945   21.487025    5.747227
     10          1           0       12.653842   20.454268    3.279914
     11          1           0        8.727628   19.446550    6.919943
     12          6           0        8.985903   18.196952    4.589999
     13          8           0        8.226728   18.364635    5.586875
     14          8           0        8.932595   17.376976    3.671885
 ---------------------------------------------------------------------
                    Distance matrix (angstroms):
                    1          2          3          4          5
     1  O    0.000000
     2  H    1.023614   0.000000
     3  H    0.975033   1.590045   0.000000
     4  N    3.743536   4.011511   4.057217   0.000000
     5  N    3.028252   3.010820   3.507011   1.328360   0.000000
     6  C    4.153917   3.888573   4.639364   2.096643   1.323646
     7  C    5.236413   5.134281   5.625725   2.097633   2.219240
     8  N    5.033611   5.189782   5.329919   1.338988   2.248400
     9  H    4.384425   3.876574   4.923787   3.128107   2.096920
    10  H    6.281102   6.113937   6.665746   3.133029   3.271744
    11  H    1.007190   1.633877   1.569775   2.763247   2.189288
    12  C    3.608555   4.219335   3.758654   1.465613   2.436958
    13  O    2.610041   3.408755   2.761606   2.284735   2.660630
    14  O    4.774393   5.425189   4.821043   2.291574   3.506672
                    6          7          8          9         10
     6  C    0.000000
     7  C    1.416190   0.000000
     8  N    2.224162   1.323468   0.000000
     9  H    1.078773   2.271160   3.277942   0.000000
[...]
 ! A13   A(8,7,10)             121.5866         -DE/DX =    0.0                 !
 ! A14   A(4,8,7)              104.2211         -DE/DX =    0.0                 !
 ! A15   A(1,11,13)            130.4506         -DE/DX =    0.0                 !
 ! A16   A(4,12,13)            112.6697         -DE/DX =    0.0                 !
 ! A17   A(4,12,14)            115.4482         -DE/DX =    0.0                 !
 ! A18   A(13,12,14)           131.8821         -DE/DX =    0.0                 !
 ! A19   A(11,13,12)           115.015          -DE/DX =    0.0                 !
 ! D1    D(2,1,3,11)          -120.2053         -DE/DX =    0.0                 !
 ! D2    D(2,1,11,13)          -26.069          -DE/DX =    0.0                 !
 ! D3    D(3,1,11,13)         -146.0125         -DE/DX =    0.0                 !
 ! D4    D(8,4,5,6)              0.0311         -DE/DX =    0.0                 !
 ! D5    D(12,4,5,6)           179.9041         -DE/DX =    0.0                 !
 ! D6    D(5,4,8,7)             -0.0255         -DE/DX =    0.0                 !
 ! D7    D(12,4,8,7)          -179.8928         -DE/DX =    0.0                 !
 ! D8    D(5,4,12,13)            0.0733         -DE/DX =    0.0                 !
 ! D9    D(5,4,12,14)         -179.9249         -DE/DX =    0.0                 !
 ! D10   D(8,4,12,13)          179.9334         -DE/DX =    0.0                 !
 ! D11   D(8,4,12,14)           -0.0648         -DE/DX =    0.0                 !
 ! D12   D(4,5,6,7)             -0.0228         -DE/DX =    0.0                 !
 ! D13   D(4,5,6,9)            179.9951         -DE/DX =    0.0                 !
 ! D14   D(5,6,7,8)              0.0089         -DE/DX =    0.0                 !
 ! D15   D(5,6,7,10)          -179.9923         -DE/DX =    0.0                 !
 ! D16   D(9,6,7,8)            179.9888         -DE/DX =    0.0                 !
 ! D17   D(9,6,7,10)            -0.0123         -DE/DX =    0.0                 !
 ! D18   D(6,7,8,4)              0.0092         -DE/DX =    0.0                 !
 ! D19   D(10,7,8,4)          -179.9898         -DE/DX =    0.0                 !
 ! D20   D(1,11,13,12)        -176.7276         -DE/DX =    0.0                 !
 ! D21   D(4,12,13,11)           0.2513         -DE/DX =    0.0                 !
 ! D22   D(14,12,13,11)       -179.7509         -DE/DX =    0.0                 !
 --------------------------------------------------------------------------------
 GradGradGradGradGradGradGradGradGradGradGradGradGradGradGradGradGradGrad


 ----------------------------------------------------------------------

 Electric dipole moment (input orientation):
 (Debye = 10**-18 statcoulomb cm , SI units = C m)
                  (au)            (Debye)         (10**-30 SI)
   Tot        0.662598D+01      0.168416D+02      0.561774D+02
   x          0.528818D-01      0.134412D+00      0.448351D+00
   y          0.433549D+01      0.110197D+02      0.367578D+02
   z          0.501042D+01      0.127352D+02      0.424801D+02

 Dipole polarizability, Alpha (input orientation).
 (esu units = cm**3 , SI units = C**2 m**2 J**-1)
 Alpha(0;0):
               (au)            (10**-24 esu)      (10**-40 SI)
   iso        0.939371D+02      0.139200D+02      0.154881D+02
   aniso      0.581874D+02      0.862248D+01      0.959380D+01
   xx         0.850261D+02      0.125996D+02      0.140189D+02
   yx         0.270883D+02      0.401407D+01      0.446625D+01
   yy         0.945627D+02      0.140127D+02      0.155913D+02
   zx        -0.137946D+02     -0.204414D+01     -0.227441D+01
   zy         0.114150D+02      0.169153D+01      0.188208D+01
   zz         0.102223D+03      0.151478D+02      0.168542D+02

 ----------------------------------------------------------------------

 Dipole orientation:
     8         16.58071748         17.88123529         35.54945937
     1         14.90354883         17.15434490         35.29113454
     1         16.52637416         19.00998926         37.00771656
     7         19.04363641         21.53803389         30.24614265
     7         19.40125664         21.45152986         32.72519029
     6         21.14711488         23.19449037         33.17260779
     6         21.79969785         24.30703391         30.85027005
     7         20.44130568         23.22227516         29.03964056
     1         21.83655592         23.56584910         35.05644139
     1         23.14172172         25.78655525         30.43803275
     1         17.10351887         18.83502342         33.98714700
     6         17.19744439         19.83040504         29.01195114
     8         16.11194215         18.41017819         30.54221195
     8         17.01029480         20.06060746         26.70026038

 Electric dipole moment (dipole orientation):
 (Debye = 10**-18 statcoulomb cm , SI units = C m)
                  (au)            (Debye)         (10**-30 SI)
   Tot        0.662598D+01      0.168416D+02      0.561774D+02
   x          0.000000D+00      0.000000D+00      0.000000D+00
   y          0.000000D+00      0.000000D+00      0.000000D+00
   z          0.662598D+01      0.168416D+02      0.561774D+02

 Dipole polarizability, Alpha (dipole orientation).
 (esu units = cm**3 , SI units = C**2 m**2 J**-1)
 Alpha(0;0):
               (au)            (10**-24 esu)      (10**-40 SI)
   iso        0.939371D+02      0.139200D+02      0.154881D+02
   aniso      0.581874D+02      0.862248D+01      0.959380D+01
   xx         0.850869D+02      0.126086D+02      0.140289D+02
   yx         0.295311D+02      0.437605D+01      0.486902D+01
   yy         0.863701D+02      0.127987D+02      0.142405D+02
   zx         0.708555D+01      0.104997D+01      0.116825D+01
   zy        -0.193551D+01     -0.286813D+00     -0.319123D+00
   zz         0.110354D+03      0.163528D+02      0.181950D+02

 ----------------------------------------------------------------------
 1\1\GINC-NODE4\Freq\RM062X\6-31+G(d,p)\C3H5N3O3\GONGKE2021\07-Jul-2023
 \0\\#N Geom=AllCheck Guess=TCheck SCRF=Check GenChk RM062X/6-31+G(d,p)
  Freq\\TS\\0,1\O,8.8958207271,19.4384605857,7.9637942635\H,8.008386284
 2,19.0607740261,8.1191939273\H,8.8714471254,20.3951623588,8.1567177831
 \N,10.1709421353,19.0616590452,4.5650929803\N,10.3707857573,19.8848495
 606,5.5855309747\C,11.2937676304,20.7345035184,5.1536930143\C,11.62752
 84568,20.3745758288,3.8364304357\N,10.9027843296,19.3156938463,3.49323
 75115\H,11.6659626345,21.5343027537,5.7760185306\H,12.333602042,20.821
 7891409,3.1535210027\H,9.1643662561,19.2783663512,7.0061746425\C,9.191
 4894173,17.9538813629,4.6702917657\O,8.6257848153,17.9171077529,5.7789
 666705\O,9.0823323887,17.2458738685,3.6663464978\\Version=ES64L-G16Rev
 A.03\State=1-A\HF=-507.0753603\RMSD=2.143e-09\RMSF=6.133e-06\ZeroPoint
 =0.0986943\Thermal=0.1073561\Dipole=0.0528818,4.3354915,5.010419\Dipol
 eDeriv=-0.6497473,-0.0496877,0.2188587,-0.0403423,-0.6335047,-0.125174
 8,0.2287678,-0.106512,-1.0607996,0.5736588,0.0637224,-0.0498559,0.0759
 001,0.4903264,-0.0637094,-0.0341322,-0.0494716,0.4729761,0.4536534,0.0
 176513,0.0392609,-0.0002702,0.5929775,0.0768032,0.0257083,0.0601866,0.
 4825282,-0.8784089,-1.0805576,0.0494494,-1.0693729,-1.1573462,0.104428
 5,0.0699435,0.1291434,0.1339908,-0.232152,0.1899636,0.2889609,0.303692
 6,0.137175,0.0386737,0.4866337,0.280172,-0.7542979,-0.2093784,-0.21979
 38,-0.0703366,-0.0328995,-0.0574758,0.0728958,0.255248,0.458473,0.2143
 148,-0.0734239,-0.0330184,-0.0958395,-0.2052334,-0.2970821,0.0671171,-
 0.3941348,-0.2891978,0.2224226,0.0800385,0.398713,0.0291886,0.2373721,
 -0.0289539,-0.1220994,-0.2499572,-0.4569278,-0.5156385,0.1782686,-0.03
 63516,0.0128556,-0.0477727,0.1350661,-0.0399035,-0.0072169,-0.0631833,
 0.1198853,0.1484694,-0.0524041,0.0445976,-0.0393333,0.1624323,-0.00825
 87,0.0669193,0.0180638,0.1074094,0.6605365,0.0448631,-0.3292448,0.0206
 186,0.577118,0.1888064,-0.3714865,0.1366956,1.3552573,2.0487396,1.4090
 201,-0.6932452,1.4172267,2.6005886,0.6629957,-0.6839948,0.6822234,3.12
 03354,-1.2121093,-0.3103774,0.6308749,-0.2754465,-1.0403208,-0.1034904
 ,0.6863799,-0.0416201,-2.1138746,-0.8881449,-0.3417429,-0.0755245,-0.3
 441394,-1.4810005,-0.7490843,-0.078678,-0.7580453,-1.7845092\Polar=85.
 0260784,27.0882827,94.5626969,-13.7945517,11.4149983,102.2225149\Quadr
 upole=0.4754901,-8.1312485,7.6557584,-3.4313355,-13.1729604,0.2461009\
 PG=C01 [X(C3H5N3O3)]\NImag=1\\0.50777066,0.15489071,0.64639286,-0.1865
 7607,0.13468463,0.45290218,-0.41022655,-0.17051434,0.08417750,0.413614
 58,-0.13705591,-0.11112437,0.00270539,0.16745581,0.11733645,0.05684417
 ,-0.00275141,-0.05042194,-0.08059524,-0.01336727,0.05004613,-0.0430866
 7,0.02755039,0.03355725,0.00442702,-0.03680237,-0.00922344,0.03951380,
 -0.00566885,-0.47179044,-0.09571909,0.00341014,-0.01041401,-0.00004304
 ,-0.00138095,0.48385539,0.02626023,-0.06799570,-0.05246737,-0.00357692
 ,0.00710823,0.00150960,-0.02170240,0.09660625,0.05476674,-0.00057037,0
 .00009492,0.00149233,0.00012947,-0.00004466,-0.00003022,0.00008275,-0.
 00010983,-0.00015745,0.42091855,-0.00106799,0.00001240,0.00145156,0.00
 013314,0.00007614,0.00007926,0.00010058,-0.00026645,-0.00018568,0.2729
 6570,0.51224916,-0.00033257,-0.00039577,-0.00030517,0.00015747,0.00020
 165,0.00016740,-0.00005225,-0.00025133,-0.00014971,-0.14686987,0.11607
 392,0.62661589,-0.00460949,-0.00189240,0.00871021,0.00053275,0.0004801
 2,0.00098347,-0.00103093,-0.00063874,0.00081634,-0.08726744,-0.0325240
 2,-0.02991978,0.37531571,-0.00356413,0.00074013,0.00538746,0.00028752,
 0.00070710,0.00048542,-0.00019630,-0.00053876,0.00017319,-0.00588277,-
 0.15347533,-0.12549014,0.22827540,0.41247307,0.00658103,0.00322532,-0.
 00514949,-0.00026717,-0.00062048,-0.00144795,0.00145467,0.00042216,-0.
 00196140,0.01636746,-0.07071900,-0.23120213,-0.14802753,0.05112660,0.5
 0630478,0.00048915,0.00022679,-0.00045451,-0.00002976,-0.00007678,-0.0
 0015752,-0.00004918,0.00007202,0.00017533,-0.04320388,-0.07933337,-0.0
 2311459,-0.23513069,-0.14601183,0.08175026,0.42147290,0.00133121,0.000
 31952,-0.00207286,-0.00013880,-0.00021851,-0.00025053,-0.00002460,0.00
 021378,0.00022998,-0.05590210,-0.07762780,-0.04091219,-0.14427952,-0.2
 1422013,0.05272148,0.30217541,0.62793482,0.00139806,-0.00004179,-0.002
 59978,-0.00015898,-0.00017054,-0.00017706,0.00005922,0.00023198,0.0000
 5178,0.01761149,0.00743135,-0.01096167,0.08459366,0.05609372,-0.150246
 83,-0.05308994,0.22146774,0.63727653,-0.00043072,0.00016735,0.00067209
 ,0.00006445,0.00004683,0.00002340,-0.00003967,-0.00009073,0.00004181,-
 0.05029372,-0.05060712,0.04070212,-0.01004191,-0.02225561,0.02412156,-
 0.10664164,-0.00028395,0.06908751,0.50687253,0.00002711,0.00026589,0.0
 0052878,0.00007272,-0.00001815,-0.00009761,-0.00003126,-0.00005586,0.0
 0005809,-0.07494566,-0.05676754,0.03532056,0.01070199,0.03271036,-0.00
 059428,-0.01645517,-0.11510828,-0.03892500,0.29822589,0.50537526,0.000
 67305,0.00037575,-0.00074535,-0.00004419,-0.00008564,-0.00016238,-0.00
 000897,0.00010416,0.00011284,-0.00155660,-0.01488971,-0.01081320,0.081
 47624,0.06755012,-0.03068509,0.04088041,-0.07249844,-0.28394451,-0.236
 09320,0.01528915,0.65713052,-0.00084141,-0.00022185,0.00096659,0.00007
 854,0.00015457,0.00017207,0.00002865,-0.00014202,-0.00013352,-0.136923
 54,-0.00726971,0.11901488,-0.01569570,-0.02559558,0.04440808,0.0316707
 4,-0.02027679,-0.05656559,-0.17431831,-0.13972181,-0.03360175,0.328405
 40,0.00012972,0.00012565,0.00010728,0.00002639,-0.00001084,-0.00003977
 ,-0.00004843,-0.00001871,0.00003774,-0.03467605,-0.09111525,0.04095502
 ,-0.03545979,-0.02607493,-0.01951865,0.01199852,-0.01618011,-0.0903517
 2,-0.13897388,-0.28208701,-0.07615013,0.21838156,0.43754684,0.00178592
 ,0.00075881,-0.00198236,-0.00019319,-0.00027527,-0.00042904,-0.0001277
 1,0.00029812,0.00044673,0.07121575,-0.01573377,-0.24815094,0.02741797,
 -0.03999495,-0.09873386,-0.00039366,-0.02353881,-0.01880559,-0.0322909
 0,-0.07459466,-0.13601019,-0.07954109,0.12432429,0.48743870,-0.0000058
 7,-0.00002787,0.00005814,0.00000866,-0.00000484,0.00000105,-0.00000445
 ,-0.00001859,-0.00000226,0.00124658,-0.00697594,0.00411901,-0.00877098
 ,-0.01185517,-0.01658028,-0.07945357,-0.08543103,-0.05263352,0.0059172
 0,0.00841476,0.00231671,0.00307980,-0.00087640,0.00460210,0.07805882,-
 0.00009321,-0.00000462,0.00003971,-0.00000053,0.00000739,0.00001075,-0
 .00001903,-0.00001368,0.00001873,-0.00585188,0.00208302,-0.00009037,-0
 .00089585,-0.01317810,-0.00925718,-0.08864613,-0.21842927,-0.13955747,
 0.00062982,0.00190707,0.00207788,-0.00261772,0.00274215,-0.00033126,0.
 09702990,0.22541289,-0.00004592,-0.00004546,0.00005819,0.00000408,-0.0
 0000351,0.00000701,-0.00000111,-0.00000735,0.00000353,0.00605492,0.002
 22902,0.00042447,0.00256319,0.01349686,0.01143174,-0.05830275,-0.14630
 438,-0.16717715,-0.01123159,-0.01403032,-0.00122549,0.00158829,-0.0039
 1400,-0.00406233,0.05961117,0.14794066,0.15952801,-0.00000931,0.000010
 48,-0.00000072,0.00000248,0.00000048,-0.00000045,0.00000133,-0.0000041
 9,0.00000074,0.00365540,-0.00578003,0.00096413,0.00356631,-0.00265381,
 0.00083954,0.00107432,0.00041519,-0.00198653,-0.17782755,-0.09393053,0
 .13648128,-0.01174341,-0.00102158,0.00756971,-0.00088086,0.00056384,-0
 .00006191,0.18158730,0.00011229,0.00002740,-0.00013635,-0.00000745,-0.
 00001637,-0.00002390,-0.00000135,0.00001663,0.00001207,-0.00706426,-0.
 00125262,-0.00317120,-0.00089136,0.00223952,-0.00504175,0.00842609,0.0
 0755470,-0.00388272,-0.09085842,-0.09903276,0.07272213,-0.01182089,-0.
 01024521,0.01919621,0.00025147,-0.00072105,0.00063886,0.10264166,0.100
 49750,0.00019004,0.00004856,-0.00026265,-0.00002428,-0.00002871,-0.000
 03548,-0.00000312,0.00003552,0.00003047,-0.00129608,-0.00585849,0.0014
 5939,0.00391843,-0.00139864,-0.00430100,0.01194564,0.01268872,-0.00288
 363,0.14183888,0.07908741,-0.18852895,-0.01121214,-0.00314591,0.010504
 30,-0.00060622,-0.00000848,-0.00014310,-0.14460066,-0.08152491,0.18251
 586,-0.04978704,-0.00706912,0.06005394,-0.00853544,0.00584314,0.031787
 90,-0.00037056,0.00407486,-0.00110454,-0.00046954,0.00192390,0.0040919
 2,-0.00001656,0.00652938,-0.00207718,-0.00158618,-0.00295055,-0.002618
 69,0.00090992,-0.00050781,-0.00144408,0.00219587,-0.00029862,-0.004139
 30,-0.00011411,0.00014566,-0.00005448,0.00005829,-0.00029599,-0.000419
 49,0.06056729,-0.00731524,-0.05605139,-0.03382782,0.00010401,0.0046436
 6,0.01534472,0.01044281,-0.00225955,-0.03448819,-0.00019592,0.00059121
 ,0.00160000,0.00331533,-0.00259494,-0.00003736,-0.00104838,-0.00176906
 ,-0.00026687,-0.00050946,-0.00065377,-0.00123613,0.00098089,-0.0001809
 6,-0.00314212,0.00010090,-0.00011468,0.00007010,-0.00006209,-0.0001002
 0,-0.00023256,-0.01144337,0.05194353,0.09486446,-0.05465625,-0.3247787
 9,0.00124690,0.00504849,0.00003159,-0.00430825,-0.00276803,-0.00022189
 ,0.00028781,-0.00277373,-0.00555169,-0.00812434,-0.00684122,-0.0021369
 3,0.00073400,0.00371368,0.00453491,-0.00139972,-0.00118686,0.00148497,
 -0.00189133,-0.00048786,0.00352275,-0.00012382,-0.00002222,-0.00004540
 ,-0.00000894,0.00024805,0.00055990,-0.08703543,0.04942129,0.32113981,-
 0.00097476,-0.00443702,-0.00359528,-0.00061343,0.00017966,0.00108089,0
 .00035689,0.00033929,-0.00093705,-0.07017242,-0.02194830,0.00930598,-0
 .01735063,-0.01668539,-0.02014342,0.01832560,0.01077325,-0.01044366,0.
 01109454,0.01598148,0.01494208,-0.03137074,-0.01082431,0.01497972,0.00
 194672,-0.00019612,-0.00001279,0.00162572,-0.00028705,0.00070281,0.005
 41032,0.00985644,0.00452181,0.34386581,-0.00178094,-0.00211888,-0.0007
 0541,-0.00007671,0.00022084,0.00070297,0.00008173,-0.00012975,-0.00062
 164,-0.02000396,-0.07822384,-0.01239868,-0.01501454,-0.03816086,-0.013
 02900,0.01585139,0.01286441,-0.01778756,0.00998185,0.02271482,0.010439
 29,-0.01293569,-0.01533962,0.02619379,-0.00038479,0.00129448,-0.000624
 65,-0.00014482,0.00203392,0.00003736,0.00514543,0.00296697,-0.00420890
 ,0.05747618,0.41868313,-0.00022056,0.00467637,0.00699157,0.00123515,0.
 00016907,-0.00132411,-0.00043770,-0.00107634,0.00073555,0.01289445,-0.
 00810619,-0.08806441,-0.01712121,-0.00943225,0.00608963,-0.00160714,-0
 .00731945,-0.00518186,0.00443997,-0.00202416,-0.00783585,0.01123728,0.
 02175140,-0.00054579,-0.00035314,-0.00102157,0.00104682,0.00092535,0.0
 0029601,0.00080279,-0.00374953,-0.01413432,-0.01724615,-0.14725792,0.2
 2002924,0.91153830,0.00204482,0.00028279,0.00055180,0.00047171,-0.0001
 1750,-0.00069535,0.00024915,0.00019476,0.00009444,-0.03239694,-0.03176
 729,0.04524518,0.00042504,0.00143434,0.00582507,-0.00364168,-0.0018425
 3,0.00490404,-0.00464154,-0.00527500,-0.00070990,0.00293418,-0.0058753
 8,-0.00636385,-0.00023161,-0.00006432,-0.00009186,-0.00085617,-0.00020
 638,-0.00044054,-0.00736475,-0.00218524,0.00137470,-0.17291501,-0.0128
 9342,0.16819351,0.19136230,-0.00061831,-0.00599766,-0.01063621,-0.0004
 6598,-0.00113991,-0.00023262,0.00026692,0.00111409,-0.00091069,-0.0349
 8316,-0.00829200,0.03010350,-0.00571257,-0.00273507,0.00376663,-0.0016
 5359,0.00049454,0.00381648,-0.00316888,-0.00355782,0.00130344,-0.00254
 561,-0.00130937,-0.00529187,0.00004595,-0.00018016,-0.00001589,0.00006
 918,-0.00070489,0.00017185,-0.00023767,0.00159782,0.01062082,-0.009349
 89,-0.08585691,0.01000717,0.04620443,0.09100055,-0.00167870,-0.0150105
 5,-0.01682369,-0.00122675,-0.00066208,0.00137863,0.00062652,0.00155879
 ,-0.00241842,0.03960157,0.02337909,-0.02538019,-0.00667609,-0.01110850
 ,-0.00353645,0.00518451,0.00416348,-0.00322966,0.00296081,0.00564249,0
 .00314445,-0.00055925,0.00162956,0.00874173,0.00009599,0.00020842,-0.0
 0006116,0.00005099,0.00075008,0.00032198,0.00473060,0.01451752,0.01093
 941,0.17473321,0.01735748,-0.41219406,-0.24700453,0.00484415,0.5532440
 0,0.00023758,0.00093916,0.00038675,0.00007553,-0.00005854,-0.00019073,
 -0.00007814,-0.00003718,0.00022526,-0.00473489,-0.03784955,-0.02331162
 ,0.00007454,-0.00182605,0.00574790,-0.00329612,-0.00356518,-0.00015707
 ,-0.00062359,-0.00255674,-0.00331108,0.00249993,-0.00248174,-0.0045214
 8,-0.00079631,0.00001558,-0.00001924,-0.00025386,0.00000164,0.00000674
 ,-0.00089750,-0.00204069,-0.00013785,-0.08922861,-0.02530171,-0.028178
 50,0.02456051,0.01214918,0.02916112,0.07246093,0.00067353,-0.00079648,
 -0.00180706,-0.00028593,-0.00004942,0.00018304,0.00006186,0.00028732,-
 0.00004236,-0.03340036,-0.04799111,-0.04154496,-0.00546405,0.00210794,
 0.00755551,-0.00552498,-0.00582861,0.00194239,-0.00230369,-0.00569220,
 -0.00500188,0.00363065,0.00214738,-0.00786849,-0.00026834,-0.00080543,
 0.00057007,-0.00010378,-0.00029657,0.00012828,-0.00085923,0.00198136,0
 .00389275,-0.03087822,-0.24094872,-0.21381498,0.01211073,0.01556678,-0
 .04726993,0.06261180,0.28031776,0.00025685,-0.00287251,-0.00441537,-0.
 00073437,-0.00001933,0.00085758,0.00016730,0.00060822,-0.00043846,-0.0
 1561556,-0.03237763,-0.00808806,-0.00061056,-0.00004766,0.00557499,-0.
 00355004,-0.00208842,0.00334451,-0.00287274,-0.00447358,-0.00192177,0.
 00611749,0.00480275,-0.00193411,-0.00050492,-0.00000759,0.00021486,-0.
 00017254,-0.00008258,-0.00003988,0.00197835,0.00641175,0.00776751,-0.0
 3787639,-0.22538430,-0.39481243,0.02911730,-0.04754675,-0.11412658,0.0
 2429981,0.30307762,0.50801720\\0.00001617,0.00001727,0.00000377,-0.000
 00263,0.00000213,0.00000103,0.00000051,0.00000457,0.00000028,0.0000027
 3,-0.00000204,-0.00000228,-0.00000264,-0.00000503,-0.00000019,0.000000
 38,0.00000113,-0.00000731,-0.00000209,-0.00000485,-0.00000456,-0.00000
 872,-0.00000441,0.00000280,0.00000011,0.00000076,-0.00000808,-0.000004
 28,-0.00000603,-0.00000772,0.00000831,0.00000965,0.00000584,-0.0000056
 3,-0.00000235,0.00000877,-0.00000336,-0.00000255,-0.00000356,0.0000011
 4,-0.00000824,0.00001122\\\@


 ABALONE: AN EXPRESSION OF DISBELIEF.
 Job cpu time:       0 days  0 hours 22 minutes 56.5 seconds.
 Elapsed time:       0 days  0 hours  0 minutes 58.0 seconds.
 File lengths (MBytes):  RWF=     91 Int=      0 D2E=      0 Chk=     10 Scr=      1
 Normal termination of Gaussian 16 at Fri Jul  7 10:43:14 2023.
