 Entering Gaussian System, Link 0=g16
 Input=sidanzuo-PC.gjf
 Output=sidanzuo-PC.log
 Initial command:
 /home/Tinker/g16/l1.exe "/home/Tinker/g16/scratch/Gau-3522045.inp" -scrdir="/home/Tinker/g16/scratch/"
 Entering Link 1 = /home/Tinker/g16/l1.exe PID=   3522046.
  
 Copyright (c) 1988-2019, Gaussian, Inc.  All Rights Reserved.
  
 This is part of the Gaussian(R) 16 program.  It is based on
 the Gaussian(R) 09 system (copyright 2009, Gaussian, Inc.),
 the Gaussian(R) 03 system (copyright 2003, Gaussian, Inc.),
 the Gaussian(R) 98 system (copyright 1998, Gaussian, Inc.),
 the Gaussian(R) 94 system (copyright 1995, Gaussian, Inc.),
 the Gaussian 92(TM) system (copyright 1992, Gaussian, Inc.),
 the Gaussian 90(TM) system (copyright 1990, Gaussian, Inc.),
 the Gaussian 88(TM) system (copyright 1988, Gaussian, Inc.),
 the Gaussian 86(TM) system (copyright 1986, Carnegie Mellon
 University), and the Gaussian 82(TM) system (copyright 1983,
 Carnegie Mellon University). Gaussian is a federally registered
 trademark of Gaussian, Inc.
  
 This software contains proprietary and confidential information,
 including trade secrets, belonging to Gaussian, Inc.
  
 This software is provided under written license and may be
 used, copied, transmitted, or stored only in accord with that
 written license.
  
 The following legend is applicable only to US Government
 contracts under FAR:
  
                    RESTRICTED RIGHTS LEGEND
  
 Use, reproduction and disclosure by the US Government is
 subject to restrictions as set forth in subparagraphs (a)
 and (c) of the Commercial Computer Software - Restricted
 Rights clause in FAR 52.227-19.
  
 Gaussian, Inc.
 340 Quinnipiac St., Bldg. 40, Wallingford CT 06492
  
  
 ---------------------------------------------------------------
 Warning -- This program may not be used in any manner that
 competes with the business of Gaussian, Inc. or will provide
 assistance to any competitor of Gaussian, Inc.  The licensee
 of this program is prohibited from giving any competitor of
 Gaussian, Inc. access to this program.  By using this program,
 the user acknowledges that Gaussian, Inc. is engaged in the
 business of creating and licensing software in the field of
 computational chemistry and represents and warrants to the
 licensee that it is not a competitor of Gaussian, Inc. and that
 it will not use this program in any manner prohibited above.
 ---------------------------------------------------------------
  

 Cite this work as:
 Gaussian 16, Revision C.01,
 M. J. Frisch, G. W. Trucks, H. B. Schlegel, G. E. Scuseria, 
 M. A. Robb, J. R. Cheeseman, G. Scalmani, V. Barone, 
 G. A. Petersson, H. Nakatsuji, X. Li, M. Caricato, A. V. Marenich, 
 J. Bloino, B. G. Janesko, R. Gomperts, B. Mennucci, H. P. Hratchian, 
 J. V. Ortiz, A. F. Izmaylov, J. L. Sonnenberg, D. Williams-Young, 
 F. Ding, F. Lipparini, F. Egidi, J. Goings, B. Peng, A. Petrone, 
 T. Henderson, D. Ranasinghe, V. G. Zakrzewski, J. Gao, N. Rega, 
 G. Zheng, W. Liang, M. Hada, M. Ehara, K. Toyota, R. Fukuda, 
 J. Hasegawa, M. Ishida, T. Nakajima, Y. Honda, O. Kitao, H. Nakai, 
 T. Vreven, K. Throssell, J. A. Montgomery, Jr., J. E. Peralta, 
 F. Ogliaro, M. J. Bearpark, J. J. Heyd, E. N. Brothers, K. N. Kudin, 
 V. N. Staroverov, T. A. Keith, R. Kobayashi, J. Normand, 
 K. Raghavachari, A. P. Rendell, J. C. Burant, S. S. Iyengar, 
 J. Tomasi, M. Cossi, J. M. Millam, M. Klene, C. Adamo, R. Cammi, 
 J. W. Ochterski, R. L. Martin, K. Morokuma, O. Farkas, 
 J. B. Foresman, and D. J. Fox, Gaussian, Inc., Wallingford CT, 2019.
 
 ******************************************
 Gaussian 16:  ES64L-G16RevC.01  3-Jul-2019
                10-Nov-2023 
 ******************************************
 %mem=10GB
 %nprocshared=30
 Will use up to   30 processors via shared memory.
 -----------------------------------------------------
 # opt freq 6-31+g(d,p) scrf=(SMD,solvent=water) m062x
 -----------------------------------------------------
 1/18=20,19=15,26=3,38=1/1,3;
 2/9=110,12=2,17=6,18=5,40=1/2;
 3/5=1,6=6,7=111,11=2,25=1,30=1,70=32201,71=1,72=1,74=-55/1,2,3;
 4//1;
 5/5=2,38=5,53=1/2;
 6/7=2,8=2,9=2,10=2,28=1/1;
 7//1,2,3,16;
 1/18=20,19=15,26=3/3(2);
 2/9=110/2;
 99//99;
 2/9=110/2;
 3/5=1,6=6,7=111,11=2,25=1,30=1,70=32205,71=1,72=1,74=-55/1,2,3;
 4/5=5,16=3,69=1/1;
 5/5=2,38=5,53=1/2;
 7//1,2,3,16;
 1/18=20,19=15,26=3/3(-5);
 2/9=110/2;
 6/7=2,8=2,9=2,10=2,19=2,28=1/1;
 99/9=1/99;
 -------------------
 Title Card Required
 -------------------
 Symbolic Z-matrix:
 Charge =  0 Multiplicity = 1
 N                     0.6192   -0.9311    0.02776 
 N                     0.34645   0.37058   0.00802 
 N                     1.42834   1.13354  -0.0152 
 N                     2.44313   0.33277  -0.01122 
 C                     1.93667  -0.92599   0.01477 
 C                    -1.00072   0.95917   0.00845 
 O                    -1.10956   2.14344   0.0342 
 O                    -1.96731   0.0831   -0.0162 
 H                    -2.28163  -3.04941   0.48346 
 H                     2.54221  -1.81857   0.02321 
 O                    -1.71631  -2.51207  -0.08122 
 H                    -0.79349  -2.68857   0.14251 
 H                    -1.74865  -0.89206  -0.0523 
 
 Add virtual bond connecting atoms H13        and O11        Dist= 3.06D+00.

 GradGradGradGradGradGradGradGradGradGradGradGradGradGradGradGradGradGrad
 Berny optimization.
 Initialization pass.
                           ----------------------------
                           !    Initial Parameters    !
                           ! (Angstroms and Degrees)  !
 --------------------------                            --------------------------
 ! Name  Definition              Value          Derivative Info.                !
 --------------------------------------------------------------------------------
 ! R1    R(1,2)                  1.3301         estimate D2E/DX2                !
 ! R2    R(1,5)                  1.3175         estimate D2E/DX2                !
 ! R3    R(2,3)                  1.3241         estimate D2E/DX2                !
 ! R4    R(2,6)                  1.4701         estimate D2E/DX2                !
 ! R5    R(3,4)                  1.2927         estimate D2E/DX2                !
 ! R6    R(4,5)                  1.3571         estimate D2E/DX2                !
 ! R7    R(5,10)                 1.0786         estimate D2E/DX2                !
 ! R8    R(6,7)                  1.1895         estimate D2E/DX2                !
 ! R9    R(6,8)                  1.3048         estimate D2E/DX2                !
 ! R10   R(8,13)                 1.0            estimate D2E/DX2                !
 ! R11   R(9,11)                 0.9629         estimate D2E/DX2                !
 ! R12   R(11,12)                0.9658         estimate D2E/DX2                !
 ! R13   R(11,13)                1.6206         estimate D2E/DX2                !
 ! A1    A(2,1,5)              101.6016         estimate D2E/DX2                !
 ! A2    A(1,2,3)              113.3671         estimate D2E/DX2                !
 ! A3    A(1,2,6)              125.4305         estimate D2E/DX2                !
 ! A4    A(3,2,6)              121.2023         estimate D2E/DX2                !
 ! A5    A(2,3,4)              106.5252         estimate D2E/DX2                !
 ! A6    A(3,4,5)              106.36           estimate D2E/DX2                !
 ! A7    A(1,5,4)              112.146          estimate D2E/DX2                !
 ! A8    A(1,5,10)             123.9228         estimate D2E/DX2                !
 ! A9    A(4,5,10)             123.9312         estimate D2E/DX2                !
 ! A10   A(2,6,7)              118.845          estimate D2E/DX2                !
 ! A11   A(2,6,8)              114.2068         estimate D2E/DX2                !
 ! A12   A(7,6,8)              126.9478         estimate D2E/DX2                !
 ! A13   A(6,8,13)             119.5667         estimate D2E/DX2                !
 ! A14   A(9,11,12)            108.8528         estimate D2E/DX2                !
 ! A15   A(9,11,13)            122.3883         estimate D2E/DX2                !
 ! A16   A(12,11,13)           101.3975         estimate D2E/DX2                !
 ! A17   L(8,13,11,1,-1)       191.4422         estimate D2E/DX2                !
 ! A18   L(8,13,11,1,-2)       178.4989         estimate D2E/DX2                !
 ! D1    D(5,1,2,3)             -0.0245         estimate D2E/DX2                !
 ! D2    D(5,1,2,6)            179.8746         estimate D2E/DX2                !
 ! D3    D(2,1,5,4)              0.0292         estimate D2E/DX2                !
 ! D4    D(2,1,5,10)          -179.936          estimate D2E/DX2                !
 ! D5    D(1,2,3,4)              0.0107         estimate D2E/DX2                !
 ! D6    D(6,2,3,4)           -179.8931         estimate D2E/DX2                !
 ! D7    D(1,2,6,7)            177.5377         estimate D2E/DX2                !
 ! D8    D(1,2,6,8)             -2.2502         estimate D2E/DX2                !
 ! D9    D(3,2,6,7)             -2.5706         estimate D2E/DX2                !
 ! D10   D(3,2,6,8)            177.6414         estimate D2E/DX2                !
 ! D11   D(2,3,4,5)              0.008          estimate D2E/DX2                !
 ! D12   D(3,4,5,1)             -0.0247         estimate D2E/DX2                !
 ! D13   D(3,4,5,10)           179.9406         estimate D2E/DX2                !
 ! D14   D(2,6,8,13)            -1.2596         estimate D2E/DX2                !
 ! D15   D(7,6,8,13)           178.9728         estimate D2E/DX2                !
 ! D16   D(6,8,11,9)           136.539          estimate D2E/DX2                !
 ! D17   D(6,8,11,12)           14.0413         estimate D2E/DX2                !
 ! D18   D(9,11,12,13)        -130.2589         estimate D2E/DX2                !
 --------------------------------------------------------------------------------
 Trust Radius=3.00D-01 FncErr=1.00D-07 GrdErr=1.00D-06 EigMax=2.50D+02 EigMin=1.00D-04
 Number of steps in this run=     59 maximum allowed number of steps=    100.
 GradGradGradGradGradGradGradGradGradGradGradGradGradGradGradGradGradGrad

                          Input orientation:                          
 ---------------------------------------------------------------------
 Center     Atomic      Atomic             Coordinates (Angstroms)
 Number     Number       Type             X           Y           Z
 ---------------------------------------------------------------------
      1          7           0        0.619202   -0.931101    0.027757
      2          7           0        0.346451    0.370577    0.008017
      3          7           0        1.428342    1.133536   -0.015195
      4          7           0        2.443128    0.332766   -0.011223
      5          6           0        1.936669   -0.925988    0.014767
      6          6           0       -1.000720    0.959165    0.008453
      7          8           0       -1.109563    2.143437    0.034199
      8          8           0       -1.967314    0.083097   -0.016196
      9          1           0       -2.281632   -3.049407    0.483461
     10          1           0        2.542208   -1.818568    0.023205
     11          8           0       -1.716307   -2.512068   -0.081223
     12          1           0       -0.793492   -2.688566    0.142505
     13          1           0       -1.748650   -0.892056   -0.052302
 ---------------------------------------------------------------------
                    Distance matrix (angstroms):
                    1          2          3          4          5
     1  N    0.000000
     2  N    1.330093   0.000000
     3  N    2.217945   1.324059   0.000000
     4  N    2.219366   2.097106   1.292687   0.000000
     5  C    1.317541   2.051809   2.121540   1.357070   0.000000
     6  C    2.489503   1.470138   2.435427   3.500407   3.490286
     7  O    3.527245   2.294274   2.731904   3.987757   4.324497
     8  O    2.778596   2.331682   3.554420   4.417506   4.032406
     9  H    3.620735   4.339258   5.613339   5.831566   4.745803
    10  H    2.117917   3.100635   3.155486   2.153890   1.078632
    11  O    2.822399   3.545783   4.814936   5.039730   3.983604
    12  H    2.257776   3.267402   4.423786   4.430326   3.252196
    13  H    2.369527   2.446902   3.767981   4.367251   3.686085
                    6          7          8          9         10
     6  C    0.000000
     7  O    1.189542   0.000000
     8  O    1.304763   2.232326   0.000000
     9  H    4.234976   5.342397   3.187638   0.000000
    10  H    4.502039   5.388231   4.894249   4.999623   0.000000
    11  O    3.545358   4.696295   2.608086   0.962909   4.315877
    12  H    3.656071   4.843540   3.014160   1.568763   3.449351
    13  H    1.997526   3.103245   1.000020   2.285886   4.390397
                   11         12         13
    11  O    0.000000
    12  H    0.965812   0.000000
    13  H    1.620593   2.043948   0.000000
 Stoichiometry    C2H4N4O3
 Framework group  C1[X(C2H4N4O3)]
 Deg. of freedom    33
 Full point group                 C1      NOp   1
 Largest Abelian subgroup         C1      NOp   1
 Largest concise Abelian subgroup C1      NOp   1
                         Standard orientation:                         
 ---------------------------------------------------------------------
 Center     Atomic      Atomic             Coordinates (Angstroms)
 Number     Number       Type             X           Y           Z
 ---------------------------------------------------------------------
      1          7           0        0.237313   -1.050828    0.023989
      2          7           0        0.505450    0.251800    0.003711
      3          7           0        1.801684    0.520846   -0.019202
      4          7           0        2.413681   -0.617784   -0.014480
      5          6           0        1.447865   -1.570755    0.011648
      6          6           0       -0.495936    1.328152    0.003299
      7          8           0       -0.124212    2.457838    0.028625
      8          8           0       -1.731432    0.909418   -0.021557
      9          1           0       -3.267276   -1.838626    0.478913
     10          1           0        1.647900   -2.630639    0.020662
     11          8           0       -2.534550   -1.571108   -0.085657
     12          1           0       -1.758407   -2.100364    0.138582
     13          1           0       -1.919143   -0.072178   -0.057253
 ---------------------------------------------------------------------
 Rotational constants (GHZ):           2.1044647           1.5253052           0.8855566
 Standard basis: 6-31+G(d,p) (6D, 7F)
 There are   191 symmetry adapted cartesian basis functions of A   symmetry.
 There are   191 symmetry adapted basis functions of A   symmetry.
   191 basis functions,   316 primitive gaussians,   191 cartesian basis functions
    34 alpha electrons       34 beta electrons
       nuclear repulsion energy       458.1759254076 Hartrees.
 NAtoms=   13 NActive=   13 NUniq=   13 SFac= 1.00D+00 NAtFMM=   60 NAOKFM=F Big=F
 Integral buffers will be    131072 words long.
 Raffenetti 2 integral format.
 Two-electron integral symmetry is turned on.
 ------------------------------------------------------------------------------
 Polarizable Continuum Model (PCM)
 =================================
 Model                : PCM.
 Atomic radii         : SMD-Coulomb.
 Polarization charges : Total charges.
 Charge compensation  : None.
 Solution method      : On-the-fly selection.
 Cavity type          : VdW (van der Waals Surface) (Alpha=1.000).
 Cavity algorithm     : GePol (No added spheres)
                        Default sphere list used, NSphG=   13.
                        Lebedev-Laikov grids with approx.  5.0 points / Ang**2.
                        Smoothing algorithm: York/Karplus (Gamma=1.0000).
                        Polarization charges: spherical gaussians, with
                                              point-specific exponents (IZeta= 3).
                        Self-potential: point-specific (ISelfS= 7).
                        Self-field    : sphere-specific E.n sum rule (ISelfD= 2).
 1st derivatives      : Analytical E(r).r(x)/FMM algorithm (CHGder, D1EAlg=3).
                        Cavity 1st derivative terms included.
 Solvent              : Water, Eps=  78.355300 Eps(inf)=   1.777849
 ------------------------------------------------------------------------------
 Spheres list:
 ISph  on   Nord     Re0    Alpha      Xe            Ye            Ze
    1   N      1    1.8900  1.000      0.237313     -1.050828      0.023989
    2   N      2    1.8900  1.000      0.505450      0.251800      0.003711
    3   N      3    1.8900  1.000      1.801684      0.520846     -0.019202
    4   N      4    1.8900  1.000      2.413681     -0.617784     -0.014480
    5   C      5    1.8500  1.000      1.447865     -1.570755      0.011648
    6   C      6    1.8500  1.000     -0.495936      1.328152      0.003299
    7   O      7    1.5200  1.000     -0.124212      2.457838      0.028625
    8   O      8    1.5200  1.000     -1.731432      0.909418     -0.021557
    9   H      9    1.2000  1.000     -3.267276     -1.838626      0.478913
   10   H     10    1.2000  1.000      1.647900     -2.630639      0.020662
   11   O     11    1.5200  1.000     -2.534550     -1.571108     -0.085657
   12   H     12    1.2000  1.000     -1.758407     -2.100364      0.138582
   13   H     13    1.2000  1.000     -1.919143     -0.072178     -0.057253
 ------------------------------------------------------------------------------
 ------------------------------------------------------------------------------
 Atomic radii for non-electrostatic terms: SMD-CDS.
 ------------------------------------------------------------------------------
 Nuclear repulsion after PCM non-electrostatic terms =      458.1825768655 Hartrees.
 One-electron integrals computed using PRISM.
 NBasis=   191 RedAO= T EigKep=  2.41D-05  NBF=   191
 NBsUse=   191 1.00D-06 EigRej= -1.00D+00 NBFU=   191
 ExpMin= 4.38D-02 ExpMax= 5.48D+03 ExpMxC= 8.25D+02 IAcc=3 IRadAn=         5 AccDes= 0.00D+00
 Harris functional with IExCor= 1009 and IRadAn=       5 diagonalized for initial guess.
 HarFok:  IExCor= 1009 AccDes= 0.00D+00 IRadAn=         5 IDoV= 1 UseB2=F ITyADJ=14
 ICtDFT=  3500011 ScaDFX=  1.000000  1.000000  1.000000  1.000000
 FoFCou: FMM=F IPFlag=           0 FMFlag=      100000 FMFlg1=           0
         NFxFlg=           0 DoJE=T BraDBF=F KetDBF=T FulRan=T
         wScrn=  0.000000 ICntrl=       500 IOpCl=  0 I1Cent=   200000004 NGrid=           0
         NMat0=    1 NMatS0=      1 NMatT0=    0 NMatD0=    1 NMtDS0=    0 NMtDT0=    0
 Petite list used in FoFCou.
 Requested convergence on RMS density matrix=1.00D-08 within 128 cycles.
 Requested convergence on MAX density matrix=1.00D-06.
 Requested convergence on             energy=1.00D-06.
 No special actions if energy rises.
 Inv3:  Mode=1 IEnd=     3871488.
 Iteration    1 A*A^-1 deviation from unit magnitude is 3.77D-15 for   1132.
 Iteration    1 A*A^-1 deviation from orthogonality  is 1.61D-15 for   1127    593.
 Iteration    1 A^-1*A deviation from unit magnitude is 3.77D-15 for   1132.
 Iteration    1 A^-1*A deviation from orthogonality  is 1.94D-15 for    991    506.
 Error on total polarization charges =  0.03653
 SCF Done:  E(RM062X) =  -523.110214182     A.U. after   14 cycles
            NFock= 14  Conv=0.32D-08     -V/T= 2.0082
 SMD-CDS (non-electrostatic) energy       (kcal/mol) =       4.17
 (included in total energy above)

 **********************************************************************

            Population analysis using the SCF Density.

 **********************************************************************

 Orbital symmetries:
       Occupied  (A) (A) (A) (A) (A) (A) (A) (A) (A) (A) (A) (A)
                 (A) (A) (A) (A) (A) (A) (A) (A) (A) (A) (A) (A)
                 (A) (A) (A) (A) (A) (A) (A) (A) (A) (A)
       Virtual   (A) (A) (A) (A) (A) (A) (A) (A) (A) (A) (A) (A)
                 (A) (A) (A) (A) (A) (A) (A) (A) (A) (A) (A) (A)
                 (A) (A) (A) (A) (A) (A) (A) (A) (A) (A) (A) (A)
                 (A) (A) (A) (A) (A) (A) (A) (A) (A) (A) (A) (A)
                 (A) (A) (A) (A) (A) (A) (A) (A) (A) (A) (A) (A)
                 (A) (A) (A) (A) (A) (A) (A) (A) (A) (A) (A) (A)
                 (A) (A) (A) (A) (A) (A) (A) (A) (A) (A) (A) (A)
                 (A) (A) (A) (A) (A) (A) (A) (A) (A) (A) (A) (A)
                 (A) (A) (A) (A) (A) (A) (A) (A) (A) (A) (A) (A)
                 (A) (A) (A) (A) (A) (A) (A) (A) (A) (A) (A) (A)
                 (A) (A) (A) (A) (A) (A) (A) (A) (A) (A) (A) (A)
                 (A) (A) (A) (A) (A) (A) (A) (A) (A) (A) (A) (A)
                 (A) (A) (A) (A) (A) (A) (A) (A) (A) (A) (A) (A)
                 (A)
 The electronic state is 1-A.
 Alpha  occ. eigenvalues --  -19.71086 -19.67818 -19.66615 -14.92090 -14.87590
 Alpha  occ. eigenvalues --  -14.84512 -14.82816 -10.76614 -10.63256  -1.31465
 Alpha  occ. eigenvalues --   -1.26691  -1.19195  -1.14890  -1.09196  -1.01945
 Alpha  occ. eigenvalues --   -0.82457  -0.77121  -0.74010  -0.69920  -0.62912
 Alpha  occ. eigenvalues --   -0.62800  -0.59376  -0.56597  -0.55770  -0.52138
 Alpha  occ. eigenvalues --   -0.48892  -0.47874  -0.43516  -0.42805  -0.41658
 Alpha  occ. eigenvalues --   -0.41519  -0.41328  -0.39033  -0.38192
 Alpha virt. eigenvalues --   -0.03796   0.01592   0.03866   0.03937   0.04191
 Alpha virt. eigenvalues --    0.05508   0.06114   0.06438   0.07803   0.08919
 Alpha virt. eigenvalues --    0.09257   0.10421   0.12547   0.13916   0.15200
 Alpha virt. eigenvalues --    0.17374   0.18400   0.19211   0.19819   0.20135
 Alpha virt. eigenvalues --    0.20847   0.20890   0.21608   0.22109   0.23085
 Alpha virt. eigenvalues --    0.24111   0.24695   0.25781   0.26468   0.26993
 Alpha virt. eigenvalues --    0.27588   0.28546   0.28708   0.29468   0.29608
 Alpha virt. eigenvalues --    0.31083   0.31995   0.32747   0.34097   0.34888
 Alpha virt. eigenvalues --    0.36037   0.36365   0.38428   0.40916   0.42970
 Alpha virt. eigenvalues --    0.44822   0.45092   0.46965   0.48422   0.53063
 Alpha virt. eigenvalues --    0.62356   0.71504   0.77444   0.79552   0.82244
 Alpha virt. eigenvalues --    0.85469   0.89124   0.90980   0.93043   0.94706
 Alpha virt. eigenvalues --    0.95193   0.96582   0.97229   0.98598   0.99864
 Alpha virt. eigenvalues --    1.01496   1.04321   1.06249   1.10110   1.13102
 Alpha virt. eigenvalues --    1.16675   1.17989   1.18681   1.20659   1.21892
 Alpha virt. eigenvalues --    1.23499   1.24780   1.25636   1.29274   1.29883
 Alpha virt. eigenvalues --    1.31204   1.34466   1.35173   1.37168   1.38223
 Alpha virt. eigenvalues --    1.39582   1.40067   1.42516   1.45166   1.46753
 Alpha virt. eigenvalues --    1.47593   1.53402   1.57461   1.57477   1.59425
 Alpha virt. eigenvalues --    1.60471   1.63978   1.66467   1.70279   1.72614
 Alpha virt. eigenvalues --    1.77895   1.81796   1.86430   1.90965   1.91711
 Alpha virt. eigenvalues --    1.95046   1.97717   1.98900   2.02294   2.09811
 Alpha virt. eigenvalues --    2.12934   2.18069   2.19321   2.24620   2.25797
 Alpha virt. eigenvalues --    2.28191   2.28397   2.34887   2.35511   2.41417
 Alpha virt. eigenvalues --    2.47755   2.49025   2.51349   2.58085   2.60466
 Alpha virt. eigenvalues --    2.62194   2.63152   2.63525   2.66167   2.69000
 Alpha virt. eigenvalues --    2.73281   2.74473   2.76118   2.77866   2.81913
 Alpha virt. eigenvalues --    2.86892   2.90933   2.99291   3.00608   3.04262
 Alpha virt. eigenvalues --    3.10762   3.17567   3.24238   3.31305   3.46640
 Alpha virt. eigenvalues --    3.54425   3.61167   3.71130   3.97359   4.02529
 Alpha virt. eigenvalues --    4.19468   4.24733   4.31124   4.36122   4.51059
 Alpha virt. eigenvalues --    4.54587   4.86306
          Condensed to atoms (all electrons):
               1          2          3          4          5          6
     1  N    7.543842  -0.095624  -0.349155  -0.025044   0.352520   0.048150
     2  N   -0.095624   7.785178  -0.717419   0.221662  -0.226186   0.015915
     3  N   -0.349155  -0.717419   8.094916  -0.052731   0.167712  -0.012452
     4  N   -0.025044   0.221662  -0.052731   6.901796   0.242415   0.003927
     5  C    0.352520  -0.226186   0.167712   0.242415   5.071238  -0.016785
     6  C    0.048150   0.015915  -0.012452   0.003927  -0.016785   4.373145
     7  O   -0.000979  -0.036477  -0.049458   0.012911  -0.007062   0.479789
     8  O   -0.098755  -0.005677   0.007293   0.003491  -0.009859   0.292004
     9  H   -0.000622   0.000940   0.000215  -0.000069   0.000193  -0.000355
    10  H   -0.062340   0.009652  -0.005290  -0.033209   0.426019   0.000226
    11  O    0.014351  -0.016745  -0.003445   0.000318  -0.005148   0.008318
    12  H   -0.007236   0.011214   0.001554  -0.000687   0.000782  -0.001087
    13  H    0.019133  -0.003090   0.001352  -0.001706   0.003177  -0.008711
               7          8          9         10         11         12
     1  N   -0.000979  -0.098755  -0.000622  -0.062340   0.014351  -0.007236
     2  N   -0.036477  -0.005677   0.000940   0.009652  -0.016745   0.011214
     3  N   -0.049458   0.007293   0.000215  -0.005290  -0.003445   0.001554
     4  N    0.012911   0.003491  -0.000069  -0.033209   0.000318  -0.000687
     5  C   -0.007062  -0.009859   0.000193   0.426019  -0.005148   0.000782
     6  C    0.479789   0.292004  -0.000355   0.000226   0.008318  -0.001087
     7  O    8.154665  -0.076900   0.000016   0.000006  -0.001671   0.000075
     8  O   -0.076900   8.262988   0.001075   0.000007  -0.030762   0.000697
     9  H    0.000016   0.001075   0.273883  -0.000001   0.290674  -0.014545
    10  H    0.000006   0.000007  -0.000001   0.413155  -0.000215  -0.000006
    11  O   -0.001671  -0.030762   0.290674  -0.000215   8.259953   0.278324
    12  H    0.000075   0.000697  -0.014545  -0.000006   0.278324   0.278273
    13  H    0.005348   0.197957  -0.002361   0.000001   0.040272  -0.003235
              13
     1  N    0.019133
     2  N   -0.003090
     3  N    0.001352
     4  N   -0.001706
     5  C    0.003177
     6  C   -0.008711
     7  O    0.005348
     8  O    0.197957
     9  H   -0.002361
    10  H    0.000001
    11  O    0.040272
    12  H   -0.003235
    13  H    0.233794
 Mulliken charges:
               1
     1  N   -0.338239
     2  N    0.056655
     3  N   -0.083092
     4  N   -0.273072
     5  C    0.000983
     6  C    0.817914
     7  O   -0.480262
     8  O   -0.543560
     9  H    0.450958
    10  H    0.251995
    11  O   -0.834225
    12  H    0.455878
    13  H    0.518069
 Sum of Mulliken charges =  -0.00000
 Mulliken charges with hydrogens summed into heavy atoms:
               1
     1  N   -0.338239
     2  N    0.056655
     3  N   -0.083092
     4  N   -0.273072
     5  C    0.252977
     6  C    0.817914
     7  O   -0.480262
     8  O   -0.025491
    11  O    0.072611
 Electronic spatial extent (au):  <R**2>=           1199.7306
 Charge=             -0.0000 electrons
 Dipole moment (field-independent basis, Debye):
    X=             -3.6364    Y=             -8.3955    Z=              1.6892  Tot=              9.3039
 Quadrupole moment (field-independent basis, Debye-Ang):
   XX=            -54.7560   YY=            -51.6110   ZZ=            -50.6260
   XY=              3.0595   XZ=             -4.9964   YZ=             -3.5775
 Traceless Quadrupole moment (field-independent basis, Debye-Ang):
   XX=             -2.4250   YY=              0.7200   ZZ=              1.7050
   XY=              3.0595   XZ=             -4.9964   YZ=             -3.5775
 Octapole moment (field-independent basis, Debye-Ang**2):
  XXX=            -76.5661  YYY=            -66.8007  ZZZ=              1.2728  XYY=             -8.0442
  XXY=            -28.9508  XXZ=             16.6997  XZZ=             -5.9047  YZZ=              1.3664
  YYZ=              6.8242  XYZ=              9.9526
 Hexadecapole moment (field-independent basis, Debye-Ang**3):
 XXXX=           -810.8040 YYYY=           -600.5473 ZZZZ=            -46.8664 XXXY=             93.3373
 XXXZ=            -51.8736 YYYX=             16.7999 YYYZ=            -16.2805 ZZZX=             -3.8729
 ZZZY=             -2.4760 XXYY=           -193.2034 XXZZ=           -145.2906 YYZZ=           -108.5318
 XXYZ=            -31.4271 YYXZ=            -19.9966 ZZXY=              5.3386
 N-N= 4.581825768655D+02 E-N=-2.139995100207D+03  KE= 5.188367355794D+02
 D1PCM: PCM CHGder 1st derivatives, ID1Alg=3 FixD1E=F DoIter=F DoCFld=F I1PDM=0.
 Calling FoFJK, ICntrl=      2127 FMM=F ISym2X=0 I1Cent= 0 IOpClX= 0 NMat=1 NMatS=1 NMatT=0.
 ***** Axes restored to original set *****
 -------------------------------------------------------------------
 Center     Atomic                   Forces (Hartrees/Bohr)
 Number     Number              X              Y              Z
 -------------------------------------------------------------------
      1        7           0.002859584    0.004386975   -0.000403930
      2        7          -0.000214124   -0.000912856   -0.000051839
      3        7          -0.002824754    0.002102253    0.000082940
      4        7          -0.000831187    0.000969981   -0.000073904
      5        6          -0.005008212   -0.000984921    0.000159901
      6        6           0.007709515   -0.027174035   -0.000303467
      7        8          -0.003202129    0.016195411    0.000171942
      8        8           0.000970437    0.014669956   -0.000250623
      9        1          -0.000070411   -0.001505075    0.003708252
     10        1          -0.000273337   -0.000143241    0.000105298
     11        8          -0.000494168    0.007191433   -0.007468670
     12        1          -0.000013057   -0.003259673    0.002709583
     13        1           0.001391844   -0.011536208    0.001614518
 -------------------------------------------------------------------
 Cartesian Forces:  Max     0.027174035 RMS     0.006474401

 GradGradGradGradGradGradGradGradGradGradGradGradGradGradGradGradGradGrad
 Berny optimization.
 FormGI is forming the generalized inverse of G from B-inverse, IUseBI=4.
 Internal  Forces:  Max     0.016420439 RMS     0.004033477
 Search for a local minimum.
 Step number   1 out of a maximum of   59
 All quantities printed in internal units (Hartrees-Bohrs-Radians)
 Mixed Optimization -- RFO/linear search
 Second derivative matrix not updated -- first step.
 ITU=  0
     Eigenvalues ---    0.00230   0.00230   0.00230   0.00764   0.01524
     Eigenvalues ---    0.01585   0.02328   0.02475   0.02545   0.02948
     Eigenvalues ---    0.04566   0.08708   0.12646   0.16000   0.16000
     Eigenvalues ---    0.16000   0.23493   0.25000   0.25000   0.25000
     Eigenvalues ---    0.25000   0.35724   0.36160   0.47684   0.48524
     Eigenvalues ---    0.54242   0.54852   0.56237   0.57201   0.61511
     Eigenvalues ---    0.65888   0.67251   1.10259
 RFO step:  Lambda=-6.05105907D-03 EMin= 2.30000000D-03
 Linear search not attempted -- first point.
 Maximum step size (   0.300) exceeded in Quadratic search.
    -- Step size scaled by   0.435
 Iteration  1 RMS(Cart)=  0.16222820 RMS(Int)=  0.01823488
 Iteration  2 RMS(Cart)=  0.07676632 RMS(Int)=  0.00231306
 Iteration  3 RMS(Cart)=  0.00370429 RMS(Int)=  0.00027947
 Iteration  4 RMS(Cart)=  0.00000391 RMS(Int)=  0.00027946
 Iteration  5 RMS(Cart)=  0.00000000 RMS(Int)=  0.00027946
 Variable       Old X    -DE/DX   Delta X   Delta X   Delta X     New X
                                 (Linear)    (Quad)   (Total)
    R1        2.51351  -0.00482   0.00000  -0.00375  -0.00375   2.50976
    R2        2.48979  -0.00489   0.00000  -0.00344  -0.00344   2.48635
    R3        2.50211  -0.00225   0.00000  -0.00167  -0.00167   2.50044
    R4        2.77816  -0.00794   0.00000  -0.00951  -0.00951   2.76865
    R5        2.44282  -0.00079   0.00000  -0.00031  -0.00031   2.44251
    R6        2.56449   0.00130   0.00000   0.00127   0.00127   2.56576
    R7        2.03832  -0.00004   0.00000  -0.00004  -0.00004   2.03828
    R8        2.24791   0.01642   0.00000   0.00644   0.00644   2.25435
    R9        2.46564  -0.00507   0.00000  -0.00331  -0.00332   2.46233
   R10        1.88976   0.00905   0.00000   0.00814   0.00816   1.89793
   R11        1.81963   0.00306   0.00000   0.00240   0.00240   1.82203
   R12        1.82512   0.00121   0.00000   0.00096   0.00096   1.82608
   R13        3.06248  -0.00241   0.00000  -0.01125  -0.01126   3.05121
    A1        1.77328  -0.00020   0.00000  -0.00150  -0.00150   1.77178
    A2        1.97863   0.00316   0.00000   0.00467   0.00467   1.98330
    A3        2.18917   0.00068   0.00000   0.00150   0.00149   2.19067
    A4        2.11538  -0.00383   0.00000  -0.00617  -0.00617   2.10921
    A5        1.85922  -0.00260   0.00000  -0.00401  -0.00401   1.85520
    A6        1.85633  -0.00023   0.00000   0.00086   0.00086   1.85719
    A7        1.95732  -0.00012   0.00000  -0.00001  -0.00001   1.95730
    A8        2.16286  -0.00025   0.00000  -0.00081  -0.00081   2.16205
    A9        2.16301   0.00037   0.00000   0.00082   0.00083   2.16383
   A10        2.07424  -0.00248   0.00000  -0.00422  -0.00422   2.07002
   A11        1.99328   0.00881   0.00000   0.01498   0.01497   2.00826
   A12        2.21566  -0.00633   0.00000  -0.01075  -0.01075   2.20491
   A13        2.08683   0.00795   0.00000   0.02085   0.02085   2.10768
   A14        1.89984  -0.00387   0.00000  -0.01539  -0.01446   1.88538
   A15        2.13608  -0.00099   0.00000  -0.00679  -0.00687   2.12921
   A16        1.76972   0.00333   0.00000   0.00498   0.00535   1.77507
   A17        3.34130   0.00581   0.00000   0.29405   0.29416   3.63545
   A18        3.11539   0.00120   0.00000   0.04430   0.04467   3.16006
    D1       -0.00043   0.00006   0.00000   0.00090   0.00089   0.00046
    D2        3.13940   0.00007   0.00000   0.00104   0.00105   3.14046
    D3        0.00051  -0.00008   0.00000  -0.00110  -0.00109  -0.00058
    D4       -3.14048  -0.00006   0.00000  -0.00089  -0.00088  -3.14136
    D5        0.00019  -0.00002   0.00000  -0.00036  -0.00036  -0.00017
    D6       -3.13973  -0.00004   0.00000  -0.00051  -0.00052  -3.14025
    D7        3.09862   0.00019   0.00000   0.00524   0.00520   3.10381
    D8       -0.03927  -0.00007   0.00000  -0.00029  -0.00030  -0.03958
    D9       -0.04487   0.00021   0.00000   0.00541   0.00538  -0.03948
   D10        3.10043  -0.00005   0.00000  -0.00012  -0.00012   3.10031
   D11        0.00014  -0.00003   0.00000  -0.00034  -0.00034  -0.00020
   D12       -0.00043   0.00007   0.00000   0.00095   0.00095   0.00052
   D13        3.14056   0.00005   0.00000   0.00073   0.00074   3.14129
   D14       -0.02198   0.00039   0.00000   0.00646   0.00634  -0.01565
   D15        3.12366   0.00009   0.00000   0.00039   0.00032   3.12399
   D16        2.38306  -0.00057   0.00000   0.03746   0.03637   2.41942
   D17        0.24507   0.00139   0.00000   0.00864   0.00959   0.25466
   D18       -2.27345   0.00127   0.00000   0.01354   0.01279  -2.26065
         Item               Value     Threshold  Converged?
 Maximum Force            0.016420     0.000450     NO 
 RMS     Force            0.004033     0.000300     NO 
 Maximum Displacement     0.709141     0.001800     NO 
 RMS     Displacement     0.234062     0.001200     NO 
 Predicted change in Energy=-2.339235D-03
 GradGradGradGradGradGradGradGradGradGradGradGradGradGradGradGradGradGrad

                          Input orientation:                          
 ---------------------------------------------------------------------
 Center     Atomic      Atomic             Coordinates (Angstroms)
 Number     Number       Type             X           Y           Z
 ---------------------------------------------------------------------
      1          7           0        0.792456   -0.883359    0.039851
      2          7           0        0.430714    0.394138    0.007897
      3          7           0        1.452365    1.233805   -0.036583
      4          7           0        2.520423    0.505890   -0.034233
      5          6           0        2.104269   -0.785636    0.013032
      6          6           0       -0.948367    0.888698    0.016717
      7          8           0       -1.132377    2.067349    0.024256
      8          8           0       -1.866427   -0.035956    0.013297
      9          1           0       -2.656893   -2.968815    0.501148
     10          1           0        2.770720   -1.633615    0.026275
     11          8           0       -2.002184   -2.574179   -0.086441
     12          1           0       -1.150331   -2.995151    0.089357
     13          1           0       -1.616047   -1.008344   -0.008347
 ---------------------------------------------------------------------
                    Distance matrix (angstroms):
                    1          2          3          4          5
     1  N    0.000000
     2  N    1.328110   0.000000
     3  N    2.218943   1.323174   0.000000
     4  N    2.218416   2.093118   1.292522   0.000000
     5  C    1.315721   2.047603   2.122636   1.357740   0.000000
     6  C    2.484187   1.465105   2.425995   3.490220   3.481665
     7  O    3.523053   2.289794   2.716503   3.972973   4.314571
     8  O    2.790780   2.337064   3.553753   4.420441   4.040847
     9  H    4.057084   4.591957   5.902302   6.258179   5.260531
    10  H    2.115797   3.096408   3.156598   2.154946   1.078610
    11  O    3.268767   3.839114   5.141706   5.472068   4.480149
    12  H    2.869937   3.740805   4.967289   5.074150   3.934489
    13  H    2.412226   2.481220   3.800419   4.404992   3.727037
                    6          7          8          9         10
     6  C    0.000000
     7  O    1.192952   0.000000
     8  O    1.303009   2.227743   0.000000
     9  H    4.246662   5.283419   3.076442   0.000000
    10  H    4.493747   5.378782   4.904672   5.609567   0.000000
    11  O    3.621145   4.723621   2.543807   0.964179   4.866003
    12  H    3.889775   5.062950   3.045556   1.562048   4.151193
    13  H    2.011267   3.113661   1.004339   2.277365   4.431240
                   11         12         13
    11  O    0.000000
    12  H    0.966321   0.000000
    13  H    1.614633   2.042997   0.000000
 Stoichiometry    C2H4N4O3
 Framework group  C1[X(C2H4N4O3)]
 Deg. of freedom    33
 Full point group                 C1      NOp   1
 Largest Abelian subgroup         C1      NOp   1
 Largest concise Abelian subgroup C1      NOp   1
                         Standard orientation:                         
 ---------------------------------------------------------------------
 Center     Atomic      Atomic             Coordinates (Angstroms)
 Number     Number       Type             X           Y           Z
 ---------------------------------------------------------------------
      1          7           0        0.320224   -1.095588    0.040511
      2          7           0        0.578086    0.206816    0.006943
      3          7           0        1.869805    0.491015   -0.031569
      4          7           0        2.490925   -0.642456   -0.023489
      5          6           0        1.533526   -1.604154    0.021044
      6          6           0       -0.426154    1.273602    0.008223
      7          8           0       -0.055017    2.407332    0.015108
      8          8           0       -1.663916    0.866542   -0.000613
      9          1           0       -3.702264   -1.386639    0.481890
     10          1           0        1.742257   -2.662243    0.037738
     11          8           0       -2.936755   -1.333589   -0.101910
     12          1           0       -2.369799   -2.095026    0.078506
     13          1           0       -1.882201   -0.113574   -0.021168
 ---------------------------------------------------------------------
 Rotational constants (GHZ):           2.2610682           1.3260007           0.8370681
 Standard basis: 6-31+G(d,p) (6D, 7F)
 There are   191 symmetry adapted cartesian basis functions of A   symmetry.
 There are   191 symmetry adapted basis functions of A   symmetry.
   191 basis functions,   316 primitive gaussians,   191 cartesian basis functions
    34 alpha electrons       34 beta electrons
       nuclear repulsion energy       453.5007557515 Hartrees.
 NAtoms=   13 NActive=   13 NUniq=   13 SFac= 1.00D+00 NAtFMM=   60 NAOKFM=F Big=F
 Integral buffers will be    131072 words long.
 Raffenetti 2 integral format.
 Two-electron integral symmetry is turned on.
 ------------------------------------------------------------------------------
 Polarizable Continuum Model (PCM)
 =================================
 Model                : PCM.
 Atomic radii         : SMD-Coulomb.
 Polarization charges : Total charges.
 Charge compensation  : None.
 Solution method      : On-the-fly selection.
 Cavity type          : VdW (van der Waals Surface) (Alpha=1.000).
 Cavity algorithm     : GePol (No added spheres)
                        Default sphere list used, NSphG=   13.
                        Lebedev-Laikov grids with approx.  5.0 points / Ang**2.
                        Smoothing algorithm: York/Karplus (Gamma=1.0000).
                        Polarization charges: spherical gaussians, with
                                              point-specific exponents (IZeta= 3).
                        Self-potential: point-specific (ISelfS= 7).
                        Self-field    : sphere-specific E.n sum rule (ISelfD= 2).
 1st derivatives      : Analytical E(r).r(x)/FMM algorithm (CHGder, D1EAlg=3).
                        Cavity 1st derivative terms included.
 Solvent              : Water, Eps=  78.355300 Eps(inf)=   1.777849
 ------------------------------------------------------------------------------
 Spheres list:
 ISph  on   Nord     Re0    Alpha      Xe            Ye            Ze
    1   N      1    1.8900  1.000      0.320224     -1.095588      0.040511
    2   N      2    1.8900  1.000      0.578086      0.206816      0.006943
    3   N      3    1.8900  1.000      1.869805      0.491015     -0.031569
    4   N      4    1.8900  1.000      2.490925     -0.642456     -0.023489
    5   C      5    1.8500  1.000      1.533526     -1.604154      0.021044
    6   C      6    1.8500  1.000     -0.426154      1.273602      0.008223
    7   O      7    1.5200  1.000     -0.055017      2.407332      0.015108
    8   O      8    1.5200  1.000     -1.663916      0.866542     -0.000613
    9   H      9    1.2000  1.000     -3.702264     -1.386639      0.481890
   10   H     10    1.2000  1.000      1.742257     -2.662243      0.037738
   11   O     11    1.5200  1.000     -2.936755     -1.333589     -0.101910
   12   H     12    1.2000  1.000     -2.369799     -2.095026      0.078506
   13   H     13    1.2000  1.000     -1.882201     -0.113574     -0.021168
 ------------------------------------------------------------------------------
 ------------------------------------------------------------------------------
 Atomic radii for non-electrostatic terms: SMD-CDS.
 ------------------------------------------------------------------------------
 Nuclear repulsion after PCM non-electrostatic terms =      453.5071937693 Hartrees.
 One-electron integrals computed using PRISM.
 NBasis=   191 RedAO= T EigKep=  2.80D-05  NBF=   191
 NBsUse=   191 1.00D-06 EigRej= -1.00D+00 NBFU=   191
 Initial guess from the checkpoint file:  "/home/Tinker/g16/scratch/Gau-3522046.chk"
 B after Tr=     0.000000    0.000000   -0.000000
         Rot=    0.999721    0.000207   -0.000229    0.023635 Ang=   2.71 deg.
 ExpMin= 4.38D-02 ExpMax= 5.48D+03 ExpMxC= 8.25D+02 IAcc=3 IRadAn=         5 AccDes= 0.00D+00
 Harris functional with IExCor= 1009 and IRadAn=       5 diagonalized for initial guess.
 HarFok:  IExCor= 1009 AccDes= 0.00D+00 IRadAn=         5 IDoV= 1 UseB2=F ITyADJ=14
 ICtDFT=  3500011 ScaDFX=  1.000000  1.000000  1.000000  1.000000
 FoFCou: FMM=F IPFlag=           0 FMFlag=      100000 FMFlg1=           0
         NFxFlg=           0 DoJE=T BraDBF=F KetDBF=T FulRan=T
         wScrn=  0.000000 ICntrl=       500 IOpCl=  0 I1Cent=   200000004 NGrid=           0
         NMat0=    1 NMatS0=      1 NMatT0=    0 NMatD0=    1 NMtDS0=    0 NMtDT0=    0
 Petite list used in FoFCou.
 Requested convergence on RMS density matrix=1.00D-08 within 128 cycles.
 Requested convergence on MAX density matrix=1.00D-06.
 Requested convergence on             energy=1.00D-06.
 No special actions if energy rises.
 Inv3:  Mode=1 IEnd=     4120752.
 Iteration    1 A*A^-1 deviation from unit magnitude is 3.33D-15 for   1146.
 Iteration    1 A*A^-1 deviation from orthogonality  is 1.99D-15 for   1170   1003.
 Iteration    1 A^-1*A deviation from unit magnitude is 3.11D-15 for   1146.
 Iteration    1 A^-1*A deviation from orthogonality  is 2.00D-15 for    836    577.
 Error on total polarization charges =  0.03637
 SCF Done:  E(RM062X) =  -523.108844452     A.U. after   12 cycles
            NFock= 12  Conv=0.93D-08     -V/T= 2.0083
 SMD-CDS (non-electrostatic) energy       (kcal/mol) =       4.04
 (included in total energy above)
 D1PCM: PCM CHGder 1st derivatives, ID1Alg=3 FixD1E=F DoIter=F DoCFld=F I1PDM=0.
 Calling FoFJK, ICntrl=      2127 FMM=F ISym2X=0 I1Cent= 0 IOpClX= 0 NMat=1 NMatS=1 NMatT=0.
 ***** Axes restored to original set *****
 -------------------------------------------------------------------
 Center     Atomic                   Forces (Hartrees/Bohr)
 Number     Number              X              Y              Z
 -------------------------------------------------------------------
      1        7          -0.002747467    0.001226333   -0.000287416
      2        7          -0.001942253   -0.001164381   -0.000015307
      3        7          -0.001166161    0.001130721    0.000132243
      4        7           0.000208218    0.000944523   -0.000020568
      5        6          -0.003875989   -0.000956130    0.000075583
      6        6           0.007108196   -0.019932459   -0.000583208
      7        8          -0.003453106    0.012818348    0.000196580
      8        8           0.004255261    0.011769861    0.000169053
      9        1           0.000568120   -0.000708446    0.003665302
     10        1          -0.000160024    0.000097880    0.000058551
     11        8           0.007197613    0.004684483   -0.006499936
     12        1          -0.001553085   -0.005000407    0.002195548
     13        1          -0.004439323   -0.004910328    0.000913576
 -------------------------------------------------------------------
 Cartesian Forces:  Max     0.019932459 RMS     0.005119328

 GradGradGradGradGradGradGradGradGradGradGradGradGradGradGradGradGradGrad
 Berny optimization.
 Using GEDIIS/GDIIS optimizer.
 FormGI is forming the generalized inverse of G from B-inverse, IUseBI=4.
 Internal  Forces:  Max     0.013197598 RMS     0.004415566
 Search for a local minimum.
 Step number   2 out of a maximum of   59
 All quantities printed in internal units (Hartrees-Bohrs-Radians)
 Mixed Optimization -- RFO/linear search
 Update second derivatives using D2CorX and points    2    1
 DE=  1.37D-03 DEPred=-2.34D-03 R=-5.86D-01
 Trust test=-5.86D-01 RLast= 3.03D-01 DXMaxT set to 1.50D-01
 ITU= -1  0
 Use linear search instead of GDIIS.
     Eigenvalues ---    0.00226   0.00230   0.00763   0.01526   0.01562
     Eigenvalues ---    0.02324   0.02376   0.02483   0.02545   0.02935
     Eigenvalues ---    0.04430   0.08500   0.12756   0.13951   0.16000
     Eigenvalues ---    0.18794   0.22859   0.23582   0.25000   0.25000
     Eigenvalues ---    0.30557   0.36159   0.39086   0.45420   0.48494
     Eigenvalues ---    0.54176   0.54579   0.55808   0.57055   0.61206
     Eigenvalues ---    0.65856   0.67192   1.03333
 RFO step:  Lambda=-3.28794443D-03 EMin= 2.26210119D-03
 Quartic linear search produced a step of -0.76487.
 Maximum step size (   0.150) exceeded in Quadratic search.
    -- Step size scaled by   0.620
 Iteration  1 RMS(Cart)=  0.09019010 RMS(Int)=  0.01908754
 Iteration  2 RMS(Cart)=  0.08909264 RMS(Int)=  0.00295437
 Iteration  3 RMS(Cart)=  0.00413225 RMS(Int)=  0.00000758
 Iteration  4 RMS(Cart)=  0.00000194 RMS(Int)=  0.00000723
 Iteration  5 RMS(Cart)=  0.00000000 RMS(Int)=  0.00000723
 Variable       Old X    -DE/DX   Delta X   Delta X   Delta X     New X
                                 (Linear)    (Quad)   (Total)
    R1        2.50976  -0.00353   0.00287  -0.01064  -0.00777   2.50199
    R2        2.48635  -0.00295   0.00263  -0.00960  -0.00697   2.47938
    R3        2.50044  -0.00126   0.00128  -0.00465  -0.00336   2.49707
    R4        2.76865  -0.00956   0.00727  -0.02854  -0.02127   2.74738
    R5        2.44251  -0.00027   0.00024  -0.00081  -0.00057   2.44194
    R6        2.56576   0.00189  -0.00097   0.00388   0.00290   2.56866
    R7        2.03828  -0.00018   0.00003  -0.00019  -0.00015   2.03812
    R8        2.25435   0.01320  -0.00493   0.01850   0.01357   2.26793
    R9        2.46233  -0.00839   0.00254  -0.01054  -0.00800   2.45433
   R10        1.89793   0.00623  -0.00624   0.02296   0.01672   1.91464
   R11        1.82203   0.00212  -0.00184   0.00677   0.00494   1.82697
   R12        1.82608   0.00121  -0.00074   0.00282   0.00209   1.82817
   R13        3.05121  -0.00046   0.00861  -0.02857  -0.01995   3.03126
    A1        1.77178  -0.00157   0.00115  -0.00515  -0.00400   1.76778
    A2        1.98330   0.00404  -0.00357   0.01422   0.01065   1.99396
    A3        2.19067  -0.00693  -0.00114  -0.00045  -0.00160   2.18907
    A4        2.10921   0.00289   0.00472  -0.01377  -0.00906   2.10016
    A5        1.85520  -0.00281   0.00307  -0.01190  -0.00882   1.84639
    A6        1.85719  -0.00028  -0.00066   0.00235   0.00168   1.85888
    A7        1.95730   0.00063   0.00001   0.00047   0.00047   1.95778
    A8        2.16205  -0.00038   0.00062  -0.00236  -0.00173   2.16032
    A9        2.16383  -0.00025  -0.00063   0.00188   0.00126   2.16509
   A10        2.07002   0.00624   0.00323  -0.00682  -0.00359   2.06643
   A11        2.00826  -0.00923  -0.01145   0.03228   0.02083   2.02909
   A12        2.20491   0.00299   0.00822  -0.02548  -0.01726   2.18765
   A13        2.10768  -0.01171  -0.01595   0.04111   0.02517   2.13285
   A14        1.88538  -0.00397   0.01106  -0.04108  -0.03002   1.85536
   A15        2.12921  -0.00233   0.00525  -0.01982  -0.01459   2.11462
   A16        1.77507   0.00675  -0.00409   0.01992   0.01582   1.79089
   A17        3.63545  -0.01109  -0.22499  -0.10461  -0.32961   3.30585
   A18        3.16006   0.00076  -0.03417   0.04619   0.01203   3.17209
    D1        0.00046   0.00001  -0.00068   0.00212   0.00144   0.00191
    D2        3.14046   0.00003  -0.00081   0.00227   0.00147  -3.14126
    D3       -0.00058   0.00000   0.00084  -0.00249  -0.00165  -0.00223
    D4       -3.14136  -0.00003   0.00068  -0.00216  -0.00148   3.14035
    D5       -0.00017  -0.00001   0.00027  -0.00097  -0.00069  -0.00086
    D6       -3.14025  -0.00002   0.00040  -0.00112  -0.00072  -3.14097
    D7        3.10381  -0.00002  -0.00397   0.01177   0.00780   3.11162
    D8       -0.03958   0.00035   0.00023   0.00286   0.00309  -0.03649
    D9       -0.03948   0.00001  -0.00412   0.01196   0.00784  -0.03164
   D10        3.10031   0.00038   0.00009   0.00304   0.00313   3.10344
   D11       -0.00020   0.00001   0.00026  -0.00064  -0.00038  -0.00058
   D12        0.00052  -0.00001  -0.00073   0.00207   0.00135   0.00187
   D13        3.14129   0.00002  -0.00056   0.00174   0.00118  -3.14071
   D14       -0.01565  -0.00015  -0.00485   0.01377   0.00892  -0.00673
   D15        3.12399   0.00026  -0.00025   0.00409   0.00385   3.12784
   D16        2.41942  -0.00134  -0.02782  -0.01149  -0.03932   2.38011
   D17        0.25466   0.00093  -0.00734   0.04052   0.03319   0.28785
   D18       -2.26065   0.00088  -0.00979   0.03366   0.02384  -2.23681
         Item               Value     Threshold  Converged?
 Maximum Force            0.013198     0.000450     NO 
 RMS     Force            0.004416     0.000300     NO 
 Maximum Displacement     0.546375     0.001800     NO 
 RMS     Displacement     0.177781     0.001200     NO 
 Predicted change in Energy=-5.340922D-04
 GradGradGradGradGradGradGradGradGradGradGradGradGradGradGradGradGradGrad

                          Input orientation:                          
 ---------------------------------------------------------------------
 Center     Atomic      Atomic             Coordinates (Angstroms)
 Number     Number       Type             X           Y           Z
 ---------------------------------------------------------------------
      1          7           0        0.671866   -0.920366    0.032251
      2          7           0        0.376825    0.370102    0.007533
      3          7           0        1.430337    1.167070   -0.024677
      4          7           0        2.461078    0.387723   -0.020365
      5          6           0        1.983298   -0.884298    0.015919
      6          6           0       -0.965794    0.927806    0.011643
      7          8           0       -1.087905    2.121692    0.018587
      8          8           0       -1.943245    0.072666   -0.000203
      9          1           0       -2.367764   -3.056260    0.475836
     10          1           0        2.607540   -1.763717    0.028865
     11          8           0       -1.796094   -2.529897   -0.099334
     12          1           0       -0.886738   -2.759747    0.137629
     13          1           0       -1.785083   -0.927950   -0.017457
 ---------------------------------------------------------------------
                    Distance matrix (angstroms):
                    1          2          3          4          5
     1  N    0.000000
     2  N    1.323997   0.000000
     3  N    2.221691   1.321394   0.000000
     4  N    2.217013   2.084514   1.292218   0.000000
     5  C    1.312030   2.038221   2.124977   1.359275   0.000000
     6  C    2.469432   1.453849   2.408321   3.469317   3.461341
     7  O    3.514413   2.283336   2.693458   3.950119   4.297473
     8  O    2.797493   2.339071   3.546741   4.415623   4.041507
     9  H    3.741411   4.414978   5.701983   5.951886   4.884740
    10  H    2.111419   3.087026   3.158827   2.156982   1.078529
    11  O    2.949361   3.625326   4.907443   5.161614   4.123722
    12  H    2.413229   3.377791   4.562354   4.597761   3.430631
    13  H    2.457463   2.521787   3.837719   4.445321   3.768781
                    6          7          8          9         10
     6  C    0.000000
     7  O    1.200134   0.000000
     8  O    1.298774   2.220465   0.000000
     9  H    4.248974   5.353345   3.193276   0.000000
    10  H    4.473624   5.362166   4.907422   5.159855   0.000000
    11  O    3.557727   4.706667   2.608604   0.966792   4.471629
    12  H    3.690552   4.887033   3.026181   1.547819   3.635091
    13  H    2.028771   3.128525   1.013186   2.261097   4.471665
                   11         12         13
    11  O    0.000000
    12  H    0.967425   0.000000
    13  H    1.604076   2.046108   0.000000
 Stoichiometry    C2H4N4O3
 Framework group  C1[X(C2H4N4O3)]
 Deg. of freedom    33
 Full point group                 C1      NOp   1
 Largest Abelian subgroup         C1      NOp   1
 Largest concise Abelian subgroup C1      NOp   1
                         Standard orientation:                         
 ---------------------------------------------------------------------
 Center     Atomic      Atomic             Coordinates (Angstroms)
 Number     Number       Type             X           Y           Z
 ---------------------------------------------------------------------
      1          7           0        0.240058   -1.070402    0.031551
      2          7           0        0.528887    0.221460    0.006310
      3          7           0        1.822810    0.487680   -0.024919
      4          7           0        2.418023   -0.659280   -0.019391
      5          6           0        1.439467   -1.602021    0.016597
      6          6           0       -0.443227    1.302509    0.008911
      7          8           0       -0.039865    2.432809    0.015531
      8          8           0       -1.693472    0.951028   -0.003827
      9          1           0       -3.423165   -1.690657    0.472278
     10          1           0        1.624661   -2.664442    0.030346
     11          8           0       -2.680152   -1.461764   -0.102375
     12          1           0       -1.958333   -2.060314    0.135585
     13          1           0       -1.981137   -0.020315   -0.020750
 ---------------------------------------------------------------------
 Rotational constants (GHZ):           2.1528263           1.4694397           0.8746357
 Standard basis: 6-31+G(d,p) (6D, 7F)
 There are   191 symmetry adapted cartesian basis functions of A   symmetry.
 There are   191 symmetry adapted basis functions of A   symmetry.
   191 basis functions,   316 primitive gaussians,   191 cartesian basis functions
    34 alpha electrons       34 beta electrons
       nuclear repulsion energy       457.3727079111 Hartrees.
 NAtoms=   13 NActive=   13 NUniq=   13 SFac= 1.00D+00 NAtFMM=   60 NAOKFM=F Big=F
 Integral buffers will be    131072 words long.
 Raffenetti 2 integral format.
 Two-electron integral symmetry is turned on.
 ------------------------------------------------------------------------------
 Polarizable Continuum Model (PCM)
 =================================
 Model                : PCM.
 Atomic radii         : SMD-Coulomb.
 Polarization charges : Total charges.
 Charge compensation  : None.
 Solution method      : On-the-fly selection.
 Cavity type          : VdW (van der Waals Surface) (Alpha=1.000).
 Cavity algorithm     : GePol (No added spheres)
                        Default sphere list used, NSphG=   13.
                        Lebedev-Laikov grids with approx.  5.0 points / Ang**2.
                        Smoothing algorithm: York/Karplus (Gamma=1.0000).
                        Polarization charges: spherical gaussians, with
                                              point-specific exponents (IZeta= 3).
                        Self-potential: point-specific (ISelfS= 7).
                        Self-field    : sphere-specific E.n sum rule (ISelfD= 2).
 1st derivatives      : Analytical E(r).r(x)/FMM algorithm (CHGder, D1EAlg=3).
                        Cavity 1st derivative terms included.
 Solvent              : Water, Eps=  78.355300 Eps(inf)=   1.777849
 ------------------------------------------------------------------------------
 Spheres list:
 ISph  on   Nord     Re0    Alpha      Xe            Ye            Ze
    1   N      1    1.8900  1.000      0.240058     -1.070402      0.031551
    2   N      2    1.8900  1.000      0.528887      0.221460      0.006310
    3   N      3    1.8900  1.000      1.822810      0.487680     -0.024919
    4   N      4    1.8900  1.000      2.418023     -0.659280     -0.019391
    5   C      5    1.8500  1.000      1.439467     -1.602021      0.016597
    6   C      6    1.8500  1.000     -0.443227      1.302509      0.008911
    7   O      7    1.5200  1.000     -0.039865      2.432809      0.015531
    8   O      8    1.5200  1.000     -1.693472      0.951028     -0.003827
    9   H      9    1.2000  1.000     -3.423165     -1.690657      0.472278
   10   H     10    1.2000  1.000      1.624661     -2.664442      0.030346
   11   O     11    1.5200  1.000     -2.680152     -1.461764     -0.102375
   12   H     12    1.2000  1.000     -1.958333     -2.060314      0.135585
   13   H     13    1.2000  1.000     -1.981137     -0.020315     -0.020750
 ------------------------------------------------------------------------------
 ------------------------------------------------------------------------------
 Atomic radii for non-electrostatic terms: SMD-CDS.
 ------------------------------------------------------------------------------
 Nuclear repulsion after PCM non-electrostatic terms =      457.3791369356 Hartrees.
 One-electron integrals computed using PRISM.
 NBasis=   191 RedAO= T EigKep=  2.50D-05  NBF=   191
 NBsUse=   191 1.00D-06 EigRej= -1.00D+00 NBFU=   191
 Lowest energy guess from the checkpoint file:  "/home/Tinker/g16/scratch/Gau-3522046.chk"
 B after Tr=     0.000000    0.000000   -0.000000
         Rot=    0.999864   -0.000130   -0.000109    0.016474 Ang=  -1.89 deg.
 B after Tr=     0.000000   -0.000000    0.000000
         Rot=    0.999974   -0.000205    0.000237   -0.007256 Ang=  -0.83 deg.
 Requested convergence on RMS density matrix=1.00D-08 within 128 cycles.
 Requested convergence on MAX density matrix=1.00D-06.
 Requested convergence on             energy=1.00D-06.
 No special actions if energy rises.
 Inv3:  Mode=1 IEnd=     3919347.
 Iteration    1 A*A^-1 deviation from unit magnitude is 3.66D-15 for   1135.
 Iteration    1 A*A^-1 deviation from orthogonality  is 2.12D-15 for   1134    599.
 Iteration    1 A^-1*A deviation from unit magnitude is 3.66D-15 for   1135.
 Iteration    1 A^-1*A deviation from orthogonality  is 1.57D-15 for    997    512.
 Error on total polarization charges =  0.03662
 SCF Done:  E(RM062X) =  -523.111128670     A.U. after   12 cycles
            NFock= 12  Conv=0.44D-08     -V/T= 2.0082
 SMD-CDS (non-electrostatic) energy       (kcal/mol) =       4.03
 (included in total energy above)
 D1PCM: PCM CHGder 1st derivatives, ID1Alg=3 FixD1E=F DoIter=F DoCFld=F I1PDM=0.
 Calling FoFJK, ICntrl=      2127 FMM=F ISym2X=0 I1Cent= 0 IOpClX= 0 NMat=1 NMatS=1 NMatT=0.
 ***** Axes restored to original set *****
 -------------------------------------------------------------------
 Center     Atomic                   Forces (Hartrees/Bohr)
 Number     Number              X              Y              Z
 -------------------------------------------------------------------
      1        7          -0.001620086    0.000285036    0.000188858
      2        7          -0.007856906    0.001612762    0.000001417
      3        7           0.001702642   -0.002578642    0.000170403
      4        7           0.002642680    0.000391441    0.000074063
      5        6           0.001209885   -0.000635207   -0.000169192
      6        6           0.001051570   -0.006933739   -0.001158183
      7        8          -0.001213949    0.004954586    0.000402005
      8        8          -0.000952522    0.001844935    0.000331761
      9        1          -0.000539914    0.001364324    0.001047594
     10        1           0.000286135    0.000242593   -0.000016027
     11        8           0.001275163    0.005151055   -0.001860260
     12        1           0.000632961   -0.001260220    0.000260819
     13        1           0.003382343   -0.004438925    0.000726742
 -------------------------------------------------------------------
 Cartesian Forces:  Max     0.007856906 RMS     0.002457632

 GradGradGradGradGradGradGradGradGradGradGradGradGradGradGradGradGradGrad
 Berny optimization.
 Using GEDIIS/GDIIS optimizer.
 FormGI is forming the generalized inverse of G from B-inverse, IUseBI=4.
 Internal  Forces:  Max     0.009439307 RMS     0.002580108
 Search for a local minimum.
 Step number   3 out of a maximum of   59
 All quantities printed in internal units (Hartrees-Bohrs-Radians)
 Mixed Optimization -- RFO/linear search
 Update second derivatives using D2CorX and points    2    1    3
 DE= -9.14D-04 DEPred=-5.34D-04 R= 1.71D+00
 TightC=F SS=  1.41D+00  RLast= 1.40D-01 DXNew= 2.5227D-01 4.1923D-01
 Trust test= 1.71D+00 RLast= 1.40D-01 DXMaxT set to 2.52D-01
 ITU=  1 -1  0
 Use linear search instead of GDIIS.
     Eigenvalues ---    0.00229   0.00233   0.00763   0.01531   0.01577
     Eigenvalues ---    0.02040   0.02327   0.02475   0.02545   0.02956
     Eigenvalues ---    0.04602   0.08276   0.12675   0.14580   0.16012
     Eigenvalues ---    0.18795   0.23487   0.24284   0.25000   0.27080
     Eigenvalues ---    0.31701   0.36160   0.42625   0.48424   0.49931
     Eigenvalues ---    0.54063   0.54768   0.56209   0.57293   0.62037
     Eigenvalues ---    0.65476   0.69112   1.00901
 RFO step:  Lambda=-1.10916865D-03 EMin= 2.29214016D-03
 Quartic linear search produced a step of -0.17178.
 Iteration  1 RMS(Cart)=  0.07774543 RMS(Int)=  0.00385948
 Iteration  2 RMS(Cart)=  0.00579901 RMS(Int)=  0.00007766
 Iteration  3 RMS(Cart)=  0.00001925 RMS(Int)=  0.00007592
 Iteration  4 RMS(Cart)=  0.00000000 RMS(Int)=  0.00007592
 Variable       Old X    -DE/DX   Delta X   Delta X   Delta X     New X
                                 (Linear)    (Quad)   (Total)
    R1        2.50199   0.00037   0.00198  -0.00575  -0.00377   2.49822
    R2        2.47938   0.00226   0.00179  -0.00283  -0.00104   2.47833
    R3        2.49707   0.00161   0.00087  -0.00065   0.00021   2.49728
    R4        2.74738  -0.00311   0.00529  -0.02385  -0.01856   2.72882
    R5        2.44194   0.00117   0.00015   0.00082   0.00097   2.44291
    R6        2.56866   0.00014  -0.00072   0.00250   0.00179   2.57045
    R7        2.03812  -0.00004   0.00003  -0.00020  -0.00017   2.03796
    R8        2.26793   0.00505  -0.00344   0.01448   0.01105   2.27897
    R9        2.45433  -0.00461   0.00194  -0.01185  -0.00990   2.44442
   R10        1.91464  -0.00005  -0.00427   0.01340   0.00912   1.92377
   R11        1.82697   0.00020  -0.00126   0.00427   0.00301   1.82998
   R12        1.82817   0.00096  -0.00052   0.00305   0.00253   1.83070
   R13        3.03126  -0.00522   0.00536  -0.06208  -0.05671   2.97455
    A1        1.76778   0.00126   0.00095   0.00077   0.00171   1.76949
    A2        1.99396  -0.00241  -0.00263   0.00124  -0.00140   1.99255
    A3        2.18907  -0.00221   0.00002  -0.00807  -0.00805   2.18102
    A4        2.10016   0.00462   0.00262   0.00684   0.00945   2.10961
    A5        1.84639   0.00240   0.00220   0.00031   0.00250   1.84889
    A6        1.85888  -0.00139  -0.00044  -0.00309  -0.00352   1.85536
    A7        1.95778   0.00014  -0.00008   0.00078   0.00071   1.95848
    A8        2.16032   0.00032   0.00044   0.00026   0.00069   2.16101
    A9        2.16509  -0.00046  -0.00036  -0.00104  -0.00140   2.16369
   A10        2.06643   0.00465   0.00134   0.01138   0.01262   2.07905
   A11        2.02909  -0.00768  -0.00615  -0.00664  -0.01289   2.01619
   A12        2.18765   0.00304   0.00481  -0.00459   0.00012   2.18777
   A13        2.13285  -0.00944  -0.00790  -0.02466  -0.03257   2.10028
   A14        1.85536  -0.00008   0.00764  -0.02609  -0.01867   1.83669
   A15        2.11462  -0.00209   0.00369  -0.02671  -0.02296   2.09166
   A16        1.79089   0.00218  -0.00364   0.02112   0.01739   1.80827
   A17        3.30585  -0.00018   0.00609   0.03093   0.03698   3.34283
   A18        3.17209   0.00042  -0.00974   0.15019   0.14037   3.31246
    D1        0.00191  -0.00010  -0.00040  -0.00253  -0.00293  -0.00103
    D2       -3.14126  -0.00001  -0.00043   0.00194   0.00148  -3.13978
    D3       -0.00223   0.00011   0.00047   0.00238   0.00285   0.00062
    D4        3.14035   0.00002   0.00041  -0.00040   0.00000   3.14035
    D5       -0.00086   0.00005   0.00018   0.00174   0.00192   0.00105
    D6       -3.14097  -0.00003   0.00021  -0.00247  -0.00228   3.13993
    D7        3.11162  -0.00028  -0.00223  -0.00419  -0.00646   3.10516
    D8       -0.03649   0.00032  -0.00048   0.01940   0.01896  -0.01753
    D9       -0.03164  -0.00019  -0.00227   0.00053  -0.00177  -0.03341
   D10        3.10344   0.00041  -0.00052   0.02412   0.02364   3.12708
   D11       -0.00058   0.00002   0.00012  -0.00012  -0.00000  -0.00058
   D12        0.00187  -0.00009  -0.00039  -0.00151  -0.00190  -0.00004
   D13       -3.14071   0.00000  -0.00033   0.00128   0.00095  -3.13976
   D14       -0.00673  -0.00040  -0.00262  -0.01014  -0.01268  -0.01941
   D15        3.12784   0.00024  -0.00072   0.01537   0.01459  -3.14076
   D16        2.38011   0.00013   0.00051  -0.00032   0.00044   2.38054
   D17        0.28785  -0.00030  -0.00735  -0.01279  -0.02038   0.26746
   D18       -2.23681   0.00127  -0.00629   0.03289   0.02680  -2.21001
         Item               Value     Threshold  Converged?
 Maximum Force            0.009439     0.000450     NO 
 RMS     Force            0.002580     0.000300     NO 
 Maximum Displacement     0.285680     0.001800     NO 
 RMS     Displacement     0.080070     0.001200     NO 
 Predicted change in Energy=-6.272955D-04
 GradGradGradGradGradGradGradGradGradGradGradGradGradGradGradGradGradGrad

                          Input orientation:                          
 ---------------------------------------------------------------------
 Center     Atomic      Atomic             Coordinates (Angstroms)
 Number     Number       Type             X           Y           Z
 ---------------------------------------------------------------------
      1          7           0        0.627084   -0.922183    0.081807
      2          7           0        0.353442    0.368814    0.003488
      3          7           0        1.420700    1.144347   -0.073211
      4          7           0        2.439729    0.349338   -0.046772
      5          6           0        1.938088   -0.911431    0.048214
      6          6           0       -0.975187    0.934459    0.001643
      7          8           0       -1.102706    2.133087   -0.035998
      8          8           0       -1.944600    0.080294    0.063847
      9          1           0       -2.258923   -3.045151    0.478965
     10          1           0        2.546930   -1.800455    0.092719
     11          8           0       -1.762510   -2.476755   -0.127883
     12          1           0       -0.834783   -2.731223   -0.013547
     13          1           0       -1.748943   -0.918317    0.092953
 ---------------------------------------------------------------------
                    Distance matrix (angstroms):
                    1          2          3          4          5
     1  N    0.000000
     2  N    1.322001   0.000000
     3  N    2.219099   1.321504   0.000000
     4  N    2.217878   2.086983   1.292733   0.000000
     5  C    1.311478   2.037677   2.123360   1.360222   0.000000
     6  C    2.453736   1.444027   2.406228   3.465021   3.449152
     7  O    3.512937   2.287922   2.710455   3.966198   4.303790
     8  O    2.760225   2.316869   3.532171   4.393969   4.007371
     9  H    3.604687   4.325008   5.603251   5.820335   4.727919
    10  H    2.111230   3.086273   3.157180   2.156980   1.078441
    11  O    2.858466   3.548489   4.821638   5.064800   4.021900
    12  H    2.327826   3.319999   4.484507   4.495931   3.317268
    13  H    2.376056   2.466725   3.785344   4.378521   3.687309
                    6          7          8          9         10
     6  C    0.000000
     7  O    1.205980   0.000000
     8  O    1.293533   2.220971   0.000000
     9  H    4.208695   5.330683   3.168522   0.000000
    10  H    4.460198   5.367417   4.869486   4.979426   0.000000
    11  O    3.503290   4.657728   2.570685   0.968382   4.367759
    12  H    3.668402   4.871735   3.023626   1.539252   3.509074
    13  H    2.009929   3.121749   1.018015   2.220925   4.385509
                   11         12         13
    11  O    0.000000
    12  H    0.968764   0.000000
    13  H    1.574066   2.033140   0.000000
 Stoichiometry    C2H4N4O3
 Framework group  C1[X(C2H4N4O3)]
 Deg. of freedom    33
 Full point group                 C1      NOp   1
 Largest Abelian subgroup         C1      NOp   1
 Largest concise Abelian subgroup C1      NOp   1
                         Standard orientation:                         
 ---------------------------------------------------------------------
 Center     Atomic      Atomic             Coordinates (Angstroms)
 Number     Number       Type             X           Y           Z
 ---------------------------------------------------------------------
      1          7           0        0.236335   -1.052393    0.076830
      2          7           0        0.510801    0.239035    0.009256
      3          7           0        1.801388    0.514976   -0.058686
      4          7           0        2.409741   -0.625466   -0.037274
      5          6           0        1.438955   -1.574614    0.045782
      6          6           0       -0.473732    1.295401    0.009860
      7          8           0       -0.103442    2.442799   -0.017569
      8          8           0       -1.706748    0.907982    0.062805
      9          1           0       -3.265064   -1.823539    0.450076
     10          1           0        1.634189   -2.634559    0.083673
     11          8           0       -2.577465   -1.501296   -0.150866
     12          1           0       -1.833558   -2.111334   -0.037019
     13          1           0       -1.933520   -0.084236    0.083571
 ---------------------------------------------------------------------
 Rotational constants (GHZ):           2.1500504           1.5162677           0.8917515
 Standard basis: 6-31+G(d,p) (6D, 7F)
 There are   191 symmetry adapted cartesian basis functions of A   symmetry.
 There are   191 symmetry adapted basis functions of A   symmetry.
   191 basis functions,   316 primitive gaussians,   191 cartesian basis functions
    34 alpha electrons       34 beta electrons
       nuclear repulsion energy       459.5527694448 Hartrees.
 NAtoms=   13 NActive=   13 NUniq=   13 SFac= 1.00D+00 NAtFMM=   60 NAOKFM=F Big=F
 Integral buffers will be    131072 words long.
 Raffenetti 2 integral format.
 Two-electron integral symmetry is turned on.
 ------------------------------------------------------------------------------
 Polarizable Continuum Model (PCM)
 =================================
 Model                : PCM.
 Atomic radii         : SMD-Coulomb.
 Polarization charges : Total charges.
 Charge compensation  : None.
 Solution method      : On-the-fly selection.
 Cavity type          : VdW (van der Waals Surface) (Alpha=1.000).
 Cavity algorithm     : GePol (No added spheres)
                        Default sphere list used, NSphG=   13.
                        Lebedev-Laikov grids with approx.  5.0 points / Ang**2.
                        Smoothing algorithm: York/Karplus (Gamma=1.0000).
                        Polarization charges: spherical gaussians, with
                                              point-specific exponents (IZeta= 3).
                        Self-potential: point-specific (ISelfS= 7).
                        Self-field    : sphere-specific E.n sum rule (ISelfD= 2).
 1st derivatives      : Analytical E(r).r(x)/FMM algorithm (CHGder, D1EAlg=3).
                        Cavity 1st derivative terms included.
 Solvent              : Water, Eps=  78.355300 Eps(inf)=   1.777849
 ------------------------------------------------------------------------------
 Spheres list:
 ISph  on   Nord     Re0    Alpha      Xe            Ye            Ze
    1   N      1    1.8900  1.000      0.236335     -1.052393      0.076830
    2   N      2    1.8900  1.000      0.510801      0.239035      0.009256
    3   N      3    1.8900  1.000      1.801388      0.514976     -0.058686
    4   N      4    1.8900  1.000      2.409741     -0.625466     -0.037274
    5   C      5    1.8500  1.000      1.438955     -1.574614      0.045782
    6   C      6    1.8500  1.000     -0.473732      1.295401      0.009860
    7   O      7    1.5200  1.000     -0.103442      2.442799     -0.017569
    8   O      8    1.5200  1.000     -1.706748      0.907982      0.062805
    9   H      9    1.2000  1.000     -3.265064     -1.823539      0.450076
   10   H     10    1.2000  1.000      1.634189     -2.634559      0.083673
   11   O     11    1.5200  1.000     -2.577465     -1.501296     -0.150866
   12   H     12    1.2000  1.000     -1.833558     -2.111334     -0.037019
   13   H     13    1.2000  1.000     -1.933520     -0.084236      0.083571
 ------------------------------------------------------------------------------
 ------------------------------------------------------------------------------
 Atomic radii for non-electrostatic terms: SMD-CDS.
 ------------------------------------------------------------------------------
 Nuclear repulsion after PCM non-electrostatic terms =      459.5592271275 Hartrees.
 One-electron integrals computed using PRISM.
 NBasis=   191 RedAO= T EigKep=  2.45D-05  NBF=   191
 NBsUse=   191 1.00D-06 EigRej= -1.00D+00 NBFU=   191
 Initial guess from the checkpoint file:  "/home/Tinker/g16/scratch/Gau-3522046.chk"
 B after Tr=     0.000000   -0.000000   -0.000000
         Rot=    0.999938   -0.000294    0.000121   -0.011160 Ang=  -1.28 deg.
 ExpMin= 4.38D-02 ExpMax= 5.48D+03 ExpMxC= 8.25D+02 IAcc=3 IRadAn=         5 AccDes= 0.00D+00
 Harris functional with IExCor= 1009 and IRadAn=       5 diagonalized for initial guess.
 HarFok:  IExCor= 1009 AccDes= 0.00D+00 IRadAn=         5 IDoV= 1 UseB2=F ITyADJ=14
 ICtDFT=  3500011 ScaDFX=  1.000000  1.000000  1.000000  1.000000
 FoFCou: FMM=F IPFlag=           0 FMFlag=      100000 FMFlg1=           0
         NFxFlg=           0 DoJE=T BraDBF=F KetDBF=T FulRan=T
         wScrn=  0.000000 ICntrl=       500 IOpCl=  0 I1Cent=   200000004 NGrid=           0
         NMat0=    1 NMatS0=      1 NMatT0=    0 NMatD0=    1 NMtDS0=    0 NMtDT0=    0
 Petite list used in FoFCou.
 Requested convergence on RMS density matrix=1.00D-08 within 128 cycles.
 Requested convergence on MAX density matrix=1.00D-06.
 Requested convergence on             energy=1.00D-06.
 No special actions if energy rises.
 Inv3:  Mode=1 IEnd=     3803628.
 Iteration    1 A*A^-1 deviation from unit magnitude is 2.89D-15 for   1124.
 Iteration    1 A*A^-1 deviation from orthogonality  is 2.53D-15 for   1118    592.
 Iteration    1 A^-1*A deviation from unit magnitude is 2.66D-15 for   1124.
 Iteration    1 A^-1*A deviation from orthogonality  is 1.31D-15 for    504    248.
 Error on total polarization charges =  0.03656
 SCF Done:  E(RM062X) =  -523.111349401     A.U. after   12 cycles
            NFock= 12  Conv=0.71D-08     -V/T= 2.0082
 SMD-CDS (non-electrostatic) energy       (kcal/mol) =       4.05
 (included in total energy above)
 D1PCM: PCM CHGder 1st derivatives, ID1Alg=3 FixD1E=F DoIter=F DoCFld=F I1PDM=0.
 Calling FoFJK, ICntrl=      2127 FMM=F ISym2X=0 I1Cent= 0 IOpClX= 0 NMat=1 NMatS=1 NMatT=0.
 ***** Axes restored to original set *****
 -------------------------------------------------------------------
 Center     Atomic                   Forces (Hartrees/Bohr)
 Number     Number              X              Y              Z
 -------------------------------------------------------------------
      1        7           0.000958043   -0.000880044   -0.000241593
      2        7          -0.001993451    0.003009245   -0.000715622
      3        7           0.002356682   -0.001184418   -0.000050433
      4        7           0.000195501    0.000132174   -0.000002327
      5        6           0.002215923   -0.000629938    0.000225812
      6        6          -0.002488455    0.004751922    0.003124091
      7        8           0.001338665   -0.002194529   -0.001298479
      8        8          -0.002298769   -0.001278517    0.001002898
      9        1          -0.001352136    0.002122158   -0.000173477
     10        1           0.000251766    0.000068229   -0.000034759
     11        8           0.001051170    0.000826744    0.001733861
     12        1          -0.000078323    0.000030577   -0.000420602
     13        1          -0.000156615   -0.004773603   -0.003149368
 -------------------------------------------------------------------
[...]
 ! R8    R(6,7)                  1.2073         -DE/DX =   -0.0002              !
 ! R9    R(6,8)                  1.2862         -DE/DX =    0.0                 !
 ! R10   R(8,13)                 1.067          -DE/DX =    0.0                 !
 ! R11   R(9,11)                 0.9689         -DE/DX =    0.0                 !
 ! R12   R(11,12)                0.969          -DE/DX =    0.0                 !
 ! R13   R(11,13)                1.3969         -DE/DX =    0.0                 !
 ! A1    A(2,1,5)              101.556          -DE/DX =    0.0                 !
 ! A2    A(1,2,3)              113.8087         -DE/DX =    0.0                 !
 ! A3    A(1,2,6)              124.8907         -DE/DX =    0.0001              !
 ! A4    A(3,2,6)              121.299          -DE/DX =   -0.0001              !
 ! A5    A(2,3,4)              106.194          -DE/DX =    0.0                 !
 ! A6    A(3,4,5)              106.2894         -DE/DX =    0.0                 !
 ! A7    A(1,5,4)              112.1518         -DE/DX =    0.0                 !
 ! A8    A(1,5,10)             123.8969         -DE/DX =    0.0                 !
 ! A9    A(4,5,10)             123.9514         -DE/DX =    0.0                 !
 ! A10   A(2,6,7)              117.9946         -DE/DX =    0.0                 !
 ! A11   A(2,6,8)              115.389          -DE/DX =    0.0                 !
 ! A12   A(7,6,8)              126.6156         -DE/DX =    0.0                 !
 ! A13   A(6,8,13)             122.9079         -DE/DX =    0.0                 !
 ! A14   A(9,11,12)            106.6555         -DE/DX =    0.0                 !
 ! A15   A(9,11,13)            112.8609         -DE/DX =    0.0                 !
 ! A16   A(12,11,13)           108.6412         -DE/DX =    0.0001              !
 ! A17   L(8,13,11,1,-1)       190.8569         -DE/DX =    0.0                 !
 ! A18   L(8,13,11,1,-2)       182.0305         -DE/DX =    0.0                 !
 ! D1    D(5,1,2,3)              0.0812         -DE/DX =    0.0                 !
 ! D2    D(5,1,2,6)            179.6301         -DE/DX =    0.0                 !
 ! D3    D(2,1,5,4)             -0.0204         -DE/DX =    0.0                 !
 ! D4    D(2,1,5,10)          -179.979          -DE/DX =    0.0                 !
 ! D5    D(1,2,3,4)             -0.1128         -DE/DX =    0.0                 !
 ! D6    D(6,2,3,4)           -179.6798         -DE/DX =    0.0                 !
 ! D7    D(1,2,6,7)           -176.8377         -DE/DX =    0.0                 !
 ! D8    D(1,2,6,8)              2.8565         -DE/DX =    0.0                 !
 ! D9    D(3,2,6,7)              2.6793         -DE/DX =    0.0                 !
 ! D10   D(3,2,6,8)           -177.6264         -DE/DX =    0.0                 !
 ! D11   D(2,3,4,5)              0.0904         -DE/DX =    0.0                 !
 ! D12   D(3,4,5,1)             -0.0453         -DE/DX =    0.0                 !
 ! D13   D(3,4,5,10)           179.9134         -DE/DX =    0.0                 !
 ! D14   D(2,6,8,13)             3.9936         -DE/DX =    0.0                 !
 ! D15   D(7,6,8,13)          -176.3427         -DE/DX =    0.0                 !
 ! D16   D(6,8,11,9)           130.2893         -DE/DX =    0.0                 !
 ! D17   D(6,8,11,12)           10.8174         -DE/DX =    0.0                 !
 ! D18   D(9,11,12,13)        -121.9299         -DE/DX =   -0.0001              !
 --------------------------------------------------------------------------------
 GradGradGradGradGradGradGradGradGradGradGradGradGradGradGradGradGradGrad


 ----------------------------------------------------------------------

 Electric dipole moment (input orientation):
 (Debye = 10**-18 statcoulomb cm , SI units = C m)
                  (au)            (Debye)         (10**-30 SI)
   Tot        0.423895D+01      0.107743D+02      0.359393D+02
   x         -0.137817D+00     -0.350295D+00     -0.116846D+01
   y         -0.417742D+01     -0.106179D+02     -0.354176D+02
   z          0.706285D+00      0.179520D+01      0.598813D+01

 Dipole polarizability, Alpha (input orientation).
 (esu units = cm**3 , SI units = C**2 m**2 J**-1)
 Alpha(0;0):
               (au)            (10**-24 esu)      (10**-40 SI)
   iso        0.840681D+02      0.124576D+02      0.138610D+02
   aniso      0.516031D+02      0.764680D+01      0.850821D+01
   xx         0.100988D+03      0.149649D+02      0.166507D+02
   yx        -0.355130D+01     -0.526248D+00     -0.585530D+00
   yy         0.101191D+03      0.149950D+02      0.166842D+02
   zx         0.112547D+01      0.166778D+00      0.185565D+00
   zy         0.213071D+01      0.315738D+00      0.351306D+00
   zz         0.500250D+02      0.741293D+01      0.824800D+01

 ----------------------------------------------------------------------

 Dipole orientation:
     7          1.31505712         -0.49769497          1.66410562
     7          0.66456503          0.09994413         -0.67776107
     7          2.60935522          0.50228886         -2.19324380
     7          4.61361774          0.16943192         -0.83347447
     6          3.79283241         -0.44201151          1.52143470
     6         -1.92477195          0.30006716         -1.58896846
     8         -2.24942408          0.75868264         -3.80033804
     8         -3.64975401         -0.05082401          0.08720905
     1         -4.28976676          0.32568316          5.57485941
     1          5.03082071         -0.83743434          3.09142902
     8         -3.19755096         -0.80703798          4.63849846
     1         -1.49612570         -0.52262520          5.25301236
     1         -3.23708652         -0.34419037          2.03842984

 Electric dipole moment (dipole orientation):
 (Debye = 10**-18 statcoulomb cm , SI units = C m)
                  (au)            (Debye)         (10**-30 SI)
   Tot        0.423895D+01      0.107743D+02      0.359393D+02
   x          0.000000D+00      0.000000D+00      0.000000D+00
   y          0.000000D+00      0.000000D+00      0.000000D+00
   z          0.423895D+01      0.107743D+02      0.359393D+02

 Dipole polarizability, Alpha (dipole orientation).
 (esu units = cm**3 , SI units = C**2 m**2 J**-1)
 Alpha(0;0):
               (au)            (10**-24 esu)      (10**-40 SI)
   iso        0.840681D+02      0.124576D+02      0.138610D+02
   aniso      0.516031D+02      0.764680D+01      0.850821D+01
   xx         0.101198D+03      0.149960D+02      0.166854D+02
   yx        -0.116980D+01     -0.173346D+00     -0.192873D+00
   yy         0.521746D+02      0.773148D+01      0.860244D+01
   zx         0.333099D+01      0.493602D+00      0.549206D+00
   zy        -0.105295D+02     -0.156031D+01     -0.173608D+01
   zz         0.988312D+02      0.146453D+02      0.162951D+02

 ----------------------------------------------------------------------
 Unable to Open any file for archive entry.
 1\1\GINC-XIELAB72C\Freq\RM062X\6-31+G(d,p)\C2H4N4O3\TINKER\10-Nov-2023
 \0\\#N Geom=AllCheck Guess=TCheck SCRF=Check GenChk RM062X/6-31+G(d,p)
  Freq\\Title Card Required\\0,1\N,0.6738706429,-0.9310579156,-0.090196
 0589\N,0.3615621134,0.3526516355,0.0037955415\N,1.4099941534,1.1503739
 202,0.1134553145\N,2.4510864674,0.382622697,0.0942457113\C,1.985510174
 3,-0.8877296074,-0.031107572\C,-0.9946460068,0.8832156623,-0.016731146
 2\O,-1.134908351,2.0818114506,0.0218720817\O,-1.9303784596,0.003058433
 6,-0.081607826\H,-2.368636496,-2.8160525216,0.5875770623\H,2.618767494
 1,-1.7595223338,-0.0775928598\O,-1.7586125114,-2.4440329368,-0.0669012
 052\H,-0.8737787549,-2.7640139563,0.1648733735\H,-1.7415084658,-1.0465
 005276,-0.0554574166\\Version=ES64L-G16RevC.01\State=1-A\HF=-523.11299
 61\RMSD=4.245e-09\RMSF=8.688e-05\ZeroPoint=0.0858313\Thermal=0.0944832
 \ETot=-523.0185129\HTot=-523.0175688\GTot=-523.0619778\Dipole=-0.13781
 65,-4.1774184,0.7062851\DipoleDeriv=-0.1538014,-0.101457,-0.0018651,-0
 .6312686,-0.3908952,-0.0332888,-0.0293184,-0.0073486,-0.2064163,-1.757
 5763,0.4637173,-0.0381769,0.5243079,-0.0197852,0.0247451,-0.0354459,0.
 0157338,0.1141473,0.892975,-0.0835784,0.0384679,0.0784483,-0.395766,-0
 .0224588,0.0452463,-0.0251547,-0.1160391,-0.6638396,0.0575787,-0.01050
 26,0.6963089,-0.3379164,0.0235638,0.0425187,-0.0054611,-0.2688526,0.00
 39103,0.0190551,-0.0038042,-0.2845694,0.5229338,0.0248884,-0.0308911,0
 .034226,0.1088977,3.3954438,0.129826,0.0680349,-0.2569326,3.2918789,0.
 0775354,0.0669246,0.113016,0.6481605,-1.0303734,0.2511251,0.000082,0.3
 54286,-2.0503097,-0.0364052,0.0057893,-0.047429,-0.5497755,-1.4573888,
 -0.6937392,-0.0432933,-0.706896,-2.34043,-0.0295337,-0.0455316,-0.0385
 091,-0.5460522,0.4658376,0.0489241,-0.0134808,0.019328,0.415946,0.0242
 407,-0.0113447,0.0137296,0.4127911,0.1603816,-0.0050223,-0.0026702,-0.
 0027552,0.1455792,-0.0053697,-0.0031919,-0.0041716,0.2092572,-0.807177
 7,-0.1097251,0.0100956,-0.1591803,-1.4740484,-0.0495212,0.0298797,-0.0
 411788,-0.6626753,0.5062821,0.0366295,-0.008479,0.0505019,0.493345,0.0
 406088,-0.0285406,0.0421729,0.4074018,0.4453267,-0.0133339,0.0055917,0
 .3184211,2.139468,-0.0390047,-0.0060944,-0.0496255,0.4491554\Polar=100
 .987876,-3.5512964,101.1913471,1.1254731,2.130707,50.0249603\Quadrupol
 e=-2.7061903,1.6690879,1.0371024,2.4358171,-3.7918071,-4.5605554\PG=C0
 1 [X(C2H4N4O3)]\NImag=0\\0.66231371,0.04131175,0.52210276,0.02513754,0
 .03597825,0.10932056,-0.10598366,-0.00350443,-0.00086394,0.76281339,0.
 06233306,-0.29314267,-0.01598982,-0.05772998,0.69262334,0.00447791,-0.
 01774660,-0.07574411,0.02181556,0.04030121,0.12665486,-0.05450444,-0.0
 5287456,-0.00807521,-0.14874438,-0.11685118,-0.01281694,0.51248695,0.0
 1173078,-0.11072957,-0.01099096,-0.05513563,-0.20753817,-0.01230981,-0
 .08081780,0.63667862,-0.00254763,-0.01404044,0.02851554,-0.00772714,-0
 .01506304,-0.07835461,0.01008295,0.03908645,0.12292682,-0.04287546,-0.
 00706700,-0.00370703,-0.17962156,-0.02515405,-0.01096352,-0.28288795,0
 .12121814,0.00192310,0.63307161,-0.13714066,0.00034976,-0.00859589,0.0
 8552315,-0.01789877,-0.00033329,0.15469766,-0.22769992,-0.00418870,-0.
 02051016,0.51048139,-0.01471672,-0.00305764,0.03250167,-0.00130143,-0.
 00468566,0.02661480,0.00473459,-0.00590750,-0.09648474,0.02015551,0.03
 192297,0.11980927,-0.42454981,-0.01416558,-0.01572677,-0.09065136,0.09
 860880,0.00400190,0.03033211,-0.00445812,-0.00023874,-0.15147006,-0.04
 848575,-0.00651761,0.79190392,-0.00719121,-0.11804859,-0.00343236,-0.0
 0340175,-0.02371606,-0.00290658,0.10506548,-0.10927108,-0.00697610,-0.
 07189750,-0.25488204,-0.01725559,-0.18216483,0.78858441,-0.01495916,-0
 .00392856,-0.08311426,-0.00451645,0.00150614,0.01108594,0.00904979,-0.
 01136061,0.02482818,-0.00863064,-0.01627224,-0.08629018,0.01104827,0.0
 4443856,0.16700317,-0.00920507,0.02965938,0.00293047,-0.13880696,0.016
 31757,-0.00227908,-0.06904777,-0.00552971,-0.00245798,0.02358749,-0.03
 518515,-0.00258266,0.02602601,0.00996175,0.00179874,0.52268332,0.03345
 737,-0.01474159,0.00147009,-0.00610826,-0.10822206,-0.00442177,0.00700
 046,0.02630504,0.00372924,-0.02199863,0.00922722,-0.00080450,-0.008022
 74,-0.01552208,-0.00212156,0.07129818,1.04723330,0.00346780,0.00128079
 ,-0.01322098,-0.00424040,-0.00371721,-0.05032308,-0.00200731,0.0030005
 5,-0.01401702,-0.00088881,-0.00151603,0.00882900,0.00020956,-0.0012317
 2,0.00450746,0.01352312,0.03186934,0.21412938,-0.00540777,-0.00600315,
 -0.00124208,-0.02187286,0.05713689,0.00122804,0.00387957,0.00491002,0.
 00025030,-0.00278414,0.00755328,0.00055000,-0.00576826,0.00167803,0.00
 001448,-0.09873350,0.07131289,0.00173503,0.11962569,0.00368437,0.00904
 085,0.00087539,0.05004323,-0.05242552,-0.00124686,-0.01762901,-0.00442
 578,-0.00129903,0.00799951,-0.00960980,-0.00053409,0.00806487,0.002532
 24,0.00054651,0.08105490,-0.68574331,-0.01859303,-0.08161982,0.8469846
 3,-0.00055110,-0.00017139,0.00486029,0.00116801,-0.00080379,0.01669200
 ,-0.00085281,-0.00025504,0.00130398,0.00037480,-0.00025271,-0.00034937
 ,0.00033729,0.00044978,-0.00075232,0.00194695,-0.01964644,-0.08253152,
 -0.00036758,0.02700952,0.03610767,0.00173899,-0.00680090,-0.00059825,-
 0.07049042,-0.03115855,-0.00452297,0.00776633,0.01342298,0.00144317,-0
 .01128201,0.00600544,0.00000542,-0.00471934,-0.00475570,-0.00070356,-0
 .26354322,-0.12179700,-0.01287762,0.01432604,-0.04796785,-0.00144438,0
 .37454969,0.00302775,-0.00325066,-0.00018260,-0.01123763,0.00678941,-0
 .00089902,0.00531254,0.00281446,0.00013176,-0.00184581,0.00521397,0.00
 050145,-0.00459373,-0.00078824,-0.00025277,-0.14684562,-0.22547541,-0.
 00904781,-0.05806580,-0.12382753,-0.00731095,0.14474873,0.59085768,0.0
 0043285,-0.00018367,0.00025629,-0.00313559,-0.00105758,0.01497695,0.00
 043805,-0.00004633,0.00440303,-0.00018417,0.00074663,-0.00195960,-0.00
 048198,-0.00022790,0.00050503,-0.01429256,-0.00864676,-0.06012298,-0.0
 0140671,-0.00595266,0.01931747,0.02120267,0.00917805,0.03477040,-0.000
 54599,-0.00056547,0.00008596,-0.00001225,0.00001958,-0.00003414,-0.000
 15420,-0.00017341,-0.00000605,0.00005611,-0.00016364,-0.00003191,0.000
 13445,-0.00006538,-0.00000528,-0.00151557,-0.00102751,-0.00009238,0.00
 029025,0.00079730,0.00002112,0.00023300,0.00470274,0.00033386,0.247724
 52,-0.00062527,0.00012090,0.00000479,0.00004582,0.00005911,-0.00001921
 ,-0.00001463,0.00001687,-0.00000111,-0.00008837,-0.00001248,0.00000001
 ,-0.00001260,-0.00014858,-0.00001921,0.00063305,0.00043150,-0.00022665
 ,-0.00015780,-0.00032883,0.00010874,0.00117339,-0.00377871,-0.00113230
 ,0.11266807,0.09691347,-0.00090691,-0.00042718,0.00011308,-0.00009737,
 0.00024969,0.00005891,-0.00011707,-0.00015392,-0.00006045,-0.00014508,
 -0.00010697,-0.00002726,0.00011242,-0.00020076,0.00000073,0.00057747,0
 .00079838,0.00009424,-0.00009720,-0.00048723,-0.00002995,0.00060061,-0
 .00301567,0.00007526,-0.21404740,-0.14045209,0.24438891,-0.01223783,0.
 02478752,0.00174243,-0.00543262,-0.00119384,-0.00066661,0.00032903,-0.
 00566565,-0.00076878,0.01360801,-0.01271612,-0.00036907,-0.16977035,0.
 15237022,0.00693439,0.00126389,0.00070712,0.00006068,-0.00059098,0.000
 67686,0.00002246,-0.00012046,-0.00008799,-0.00000097,-0.00000443,-0.00
 000366,-0.00000792,0.17298548,-0.00588228,0.00928033,0.00092214,-0.005
 01398,0.00261919,-0.00072149,-0.00171129,-0.00390592,-0.00103881,0.016
 39739,-0.01337512,-0.00018714,0.15435093,-0.26981885,-0.01265341,0.000
 92632,0.00037639,-0.00006763,-0.00024916,0.00048891,0.00007234,-0.0000
 1542,-0.00002970,0.00000815,0.00000284,0.00000005,-0.00000551,-0.15896
 321,0.27426014,-0.00088866,0.00218341,-0.00404985,-0.00107430,-0.00050
 688,0.00860249,-0.00041938,-0.00116614,0.00740053,0.00204264,-0.001344
 64,-0.00310929,0.00718446,-0.01282361,-0.03740781,0.00008288,-0.000103
 55,0.00187045,0.00002577,0.00009390,-0.00074839,-0.00001345,-0.0000099
 5,-0.00014886,0.00000457,-0.00000025,0.00000773,-0.00695596,0.01367679
 ,0.02761934,-0.00537370,-0.00271822,0.00085617,-0.00034337,0.00118336,
 0.00016903,-0.00095289,-0.00111269,-0.00024872,-0.00054002,-0.00086185
 ,-0.00021191,0.00083752,-0.00117433,-0.00003331,-0.00055810,0.00315320
 ,-0.00013887,0.00039844,-0.00039764,0.00010246,0.01070030,0.00028991,-
 0.00069493,-0.22653225,-0.11659142,0.22709636,-0.00003541,-0.00001281,
 0.00004068,0.68762615,-0.00375003,-0.00290343,0.00078434,-0.00338112,-
 0.00045644,-0.00010010,0.00075262,0.00070104,0.00000664,-0.00170680,0.
 00086706,-0.00011553,-0.00061293,-0.00122982,-0.00011860,0.02627270,0.
 01310139,0.00226443,-0.00518341,-0.01335437,-0.00105948,-0.01201082,-0
 .09102285,0.00238091,-0.09154627,-0.10028568,0.14349324,-0.00005928,-0
 .00002843,0.00002195,-0.03964452,0.24096234,0.00173869,0.00110796,0.00
 106592,0.00023973,-0.00013051,-0.00001369,0.00014166,0.00023339,0.0000
 2323,0.00024808,0.00016454,-0.00007938,-0.00010119,0.00032197,0.000052
 16,-0.00076115,-0.00060051,0.00116833,0.00022638,0.00064727,-0.0005595
 5,-0.00083143,0.00533879,0.00776786,0.18537135,0.14406936,-0.25035775,
 0.00001868,-0.00000933,0.00002388,-0.10583831,-0.20160889,0.31781578,-
 0.00356690,-0.00064847,-0.00011497,0.00112392,-0.00089670,-0.00022047,
 0.00065029,0.00117167,0.00022421,-0.00001394,0.00055023,0.00009239,-0.
 00122557,0.00036716,-0.00001924,0.00245919,0.00048749,0.00013279,-0.00
 058613,-0.00055438,-0.00006346,-0.00104897,-0.00528459,0.00009980,-0.0
 2078724,0.01085754,-0.01066848,-0.00004511,0.00010858,-0.00002554,-0.4
 3485084,0.13560436,-0.08483479,0.45669548,0.00074661,-0.00091515,-0.00
 135442,0.00044084,-0.00184953,-0.00020171,0.00101846,0.00130994,0.0003
 1447,0.00048442,0.00097115,0.00025103,-0.00130907,0.00097674,0.0000231
 5,0.00155528,-0.00165127,-0.00003909,-0.00051010,0.00034904,0.00001696
 ,-0.00232780,-0.00282868,-0.00038512,-0.01705822,0.00532972,-0.0039258
 9,0.00003315,0.00007325,-0.00004861,0.15449823,-0.08130750,0.05535609,
 -0.15023298,0.08043970,-0.00017115,-0.00092497,-0.00073088,-0.00022475
 ,0.00006558,-0.00011079,-0.00011462,-0.00024062,0.00006482,-0.00009280
 ,-0.00015519,0.00006996,0.00012665,-0.00012341,-0.00003297,-0.00038975
 ,-0.00004803,0.00014385,0.00007544,0.00001239,-0.00003158,0.00003686,0
 .00019471,0.00020142,0.02942779,-0.01080141,0.00601608,-0.00000636,0.0
 0000340,-0.00002221,-0.12519596,0.06633220,-0.05835139,0.09612521,-0.0
 5321350,0.05318432,0.00019792,-0.00141087,-0.00042433,-0.00197788,-0.0
 0261495,-0.00018869,0.00084736,0.00043941,0.00007130,0.00115192,0.0007
 3358,0.00019341,-0.00107925,0.00120808,0.00002198,0.00539028,-0.028462
 56,0.00111641,-0.00277637,-0.00415234,-0.00069378,-0.05810995,0.069879
 51,-0.00231033,0.00111360,-0.00788412,-0.00229945,0.00005079,0.0000620
 9,-0.00000373,-0.03037584,-0.00473449,0.00438230,0.00119580,0.01266118
 ,0.00040345,0.08437161,-0.00170223,0.00283705,0.00051105,0.00945975,0.
 00315817,0.00060522,-0.00394874,-0.00425553,-0.00066133,0.00416887,-0.
 00363241,-0.00012778,0.00280075,0.00133195,0.00021260,-0.05011866,-0.0
 4531912,-0.00397593,0.00919814,0.03031947,0.00184247,0.06148351,-0.154
 67375,0.00531860,-0.00759062,0.00168266,0.00423391,0.00011490,0.000059
 78,0.00002757,0.00338877,0.03495668,-0.00489011,0.00847007,-0.00089740
 ,-0.00110115,-0.03572450,0.13443245,-0.00051346,-0.00006994,0.00022672
 ,-0.00004194,-0.00016811,-0.00013967,-0.00004370,0.00011054,-0.0005493
 0,-0.00013208,-0.00006848,0.00047512,0.00004572,-0.00003229,-0.0003851
 2,0.00190353,-0.00147393,-0.01052712,-0.00099188,-0.00107209,0.0067212
 6,-0.00229706,0.00537401,-0.02004228,-0.00102750,0.00846934,-0.0002795
 4,-0.00000296,0.00000052,-0.00003802,0.00409730,-0.01228110,-0.0185553
 9,-0.00072744,0.00320664,-0.00040062,-0.00026852,-0.00199511,0.0434939
 7\\-0.00017355,0.00000574,0.00003066,0.00002024,0.00012245,-0.00005493
 ,-0.00012407,0.00000187,0.00007594,0.00012255,-0.00017799,-0.00005255,
 0.00017075,0.00009708,0.00005389,0.00001959,-0.00024196,-0.00002335,-0
 .00001318,0.00019111,0.00000883,-0.00001235,-0.00004853,-0.00004514,-0
 .00002746,0.00004855,0.00000812,0.00000204,-0.00000136,0.00001758,-0.0
 0003310,-0.00009818,-0.00008586,0.00004041,0.00004058,0.00001016,0.000
 00813,0.00006065,0.00005668\\\@
 The archive entry for this job was punched.


 THE VALUE OF PHILOSOPHY IS, IN FACT, TO BE SOUGHT LARGELY IN ITS
 VERY UNCERTAINTY.  THE MAN WHO HAS NO TINCTURE OF PHILOSOPHY GOES
 THROUGH LIFE IMPRISONED IN THE PREJUDICES DERIVED FROM COMMON SENSE,
 FROM THE HABITUAL BELIEFS OF HIS AGE OR HIS NATION, AND FROM
 CONVICTIONS WHICH HAVE GROWN UP IN HIS MIND WITHOUT THE CO-OPERATION
 OR CONSENT OF HIS DELIBERATE REASON.  TO SUCH A MAN THE WORLD TENDS
 TO BE DEFINITE, FINITE, OBVIOUS; COMMON OBJECTS ROUSE NO QUESTIONS,
 AND UNFAMILIAR POSSIBILITIES ARE CONTEMPTUOUSLY REJECTED.

                             -- BERTRAND RUSSELL
 Job cpu time:       0 days  0 hours 42 minutes 32.2 seconds.
 Elapsed time:       0 days  0 hours  1 minutes 26.5 seconds.
 File lengths (MBytes):  RWF=     83 Int=      0 D2E=      0 Chk=      8 Scr=      1
 Normal termination of Gaussian 16 at Fri Nov 10 02:19:08 2023.
