 Entering Gaussian System, Link 0=/home/gau/soft/g16/g16
 Initial command:
 /home/gau/soft/g16/l1.exe "/home/gau/soft/scratch/Gau-89862.inp" -scrdir="/home/gau/soft/scratch/"
 Entering Link 1 = /home/gau/soft/g16/l1.exe PID=     89863.
  
 Copyright (c) 1988-2019, Gaussian, Inc.  All Rights Reserved.
  
 This is part of the Gaussian(R) 16 program.  It is based on
 the Gaussian(R) 09 system (copyright 2009, Gaussian, Inc.),
 the Gaussian(R) 03 system (copyright 2003, Gaussian, Inc.),
 the Gaussian(R) 98 system (copyright 1998, Gaussian, Inc.),
 the Gaussian(R) 94 system (copyright 1995, Gaussian, Inc.),
 the Gaussian 92(TM) system (copyright 1992, Gaussian, Inc.),
 the Gaussian 90(TM) system (copyright 1990, Gaussian, Inc.),
 the Gaussian 88(TM) system (copyright 1988, Gaussian, Inc.),
 the Gaussian 86(TM) system (copyright 1986, Carnegie Mellon
 University), and the Gaussian 82(TM) system (copyright 1983,
 Carnegie Mellon University). Gaussian is a federally registered
 trademark of Gaussian, Inc.
  
 This software contains proprietary and confidential information,
 including trade secrets, belonging to Gaussian, Inc.
  
 This software is provided under written license and may be
 used, copied, transmitted, or stored only in accord with that
 written license.
  
 The following legend is applicable only to US Government
 contracts under FAR:
  
                    RESTRICTED RIGHTS LEGEND
  
 Use, reproduction and disclosure by the US Government is
 subject to restrictions as set forth in subparagraphs (a)
 and (c) of the Commercial Computer Software - Restricted
 Rights clause in FAR 52.227-19.
  
 Gaussian, Inc.
 340 Quinnipiac St., Bldg. 40, Wallingford CT 06492
  
  
 ---------------------------------------------------------------
 Warning -- This program may not be used in any manner that
 competes with the business of Gaussian, Inc. or will provide
 assistance to any competitor of Gaussian, Inc.  The licensee
 of this program is prohibited from giving any competitor of
 Gaussian, Inc. access to this program.  By using this program,
 the user acknowledges that Gaussian, Inc. is engaged in the
 business of creating and licensing software in the field of
 computational chemistry and represents and warrants to the
 licensee that it is not a competitor of Gaussian, Inc. and that
 it will not use this program in any manner prohibited above.
 ---------------------------------------------------------------
  

 Cite this work as:
 Gaussian 16, Revision C.01,
 M. J. Frisch, G. W. Trucks, H. B. Schlegel, G. E. Scuseria, 
 M. A. Robb, J. R. Cheeseman, G. Scalmani, V. Barone, 
 G. A. Petersson, H. Nakatsuji, X. Li, M. Caricato, A. V. Marenich, 
 J. Bloino, B. G. Janesko, R. Gomperts, B. Mennucci, H. P. Hratchian, 
 J. V. Ortiz, A. F. Izmaylov, J. L. Sonnenberg, D. Williams-Young, 
 F. Ding, F. Lipparini, F. Egidi, J. Goings, B. Peng, A. Petrone, 
 T. Henderson, D. Ranasinghe, V. G. Zakrzewski, J. Gao, N. Rega, 
 G. Zheng, W. Liang, M. Hada, M. Ehara, K. Toyota, R. Fukuda, 
 J. Hasegawa, M. Ishida, T. Nakajima, Y. Honda, O. Kitao, H. Nakai, 
 T. Vreven, K. Throssell, J. A. Montgomery, Jr., J. E. Peralta, 
 F. Ogliaro, M. J. Bearpark, J. J. Heyd, E. N. Brothers, K. N. Kudin, 
 V. N. Staroverov, T. A. Keith, R. Kobayashi, J. Normand, 
 K. Raghavachari, A. P. Rendell, J. C. Burant, S. S. Iyengar, 
 J. Tomasi, M. Cossi, J. M. Millam, M. Klene, C. Adamo, R. Cammi, 
 J. W. Ochterski, R. L. Martin, K. Morokuma, O. Farkas, 
 J. B. Foresman, and D. J. Fox, Gaussian, Inc., Wallingford CT, 2019.
 
 ******************************************
 Gaussian 16:  ES64L-G16RevC.01  3-Jul-2019
                 1-Dec-2023 
 ******************************************
 %mem=10GB
 %nprocshared=48
 Will use up to   48 processors via shared memory.
 -----------------------------------------------------
 # opt freq 6-31+g(d,p) scrf=(smd,solvent=water) m062x
 -----------------------------------------------------
 1/18=20,19=15,26=3,38=1/1,3;
 2/9=110,12=2,17=6,18=5,40=1/2;
 3/5=1,6=6,7=111,11=2,25=1,30=1,70=32201,71=1,72=1,74=-55/1,2,3;
 4//1;
 5/5=2,38=5,53=1/2;
 6/7=2,8=2,9=2,10=2,28=1/1;
 7//1,2,3,16;
 1/18=20,19=15,26=3/3(2);
 2/9=110/2;
 99//99;
 2/9=110/2;
 3/5=1,6=6,7=111,11=2,25=1,30=1,70=32205,71=1,72=1,74=-55/1,2,3;
 4/5=5,16=3,69=1/1;
 5/5=2,38=5,53=1/2;
 7//1,2,3,16;
 1/18=20,19=15,26=3/3(-5);
 2/9=110/2;
 6/7=2,8=2,9=2,10=2,19=2,28=1/1;
 99/9=1/99;
 -------------------
 Title Card Required
 -------------------
 Symbolic Z-matrix:
 Charge =  0 Multiplicity = 1
 N                     0.02054  -0.32198  -0.00466 
 N                    -0.85624   0.69072  -0.01604 
 C                    -2.08262   0.16652  -0.0121 
 C                    -1.90318  -1.21153   0.00647 
 N                    -0.59502  -1.47216   0.01019 
 H                    -2.96276   0.79187  -0.02365 
 H                    -2.64114  -1.99787   0.01614 
 C                    -0.52045   2.1186   -0.05924 
 C                     1.59548  -0.20935   0.01528 
 O                     1.97684   0.95206   0.05392 
 O                     2.11182  -1.31487  -0.00705 
 H                     2.97527   1.10044  -0.02772 
 H                     0.05988   2.38017   0.82412 
 H                    -1.47294   2.64438  -0.05966 
 

 GradGradGradGradGradGradGradGradGradGradGradGradGradGradGradGradGradGrad
 Berny optimization.
 Initialization pass.
                           ----------------------------
                           !    Initial Parameters    !
                           ! (Angstroms and Degrees)  !
 --------------------------                            --------------------------
 ! Name  Definition              Value          Derivative Info.                !
 --------------------------------------------------------------------------------
 ! R1    R(1,2)                  1.3396         estimate D2E/DX2                !
 ! R2    R(1,5)                  1.3046         estimate D2E/DX2                !
 ! R3    R(1,9)                  1.5791         estimate D2E/DX2                !
 ! R4    R(2,3)                  1.3337         estimate D2E/DX2                !
 ! R5    R(2,8)                  1.4675         estimate D2E/DX2                !
 ! R6    R(3,4)                  1.3898         estimate D2E/DX2                !
 ! R7    R(3,6)                  1.0797         estimate D2E/DX2                !
 ! R8    R(4,5)                  1.3339         estimate D2E/DX2                !
 ! R9    R(4,7)                  1.0784         estimate D2E/DX2                !
 ! R10   R(8,13)                 1.0888         estimate D2E/DX2                !
 ! R11   R(8,14)                 1.088          estimate D2E/DX2                !
 ! R12   R(9,10)                 1.223          estimate D2E/DX2                !
 ! R13   R(9,11)                 1.2204         estimate D2E/DX2                !
 ! R14   R(10,12)                1.0127         estimate D2E/DX2                !
 ! A1    A(2,1,5)              110.9631         estimate D2E/DX2                !
 ! A2    A(2,1,9)              126.7981         estimate D2E/DX2                !
 ! A3    A(5,1,9)              122.2302         estimate D2E/DX2                !
 ! A4    A(1,2,3)              107.7399         estimate D2E/DX2                !
 ! A5    A(1,2,8)              125.8789         estimate D2E/DX2                !
 ! A6    A(3,2,8)              126.3649         estimate D2E/DX2                !
 ! A7    A(2,3,4)              105.7256         estimate D2E/DX2                !
 ! A8    A(2,3,6)              121.4578         estimate D2E/DX2                !
 ! A9    A(4,3,6)              132.8165         estimate D2E/DX2                !
 ! A10   A(3,4,5)              108.6867         estimate D2E/DX2                !
 ! A11   A(3,4,7)              129.402          estimate D2E/DX2                !
 ! A12   A(5,4,7)              121.9112         estimate D2E/DX2                !
 ! A13   A(1,5,4)              106.8843         estimate D2E/DX2                !
 ! A14   A(2,8,13)             109.3807         estimate D2E/DX2                !
 ! A15   A(2,8,14)             105.6595         estimate D2E/DX2                !
 ! A16   A(13,8,14)            110.5385         estimate D2E/DX2                !
 ! A17   A(1,9,10)             112.2791         estimate D2E/DX2                !
 ! A18   A(1,9,11)             110.9254         estimate D2E/DX2                !
 ! A19   A(10,9,11)            136.7948         estimate D2E/DX2                !
 ! A20   A(9,10,12)            116.3597         estimate D2E/DX2                !
 ! D1    D(5,1,2,3)             -0.1785         estimate D2E/DX2                !
 ! D2    D(5,1,2,8)           -178.7824         estimate D2E/DX2                !
 ! D3    D(9,1,2,3)           -179.1269         estimate D2E/DX2                !
 ! D4    D(9,1,2,8)              2.2692         estimate D2E/DX2                !
 ! D5    D(2,1,5,4)              0.0935         estimate D2E/DX2                !
 ! D6    D(9,1,5,4)            179.0981         estimate D2E/DX2                !
 ! D7    D(2,1,9,10)             1.7266         estimate D2E/DX2                !
 ! D8    D(2,1,9,11)          -178.534          estimate D2E/DX2                !
 ! D9    D(5,1,9,10)          -177.1125         estimate D2E/DX2                !
 ! D10   D(5,1,9,11)             2.6269         estimate D2E/DX2                !
 ! D11   D(1,2,3,4)              0.1826         estimate D2E/DX2                !
 ! D12   D(1,2,3,6)           -179.7431         estimate D2E/DX2                !
 ! D13   D(8,2,3,4)            178.7778         estimate D2E/DX2                !
 ! D14   D(8,2,3,6)             -1.1478         estimate D2E/DX2                !
 ! D15   D(1,2,8,13)           -61.1666         estimate D2E/DX2                !
 ! D16   D(1,2,8,14)           179.8302         estimate D2E/DX2                !
 ! D17   D(3,2,8,13)           120.4848         estimate D2E/DX2                !
 ! D18   D(3,2,8,14)             1.4815         estimate D2E/DX2                !
 ! D19   D(2,3,4,5)             -0.1301         estimate D2E/DX2                !
 ! D20   D(2,3,4,7)            179.9245         estimate D2E/DX2                !
 ! D21   D(6,3,4,5)            179.7834         estimate D2E/DX2                !
 ! D22   D(6,3,4,7)             -0.162          estimate D2E/DX2                !
 ! D23   D(3,4,5,1)              0.0241         estimate D2E/DX2                !
 ! D24   D(7,4,5,1)            179.9745         estimate D2E/DX2                !
 ! D25   D(1,9,10,12)         -173.8935         estimate D2E/DX2                !
 ! D26   D(11,9,10,12)           6.462          estimate D2E/DX2                !
 --------------------------------------------------------------------------------
 Trust Radius=3.00D-01 FncErr=1.00D-07 GrdErr=1.00D-06 EigMax=2.50D+02 EigMin=1.00D-04
 Number of steps in this run=     70 maximum allowed number of steps=    100.
 GradGradGradGradGradGradGradGradGradGradGradGradGradGradGradGradGradGrad

                          Input orientation:                          
 ---------------------------------------------------------------------
 Center     Atomic      Atomic             Coordinates (Angstroms)
 Number     Number       Type             X           Y           Z
 ---------------------------------------------------------------------
      1          7           0        0.020538   -0.321979   -0.004663
      2          7           0       -0.856243    0.690716   -0.016042
      3          6           0       -2.082619    0.166520   -0.012100
      4          6           0       -1.903182   -1.211534    0.006472
      5          7           0       -0.595019   -1.472160    0.010189
      6          1           0       -2.962761    0.791873   -0.023650
      7          1           0       -2.641139   -1.997874    0.016141
      8          6           0       -0.520452    2.118595   -0.059235
      9          6           0        1.595482   -0.209354    0.015279
     10          8           0        1.976835    0.952061    0.053917
     11          8           0        2.111820   -1.314867   -0.007053
     12          1           0        2.975269    1.100437   -0.027721
     13          1           0        0.059882    2.380174    0.824118
     14          1           0       -1.472937    2.644383   -0.059662
 ---------------------------------------------------------------------
                    Distance matrix (angstroms):
                    1          2          3          4          5
     1  N    0.000000
     2  N    1.339562   0.000000
     3  C    2.159156   1.333715   0.000000
     4  C    2.119465   2.171438   1.389811   0.000000
     5  N    1.304625   2.178752   2.213306   1.333878   0.000000
     6  H    3.184509   2.108959   1.079745   2.266551   3.276155
     7  H    3.145406   3.227291   2.235474   1.078427   2.112586
     8  C    2.500410   1.467467   2.500637   3.606386   3.592200
     9  C    1.579092   2.611908   3.697358   3.639381   2.528438
    10  O    2.335317   2.845967   4.135287   4.442739   3.534571
    11  O    2.315015   3.582156   4.448354   4.016354   2.711460
    12  H    3.279365   3.853374   5.143411   5.398672   4.400755
    13  H    2.826669   2.097480   3.192152   4.174031   3.991473
    14  H    3.321565   2.049153   2.552211   3.880410   4.209697
                    6          7          8          9         10
     6  H    0.000000
     7  H    2.808507   0.000000
     8  C    2.779628   4.631232   0.000000
     9  C    4.667071   4.598670   3.146756   0.000000
    10  O    4.942801   5.479893   2.758631   1.223032   0.000000
    11  O    5.494543   4.801839   4.326689   1.220353   2.271762
    12  H    5.946043   6.414475   3.641113   1.902949   1.012695
    13  H    3.518207   5.207269   1.088818   3.117362   2.511459
    14  H    2.377534   4.787587   1.087971   4.191017   3.844188
                   11         12         13         14
    11  O    0.000000
    12  H    2.565085   0.000000
    13  H    4.307508   3.295882   0.000000
    14  H    5.341246   4.708644   1.788968   0.000000
 Stoichiometry    C4H5N3O2
 Framework group  C1[X(C4H5N3O2)]
 Deg. of freedom    36
 Full point group                 C1      NOp   1
 Largest Abelian subgroup         C1      NOp   1
 Largest concise Abelian subgroup C1      NOp   1
                         Standard orientation:                         
 ---------------------------------------------------------------------
 Center     Atomic      Atomic             Coordinates (Angstroms)
 Number     Number       Type             X           Y           Z
 ---------------------------------------------------------------------
      1          7           0        0.000682   -0.314254   -0.011767
      2          7           0       -0.870547    0.703132   -0.029427
      3          6           0       -2.099736    0.185940   -0.009433
      4          6           0       -1.927786   -1.192753    0.025407
      5          7           0       -0.621094   -1.460669    0.022494
      6          1           0       -2.976469    0.816038   -0.022281
      7          1           0       -2.669984   -1.974740    0.050762
      8          6           0       -0.527206    2.128431   -0.093449
      9          6           0        1.576331   -0.210250   -0.005267
     10          8           0        1.964388    0.949399    0.015596
     11          8           0        2.086360   -1.318846   -0.017381
     12          1           0        2.962970    1.091099   -0.075538
     13          1           0        0.061341    2.397987    0.782037
     14          1           0       -1.476744    2.659524   -0.093349
 ---------------------------------------------------------------------
 Rotational constants (GHZ):           2.9370035           1.6523960           1.0608417
 Standard basis: 6-31+G(d,p) (6D, 7F)
 There are   196 symmetry adapted cartesian basis functions of A   symmetry.
 There are   196 symmetry adapted basis functions of A   symmetry.
   196 basis functions,   323 primitive gaussians,   196 cartesian basis functions
    33 alpha electrons       33 beta electrons
       nuclear repulsion energy       450.2481249053 Hartrees.
 NAtoms=   14 NActive=   14 NUniq=   14 SFac= 1.00D+00 NAtFMM=   60 NAOKFM=F Big=F
 Integral buffers will be    131072 words long.
 Raffenetti 2 integral format.
 Two-electron integral symmetry is turned on.
 ------------------------------------------------------------------------------
 Polarizable Continuum Model (PCM)
 =================================
 Model                : PCM.
 Atomic radii         : SMD-Coulomb.
 Polarization charges : Total charges.
 Charge compensation  : None.
 Solution method      : On-the-fly selection.
 Cavity type          : VdW (van der Waals Surface) (Alpha=1.000).
 Cavity algorithm     : GePol (No added spheres)
                        Default sphere list used, NSphG=   14.
                        Lebedev-Laikov grids with approx.  5.0 points / Ang**2.
                        Smoothing algorithm: York/Karplus (Gamma=1.0000).
                        Polarization charges: spherical gaussians, with
                                              point-specific exponents (IZeta= 3).
                        Self-potential: point-specific (ISelfS= 7).
                        Self-field    : sphere-specific E.n sum rule (ISelfD= 2).
 1st derivatives      : Analytical E(r).r(x)/FMM algorithm (CHGder, D1EAlg=3).
                        Cavity 1st derivative terms included.
 Solvent              : Water, Eps=  78.355300 Eps(inf)=   1.777849
 ------------------------------------------------------------------------------
 Spheres list:
 ISph  on   Nord     Re0    Alpha      Xe            Ye            Ze
    1   N      1    1.8900  1.000      0.000682     -0.314254     -0.011767
    2   N      2    1.8900  1.000     -0.870547      0.703132     -0.029427
    3   C      3    1.8500  1.000     -2.099736      0.185940     -0.009433
    4   C      4    1.8500  1.000     -1.927786     -1.192753      0.025407
    5   N      5    1.8900  1.000     -0.621094     -1.460669      0.022494
    6   H      6    1.2000  1.000     -2.976469      0.816038     -0.022281
    7   H      7    1.2000  1.000     -2.669984     -1.974740      0.050762
    8   C      8    1.8500  1.000     -0.527206      2.128431     -0.093449
    9   C      9    1.8500  1.000      1.576331     -0.210250     -0.005267
   10   O     10    1.5200  1.000      1.964388      0.949399      0.015596
   11   O     11    1.5200  1.000      2.086360     -1.318846     -0.017381
   12   H     12    1.2000  1.000      2.962970      1.091099     -0.075538
   13   H     13    1.2000  1.000      0.061341      2.397987      0.782037
   14   H     14    1.2000  1.000     -1.476744      2.659524     -0.093349
 ------------------------------------------------------------------------------
 ------------------------------------------------------------------------------
 Atomic radii for non-electrostatic terms: SMD-CDS.
 ------------------------------------------------------------------------------
 Nuclear repulsion after PCM non-electrostatic terms =      450.2586865500 Hartrees.
 One-electron integrals computed using PRISM.
 NBasis=   196 RedAO= T EigKep=  2.02D-05  NBF=   196
 NBsUse=   196 1.00D-06 EigRej= -1.00D+00 NBFU=   196
 ExpMin= 4.38D-02 ExpMax= 5.48D+03 ExpMxC= 8.25D+02 IAcc=3 IRadAn=         5 AccDes= 0.00D+00
 Harris functional with IExCor= 1009 and IRadAn=       5 diagonalized for initial guess.
 HarFok:  IExCor= 1009 AccDes= 0.00D+00 IRadAn=         5 IDoV= 1 UseB2=F ITyADJ=14
 ICtDFT=  3500011 ScaDFX=  1.000000  1.000000  1.000000  1.000000
 FoFCou: FMM=F IPFlag=           0 FMFlag=      100000 FMFlg1=           0
         NFxFlg=           0 DoJE=T BraDBF=F KetDBF=T FulRan=T
         wScrn=  0.000000 ICntrl=       500 IOpCl=  0 I1Cent=   200000004 NGrid=           0
         NMat0=    1 NMatS0=      1 NMatT0=    0 NMatD0=    1 NMtDS0=    0 NMtDT0=    0
 Petite list used in FoFCou.
 Requested convergence on RMS density matrix=1.00D-08 within 128 cycles.
 Requested convergence on MAX density matrix=1.00D-06.
 Requested convergence on             energy=1.00D-06.
 No special actions if energy rises.
 Inv3:  Mode=1 IEnd=     4370547.
 Iteration    1 A*A^-1 deviation from unit magnitude is 3.33D-15 for   1198.
 Iteration    1 A*A^-1 deviation from orthogonality  is 1.79D-15 for   1202   1168.
 Iteration    1 A^-1*A deviation from unit magnitude is 3.55D-15 for   1206.
 Iteration    1 A^-1*A deviation from orthogonality  is 1.23D-15 for   1193   1140.
 Error on total polarization charges =  0.04750
 SCF Done:  E(RM062X) =  -469.838076051     A.U. after   16 cycles
            NFock= 16  Conv=0.22D-08     -V/T= 2.0086
 SMD-CDS (non-electrostatic) energy       (kcal/mol) =       6.63
 (included in total energy above)

 **********************************************************************

            Population analysis using the SCF Density.

 **********************************************************************

 Orbital symmetries:
       Occupied  (A) (A) (A) (A) (A) (A) (A) (A) (A) (A) (A) (A)
                 (A) (A) (A) (A) (A) (A) (A) (A) (A) (A) (A) (A)
                 (A) (A) (A) (A) (A) (A) (A) (A) (A)
       Virtual   (A) (A) (A) (A) (A) (A) (A) (A) (A) (A) (A) (A)
                 (A) (A) (A) (A) (A) (A) (A) (A) (A) (A) (A) (A)
                 (A) (A) (A) (A) (A) (A) (A) (A) (A) (A) (A) (A)
                 (A) (A) (A) (A) (A) (A) (A) (A) (A) (A) (A) (A)
                 (A) (A) (A) (A) (A) (A) (A) (A) (A) (A) (A) (A)
                 (A) (A) (A) (A) (A) (A) (A) (A) (A) (A) (A) (A)
                 (A) (A) (A) (A) (A) (A) (A) (A) (A) (A) (A) (A)
                 (A) (A) (A) (A) (A) (A) (A) (A) (A) (A) (A) (A)
                 (A) (A) (A) (A) (A) (A) (A) (A) (A) (A) (A) (A)
                 (A) (A) (A) (A) (A) (A) (A) (A) (A) (A) (A) (A)
                 (A) (A) (A) (A) (A) (A) (A) (A) (A) (A) (A) (A)
                 (A) (A) (A) (A) (A) (A) (A) (A) (A) (A) (A) (A)
                 (A) (A) (A) (A) (A) (A) (A) (A) (A) (A) (A) (A)
                 (A) (A) (A) (A) (A) (A) (A)
 The electronic state is 1-A.
 Alpha  occ. eigenvalues --  -19.75040 -19.67700 -14.90758 -14.90274 -14.82103
 Alpha  occ. eigenvalues --  -10.77826 -10.60083 -10.59827 -10.53123  -1.31954
 Alpha  occ. eigenvalues --   -1.26717  -1.19243  -1.05740  -0.96136  -0.81094
 Alpha  occ. eigenvalues --   -0.80243  -0.75442  -0.71374  -0.63015  -0.62367
 Alpha  occ. eigenvalues --   -0.61909  -0.58019  -0.57291  -0.53754  -0.51073
 Alpha  occ. eigenvalues --   -0.50265  -0.45507  -0.43410  -0.41384  -0.40487
 Alpha  occ. eigenvalues --   -0.38928  -0.35588  -0.22609
 Alpha virt. eigenvalues --   -0.02250   0.01457   0.03125   0.03628   0.04546
 Alpha virt. eigenvalues --    0.05270   0.05529   0.06077   0.06918   0.07149
 Alpha virt. eigenvalues --    0.08356   0.08999   0.10365   0.11144   0.11254
 Alpha virt. eigenvalues --    0.12216   0.13788   0.14039   0.15410   0.16739
 Alpha virt. eigenvalues --    0.18725   0.19074   0.20157   0.20693   0.22160
 Alpha virt. eigenvalues --    0.22311   0.23024   0.24448   0.25457   0.25748
 Alpha virt. eigenvalues --    0.26040   0.26613   0.26785   0.26951   0.28528
 Alpha virt. eigenvalues --    0.28695   0.30341   0.30481   0.31001   0.32495
 Alpha virt. eigenvalues --    0.33995   0.35141   0.36026   0.37669   0.39477
 Alpha virt. eigenvalues --    0.40077   0.43765   0.44258   0.45327   0.47714
 Alpha virt. eigenvalues --    0.51440   0.55588   0.65173   0.70150   0.71994
 Alpha virt. eigenvalues --    0.74223   0.75094   0.76752   0.78801   0.81498
 Alpha virt. eigenvalues --    0.83181   0.87173   0.89179   0.90925   0.92943
 Alpha virt. eigenvalues --    0.94011   0.94367   0.97070   0.99767   1.00116
 Alpha virt. eigenvalues --    1.02779   1.04673   1.08297   1.12633   1.13637
 Alpha virt. eigenvalues --    1.14447   1.18127   1.18899   1.21821   1.24285
 Alpha virt. eigenvalues --    1.25821   1.27962   1.30565   1.31360   1.33303
 Alpha virt. eigenvalues --    1.34772   1.36139   1.37271   1.38683   1.40866
 Alpha virt. eigenvalues --    1.41555   1.42952   1.44763   1.47816   1.51093
 Alpha virt. eigenvalues --    1.54349   1.55587   1.61372   1.68047   1.70285
 Alpha virt. eigenvalues --    1.70887   1.75655   1.76652   1.82168   1.88287
 Alpha virt. eigenvalues --    1.89964   1.91897   1.93728   1.99143   2.02064
 Alpha virt. eigenvalues --    2.04877   2.07030   2.07169   2.10804   2.13233
 Alpha virt. eigenvalues --    2.18822   2.19437   2.22637   2.24407   2.28079
 Alpha virt. eigenvalues --    2.29706   2.30463   2.33965   2.36047   2.38687
 Alpha virt. eigenvalues --    2.40500   2.44289   2.49451   2.51657   2.55015
 Alpha virt. eigenvalues --    2.55503   2.57296   2.60900   2.62251   2.66721
 Alpha virt. eigenvalues --    2.73134   2.74514   2.82844   2.83555   2.85761
 Alpha virt. eigenvalues --    2.87591   2.90246   2.97957   2.98336   3.09847
 Alpha virt. eigenvalues --    3.11752   3.15285   3.22138   3.28827   3.30749
 Alpha virt. eigenvalues --    3.39407   3.50208   3.54426   3.75648   4.02063
 Alpha virt. eigenvalues --    4.22459   4.24712   4.35866   4.43454   4.52355
 Alpha virt. eigenvalues --    4.58313   4.72524   4.84704
          Condensed to atoms (all electrons):
               1          2          3          4          5          6
     1  N    8.308258  -0.769018   0.074154  -0.027794  -0.552131   0.021576
     2  N   -0.769018   7.805825   0.190711   0.066743  -0.313610  -0.056630
     3  C    0.074154   0.190711   5.849575   0.051059  -0.221574   0.417184
     4  C   -0.027794   0.066743   0.051059   5.398085   0.332064  -0.017149
     5  N   -0.552131  -0.313610  -0.221574   0.332064   8.018919  -0.011325
     6  H    0.021576  -0.056630   0.417184  -0.017149  -0.011325   0.404221
     7  H    0.021968  -0.006362  -0.010564   0.390060  -0.063644   0.000313
     8  C   -0.124965   0.368548  -0.223533   0.014132   0.059669  -0.021423
     9  C    0.067623   0.032385   0.027943  -0.023268  -0.049212   0.000653
    10  O    0.035140  -0.079636   0.004120  -0.005022   0.003670   0.000147
    11  O   -0.017276   0.006553  -0.012153   0.008721  -0.028653   0.000020
    12  H    0.000663   0.006751   0.001536  -0.000423  -0.001780   0.000000
    13  H    0.005193  -0.037730   0.004670  -0.000656  -0.002889   0.000179
    14  H    0.012032  -0.053822  -0.040869   0.008653   0.000602  -0.001596
               7          8          9         10         11         12
     1  N    0.021968  -0.124965   0.067623   0.035140  -0.017276   0.000663
     2  N   -0.006362   0.368548   0.032385  -0.079636   0.006553   0.006751
     3  C   -0.010564  -0.223533   0.027943   0.004120  -0.012153   0.001536
     4  C    0.390060   0.014132  -0.023268  -0.005022   0.008721  -0.000423
     5  N   -0.063644   0.059669  -0.049212   0.003670  -0.028653  -0.001780
     6  H    0.000313  -0.021423   0.000653   0.000147   0.000020   0.000000
     7  H    0.427488  -0.002531   0.000912   0.000045  -0.000081  -0.000000
     8  C   -0.002531   5.680656  -0.077270   0.029246   0.011364   0.003416
     9  C    0.000912  -0.077270   4.470238   0.273782   0.446462  -0.000748
    10  O    0.000045   0.029246   0.273782   8.074198  -0.100357   0.227919
    11  O   -0.000081   0.011364   0.446462  -0.100357   8.171219  -0.002440
    12  H   -0.000000   0.003416  -0.000748   0.227919  -0.002440   0.229516
    13  H    0.000001   0.385886   0.006649  -0.005691   0.000471   0.000113
    14  H   -0.000006   0.425479   0.000245  -0.000755  -0.000099  -0.000020
              13         14
     1  N    0.005193   0.012032
     2  N   -0.037730  -0.053822
     3  C    0.004670  -0.040869
     4  C   -0.000656   0.008653
     5  N   -0.002889   0.000602
     6  H    0.000179  -0.001596
     7  H    0.000001  -0.000006
     8  C    0.385886   0.425479
     9  C    0.006649   0.000245
    10  O   -0.005691  -0.000755
    11  O    0.000471  -0.000099
    12  H    0.000113  -0.000020
    13  H    0.526232  -0.038221
    14  H   -0.038221   0.546577
 Mulliken charges:
               1
     1  N   -0.055424
     2  N   -0.160707
     3  C   -0.112257
     4  C   -0.195207
     5  N   -0.170105
     6  H    0.263831
     7  H    0.242403
     8  C   -0.528672
     9  C    0.823605
    10  O   -0.456806
    11  O   -0.483751
    12  H    0.535497
    13  H    0.155792
    14  H    0.141801
 Sum of Mulliken charges =  -0.00000
 Mulliken charges with hydrogens summed into heavy atoms:
               1
     1  N   -0.055424
     2  N   -0.160707
     3  C    0.151574
     4  C    0.047196
     5  N   -0.170105
     8  C   -0.231079
     9  C    0.823605
    10  O    0.078691
    11  O   -0.483751
 Electronic spatial extent (au):  <R**2>=           1045.9711
 Charge=             -0.0000 electrons
 Dipole moment (field-independent basis, Debye):
    X=             -0.6991    Y=              1.2759    Z=              1.7082  Tot=              2.2438
 Quadrupole moment (field-independent basis, Debye-Ang):
   XX=            -28.2940   YY=            -66.6839   ZZ=            -55.0727
   XY=             11.6405   XZ=             -0.1695   YZ=              4.4423
 Traceless Quadrupole moment (field-independent basis, Debye-Ang):
   XX=             21.7229   YY=            -16.6671   ZZ=             -5.0558
   XY=             11.6405   XZ=             -0.1695   YZ=              4.4423
 Octapole moment (field-independent basis, Debye-Ang**2):
  XXX=             21.0051  YYY=            -17.5607  ZZZ=              4.5040  XYY=             -8.5294
  XXY=             26.0286  XXZ=             -1.2805  XZZ=              9.6264  YZZ=             -6.8728
  YYZ=             12.4794  XYZ=              0.3977
 Hexadecapole moment (field-independent basis, Debye-Ang**3):
 XXXX=           -530.4381 YYYY=           -614.9894 ZZZZ=            -65.9032 XXXY=            107.2276
 XXXZ=             -5.0278 YYYX=             35.6597 YYYZ=             35.4017 ZZZX=              0.1356
 ZZZY=             11.5583 XXYY=           -185.6197 XXZZ=           -146.0675 YYZZ=           -117.5231
 XXYZ=             -2.3317 YYXZ=              0.9987 ZZXY=              3.1879
 N-N= 4.502586865500D+02 E-N=-1.995982724268D+03  KE= 4.658423257674D+02
 D1PCM: PCM CHGder 1st derivatives, ID1Alg=3 FixD1E=F DoIter=F DoCFld=F I1PDM=0.
 Calling FoFJK, ICntrl=      2127 FMM=F ISym2X=0 I1Cent= 0 IOpClX= 0 NMat=1 NMatS=1 NMatT=0.
 ***** Axes restored to original set *****
 -------------------------------------------------------------------
 Center     Atomic                   Forces (Hartrees/Bohr)
 Number     Number              X              Y              Z
 -------------------------------------------------------------------
      1        7           0.035679716    0.031697116    0.001469206
      2        7           0.006516090    0.052003124    0.006867776
      3        6          -0.003751510   -0.004557631   -0.003374669
      4        6           0.011757088   -0.002135646   -0.004707261
      5        7          -0.006915195   -0.030648005    0.003514309
      6        1           0.001318342   -0.000522694    0.001648658
      7        1           0.000815342   -0.000991645   -0.000007952
      8        6          -0.005547954   -0.019497878   -0.003694481
      9        6          -0.064711482   -0.125896447   -0.003195030
     10        8           0.048376373    0.078263860   -0.000793874
     11        8           0.001655583    0.036085434   -0.000535758
     12        1          -0.026777950   -0.009606460    0.003325805
     13        1           0.004024318   -0.001864255   -0.001441838
     14        1          -0.002438761   -0.002328873    0.000925108
 -------------------------------------------------------------------
 Cartesian Forces:  Max     0.125896447 RMS     0.029836414

 GradGradGradGradGradGradGradGradGradGradGradGradGradGradGradGradGradGrad
 Berny optimization.
 FormGI is forming the generalized inverse of G from B-inverse, IUseBI=4.
 Internal  Forces:  Max     0.072015603 RMS     0.014229995
 Search for a local minimum.
 Step number   1 out of a maximum of   70
 All quantities printed in internal units (Hartrees-Bohrs-Radians)
 Mixed Optimization -- RFO/linear search
 Second derivative matrix not updated -- first step.
 ITU=  0
     Eigenvalues ---    0.00230   0.00799   0.01425   0.01767   0.02063
     Eigenvalues ---    0.02268   0.02307   0.02420   0.02461   0.04033
     Eigenvalues ---    0.05924   0.16000   0.16000   0.16000   0.16000
     Eigenvalues ---    0.16000   0.22734   0.24760   0.24987   0.24996
     Eigenvalues ---    0.25000   0.25000   0.25319   0.34950   0.35048
     Eigenvalues ---    0.36025   0.36045   0.36185   0.43738   0.45524
     Eigenvalues ---    0.51380   0.55359   0.58406   0.63476   0.94052
     Eigenvalues ---    0.95227
 RFO step:  Lambda=-2.61671701D-02 EMin= 2.30000000D-03
 Linear search not attempted -- first point.
 Iteration  1 RMS(Cart)=  0.05445192 RMS(Int)=  0.00177818
 Iteration  2 RMS(Cart)=  0.00220384 RMS(Int)=  0.00025556
 Iteration  3 RMS(Cart)=  0.00000289 RMS(Int)=  0.00025555
 Iteration  4 RMS(Cart)=  0.00000000 RMS(Int)=  0.00025555
 Variable       Old X    -DE/DX   Delta X   Delta X   Delta X     New X
                                 (Linear)    (Quad)   (Total)
    R1        2.53140   0.00966   0.00000   0.01861   0.01870   2.55010
    R2        2.46538   0.01940   0.00000   0.02955   0.02952   2.49491
    R3        2.98405  -0.04287   0.00000  -0.15346  -0.15346   2.83059
    R4        2.52036   0.00685   0.00000   0.01140   0.01148   2.53183
    R5        2.77311  -0.02383   0.00000  -0.06164  -0.06164   2.71147
    R6        2.62636   0.00941   0.00000   0.01597   0.01593   2.64229
    R7        2.04042  -0.00140   0.00000  -0.00361  -0.00361   2.03681
    R8        2.52066  -0.00998   0.00000  -0.01788  -0.01798   2.50268
    R9        2.03793   0.00017   0.00000   0.00043   0.00043   2.03836
   R10        2.05757   0.00051   0.00000   0.00137   0.00137   2.05894
   R11        2.05597   0.00101   0.00000   0.00268   0.00268   2.05865
   R12        2.31120   0.07202   0.00000   0.07450   0.07450   2.38569
   R13        2.30613  -0.03198   0.00000  -0.03268  -0.03268   2.27345
   R14        1.91372  -0.02808   0.00000  -0.05832  -0.05832   1.85539
    A1        1.93667   0.01103   0.00000   0.04643   0.04645   1.98313
    A2        2.21304   0.00649   0.00000   0.02030   0.02028   2.23333
    A3        2.13332  -0.01752   0.00000  -0.06666  -0.06668   2.06664
    A4        1.88042  -0.01435   0.00000  -0.04786  -0.04794   1.83248
    A5        2.19700   0.00653   0.00000   0.02123   0.02089   2.21789
    A6        2.20548   0.00778   0.00000   0.02571   0.02538   2.23086
    A7        1.84526   0.00624   0.00000   0.01991   0.01989   1.86515
    A8        2.11984  -0.00345   0.00000  -0.01171  -0.01175   2.10809
    A9        2.31808  -0.00279   0.00000  -0.00821  -0.00823   2.30985
   A10        1.89694   0.00677   0.00000   0.01823   0.01798   1.91492
   A11        2.25849  -0.00208   0.00000  -0.00212  -0.00213   2.25636
   A12        2.12775  -0.00468   0.00000  -0.01609  -0.01611   2.11164
   A13        1.86548  -0.00968   0.00000  -0.03666  -0.03686   1.82863
   A14        1.90905  -0.00075   0.00000  -0.00281  -0.00282   1.90623
   A15        1.84411  -0.00509   0.00000  -0.02600  -0.02602   1.81809
   A16        1.92926   0.00335   0.00000   0.02080   0.02076   1.95002
   A17        1.95964  -0.00723   0.00000  -0.02619  -0.02619   1.93345
   A18        1.93601   0.02292   0.00000   0.08300   0.08300   2.01901
   A19        2.38752  -0.01569   0.00000  -0.05680  -0.05680   2.33072
   A20        2.03086  -0.01046   0.00000  -0.05621  -0.05621   1.97465
    D1       -0.00312  -0.00001   0.00000  -0.00193  -0.00182  -0.00494
    D2       -3.12034   0.00162   0.00000   0.03735   0.03706  -3.08328
    D3       -3.12635  -0.00001   0.00000  -0.00489  -0.00490  -3.13126
    D4        0.03961   0.00163   0.00000   0.03438   0.03398   0.07359
    D5        0.00163   0.00100   0.00000   0.02014   0.01994   0.02157
    D6        3.12585   0.00127   0.00000   0.02394   0.02362  -3.13371
    D7        0.03013   0.00088   0.00000   0.02721   0.02713   0.05727
    D8       -3.11601   0.00084   0.00000   0.02728   0.02722  -3.08878
    D9       -3.09120   0.00058   0.00000   0.02272   0.02278  -3.06841
   D10        0.04585   0.00054   0.00000   0.02280   0.02287   0.06872
   D11        0.00319  -0.00093   0.00000  -0.01630  -0.01633  -0.01314
   D12       -3.13711  -0.00036   0.00000  -0.00466  -0.00443  -3.14154
   D13        3.12026  -0.00260   0.00000  -0.05590  -0.05570   3.06457
   D14       -0.02003  -0.00203   0.00000  -0.04427  -0.04379  -0.06383
   D15       -1.06756   0.00184   0.00000   0.05624   0.05570  -1.01186
   D16        3.13863   0.00110   0.00000   0.04766   0.04709  -3.09746
   D17        2.10286   0.00407   0.00000   0.10368   0.10425   2.20710
   D18        0.02586   0.00333   0.00000   0.09510   0.09564   0.12150
   D19       -0.00227   0.00151   0.00000   0.02870   0.02949   0.02722
   D20        3.14027   0.00019   0.00000   0.00352   0.00394  -3.13897
   D21        3.13781   0.00085   0.00000   0.01517   0.01566  -3.12971
   D22       -0.00283  -0.00047   0.00000  -0.01001  -0.00990  -0.01272
   D23        0.00042  -0.00154   0.00000  -0.02997  -0.02953  -0.02911
   D24        3.14115  -0.00033   0.00000  -0.00704  -0.00645   3.13469
   D25       -3.03501  -0.00122   0.00000  -0.01886  -0.01887  -3.05388
   D26        0.11278  -0.00133   0.00000  -0.01954  -0.01953   0.09325
         Item               Value     Threshold  Converged?
 Maximum Force            0.072016     0.000450     NO 
 RMS     Force            0.014230     0.000300     NO 
 Maximum Displacement     0.158388     0.001800     NO 
 RMS     Displacement     0.054881     0.001200     NO 
 Predicted change in Energy=-1.448189D-02
 GradGradGradGradGradGradGradGradGradGradGradGradGradGradGradGradGradGrad

                          Input orientation:                          
 ---------------------------------------------------------------------
 Center     Atomic      Atomic             Coordinates (Angstroms)
 Number     Number       Type             X           Y           Z
 ---------------------------------------------------------------------
      1          7           0        0.024477   -0.294225    0.004135
      2          7           0       -0.843928    0.738648   -0.004469
      3          6           0       -2.057578    0.171145    0.000716
      4          6           0       -1.858282   -1.212807   -0.005080
      5          7           0       -0.560891   -1.477498    0.020395
      6          1           0       -2.949522    0.776236   -0.004273
      7          1           0       -2.587357   -2.007754   -0.005671
      8          6           0       -0.526126    2.135312   -0.088872
      9          6           0        1.521314   -0.239414    0.015465
     10          8           0        1.925241    0.954722    0.083836
     11          8           0        2.082340   -1.302430   -0.035456
     12          1           0        2.901210    1.036460    0.014562
     13          1           0        0.127103    2.405246    0.740303
     14          1           0       -1.492527    2.633348   -0.019602
 ---------------------------------------------------------------------
                    Distance matrix (angstroms):
                    1          2          3          4          5
     1  N    0.000000
     2  N    1.349455   0.000000
     3  C    2.133433   1.339789   0.000000
     4  C    2.094913   2.199339   1.398240   0.000000
     5  N    1.320248   2.234286   2.226765   1.324362   0.000000
     6  H    3.160796   2.105930   1.077833   2.268721   3.284126
     7  H    3.123773   3.253040   2.242388   1.078652   2.094854
     8  C    2.492883   1.434849   2.492253   3.604381   3.614629
     9  C    1.497882   2.559564   3.602393   3.517042   2.422489
    10  O    2.275769   2.778989   4.060018   4.361323   3.478587
    11  O    2.291908   3.567913   4.394502   3.941759   2.649611
    12  H    3.169609   3.757008   5.033740   5.264252   4.278570
    13  H    2.799932   2.067639   3.211078   4.193764   4.008404
    14  H    3.297355   2.002698   2.526290   3.863534   4.215282
                    6          7          8          9         10
     6  H    0.000000
     7  H    2.807448   0.000000
     8  C    2.779765   4.628239   0.000000
     9  C    4.584790   4.473103   3.137231   0.000000
    10  O    4.878825   5.398872   2.726321   1.262454   0.000000
    11  O    5.444397   4.722758   4.315672   1.203057   2.265754
    12  H    5.856546   6.276306   3.600667   1.879353   0.981832
    13  H    3.560012   5.234437   1.089542   3.076270   2.401722
    14  H    2.360495   4.768509   1.089389   4.163799   3.809151
                   11         12         13         14
    11  O    0.000000
    12  H    2.478599   0.000000
    13  H    4.262818   3.177411   0.000000
    14  H    5.316980   4.675055   1.803521   0.000000
 Stoichiometry    C4H5N3O2
 Framework group  C1[X(C4H5N3O2)]
 Deg. of freedom    36
 Full point group                 C1      NOp   1
 Largest Abelian subgroup         C1      NOp   1
 Largest concise Abelian subgroup C1      NOp   1
                         Standard orientation:                         
 ---------------------------------------------------------------------
 Center     Atomic      Atomic             Coordinates (Angstroms)
 Number     Number       Type             X           Y           Z
 ---------------------------------------------------------------------
      1          7           0        0.014980   -0.293470   -0.003535
      2          7           0       -0.866751    0.727951   -0.020203
      3          6           0       -2.072879    0.145085    0.003395
      4          6           0       -1.855755   -1.236132    0.016381
      5          7           0       -0.554886   -1.483772    0.035030
      6          1           0       -2.972585    0.738559   -0.003150
      7          1           0       -2.574469   -2.040276    0.033554
      8          6           0       -0.567731    2.127163   -0.127840
      9          6           0        1.511025   -0.219324   -0.005394
     10          8           0        1.900015    0.980773    0.042000
     11          8           0        2.085323   -1.275705   -0.045255
     12          1           0        2.874253    1.073969   -0.036542
     13          1           0        0.088630    2.417741    0.691829
     14          1           0       -1.539900    2.613752   -0.057940
 ---------------------------------------------------------------------
 Rotational constants (GHZ):           2.9116633           1.7233074           1.0860959
 Standard basis: 6-31+G(d,p) (6D, 7F)
 There are   196 symmetry adapted cartesian basis functions of A   symmetry.
 There are   196 symmetry adapted basis functions of A   symmetry.
   196 basis functions,   323 primitive gaussians,   196 cartesian basis functions
    33 alpha electrons       33 beta electrons
       nuclear repulsion energy       453.6173044467 Hartrees.
 NAtoms=   14 NActive=   14 NUniq=   14 SFac= 1.00D+00 NAtFMM=   60 NAOKFM=F Big=F
 Integral buffers will be    131072 words long.
 Raffenetti 2 integral format.
 Two-electron integral symmetry is turned on.
 ------------------------------------------------------------------------------
 Polarizable Continuum Model (PCM)
 =================================
 Model                : PCM.
 Atomic radii         : SMD-Coulomb.
 Polarization charges : Total charges.
 Charge compensation  : None.
 Solution method      : On-the-fly selection.
 Cavity type          : VdW (van der Waals Surface) (Alpha=1.000).
 Cavity algorithm     : GePol (No added spheres)
                        Default sphere list used, NSphG=   14.
                        Lebedev-Laikov grids with approx.  5.0 points / Ang**2.
                        Smoothing algorithm: York/Karplus (Gamma=1.0000).
                        Polarization charges: spherical gaussians, with
                                              point-specific exponents (IZeta= 3).
                        Self-potential: point-specific (ISelfS= 7).
                        Self-field    : sphere-specific E.n sum rule (ISelfD= 2).
 1st derivatives      : Analytical E(r).r(x)/FMM algorithm (CHGder, D1EAlg=3).
                        Cavity 1st derivative terms included.
 Solvent              : Water, Eps=  78.355300 Eps(inf)=   1.777849
 ------------------------------------------------------------------------------
 Spheres list:
 ISph  on   Nord     Re0    Alpha      Xe            Ye            Ze
    1   N      1    1.8900  1.000      0.014980     -0.293470     -0.003535
    2   N      2    1.8900  1.000     -0.866751      0.727951     -0.020203
    3   C      3    1.8500  1.000     -2.072879      0.145085      0.003395
    4   C      4    1.8500  1.000     -1.855755     -1.236132      0.016381
    5   N      5    1.8900  1.000     -0.554886     -1.483772      0.035030
    6   H      6    1.2000  1.000     -2.972585      0.738559     -0.003150
    7   H      7    1.2000  1.000     -2.574469     -2.040276      0.033554
    8   C      8    1.8500  1.000     -0.567731      2.127163     -0.127840
    9   C      9    1.8500  1.000      1.511025     -0.219324     -0.005394
   10   O     10    1.5200  1.000      1.900015      0.980773      0.042000
   11   O     11    1.5200  1.000      2.085323     -1.275705     -0.045255
   12   H     12    1.2000  1.000      2.874253      1.073969     -0.036542
   13   H     13    1.2000  1.000      0.088630      2.417741      0.691829
   14   H     14    1.2000  1.000     -1.539900      2.613752     -0.057940
 ------------------------------------------------------------------------------
 ------------------------------------------------------------------------------
 Atomic radii for non-electrostatic terms: SMD-CDS.
 ------------------------------------------------------------------------------
 Nuclear repulsion after PCM non-electrostatic terms =      453.6277738695 Hartrees.
 One-electron integrals computed using PRISM.
 NBasis=   196 RedAO= T EigKep=  1.95D-05  NBF=   196
 NBsUse=   196 1.00D-06 EigRej= -1.00D+00 NBFU=   196
 Initial guess from the checkpoint file:  "/home/gau/soft/scratch/Gau-89863.chk"
 B after Tr=     0.000000    0.000000   -0.000000
         Rot=    0.999953   -0.000001   -0.000421   -0.009682 Ang=  -1.11 deg.
 ExpMin= 4.38D-02 ExpMax= 5.48D+03 ExpMxC= 8.25D+02 IAcc=3 IRadAn=         5 AccDes= 0.00D+00
 Harris functional with IExCor= 1009 and IRadAn=       5 diagonalized for initial guess.
 HarFok:  IExCor= 1009 AccDes= 0.00D+00 IRadAn=         5 IDoV= 1 UseB2=F ITyADJ=14
 ICtDFT=  3500011 ScaDFX=  1.000000  1.000000  1.000000  1.000000
 FoFCou: FMM=F IPFlag=           0 FMFlag=      100000 FMFlg1=           0
         NFxFlg=           0 DoJE=T BraDBF=F KetDBF=T FulRan=T
         wScrn=  0.000000 ICntrl=       500 IOpCl=  0 I1Cent=   200000004 NGrid=           0
         NMat0=    1 NMatS0=      1 NMatT0=    0 NMatD0=    1 NMtDS0=    0 NMtDT0=    0
 Petite list used in FoFCou.
 Requested convergence on RMS density matrix=1.00D-08 within 128 cycles.
 Requested convergence on MAX density matrix=1.00D-06.
 Requested convergence on             energy=1.00D-06.
 No special actions if energy rises.
 Inv3:  Mode=1 IEnd=     4291248.
 Iteration    1 A*A^-1 deviation from unit magnitude is 4.55D-15 for   1185.
 Iteration    1 A*A^-1 deviation from orthogonality  is 1.39D-15 for    742    145.
 Iteration    1 A^-1*A deviation from unit magnitude is 4.55D-15 for   1185.
 Iteration    1 A^-1*A deviation from orthogonality  is 3.11D-15 for    424    397.
 Error on total polarization charges =  0.04565
 SCF Done:  E(RM062X) =  -469.857066630     A.U. after   14 cycles
            NFock= 14  Conv=0.67D-08     -V/T= 2.0083
 SMD-CDS (non-electrostatic) energy       (kcal/mol) =       6.57
 (included in total energy above)
 D1PCM: PCM CHGder 1st derivatives, ID1Alg=3 FixD1E=F DoIter=F DoCFld=F I1PDM=0.
 Calling FoFJK, ICntrl=      2127 FMM=F ISym2X=0 I1Cent= 0 IOpClX= 0 NMat=1 NMatS=1 NMatT=0.
 ***** Axes restored to original set *****
 -------------------------------------------------------------------
 Center     Atomic                   Forces (Hartrees/Bohr)
 Number     Number              X              Y              Z
 -------------------------------------------------------------------
      1        7           0.045934094    0.013867868    0.002577938
      2        7           0.001421929    0.019751105    0.003101737
      3        6          -0.006754266   -0.003913618   -0.005274211
      4        6           0.003102608    0.000364525   -0.000523581
      5        7          -0.012866805   -0.010787985   -0.000674765
      6        1          -0.000260869   -0.000214005    0.001061873
      7        1          -0.001021254    0.000378210    0.000313621
      8        6          -0.008779889   -0.016403767    0.005224826
      9        6          -0.054162680   -0.047726951   -0.001509395
     10        8           0.022505383    0.038322545    0.000584605
     11        8           0.010825512    0.007261736   -0.000811533
     12        1          -0.004105912   -0.003312927    0.001137891
     13        1           0.003514564    0.000974148   -0.004687685
     14        1           0.000647585    0.001439116   -0.000521321
 -------------------------------------------------------------------
 Cartesian Forces:  Max     0.054162680 RMS     0.016105872

 GradGradGradGradGradGradGradGradGradGradGradGradGradGradGradGradGradGrad
 Berny optimization.
 Using GEDIIS/GDIIS optimizer.
 FormGI is forming the generalized inverse of G from B-inverse, IUseBI=4.
 Internal  Forces:  Max     0.039157579 RMS     0.007586688
 Search for a local minimum.
 Step number   2 out of a maximum of   70
 All quantities printed in internal units (Hartrees-Bohrs-Radians)
 Mixed Optimization -- RFO/linear search
 Update second derivatives using D2CorX and points    1    2
 DE= -1.90D-02 DEPred=-1.45D-02 R= 1.31D+00
 TightC=F SS=  1.41D+00  RLast= 3.27D-01 DXNew= 5.0454D-01 9.8083D-01
 Trust test= 1.31D+00 RLast= 3.27D-01 DXMaxT set to 5.05D-01
 ITU=  1  0
 Use linear search instead of GDIIS.
     Eigenvalues ---    0.00231   0.00789   0.01457   0.01744   0.01888
     Eigenvalues ---    0.02267   0.02308   0.02418   0.02496   0.04022
     Eigenvalues ---    0.05910   0.13465   0.15996   0.15998   0.16000
     Eigenvalues ---    0.16355   0.17172   0.22712   0.24908   0.24937
     Eigenvalues ---    0.24999   0.25121   0.30781   0.34844   0.35015
     Eigenvalues ---    0.35056   0.36038   0.36187   0.43588   0.47531
     Eigenvalues ---    0.51150   0.54932   0.58804   0.61999   0.83277
     Eigenvalues ---    0.98316
 RFO step:  Lambda=-1.07343995D-02 EMin= 2.30835867D-03
 Quartic linear search produced a step of  0.67277.
 Iteration  1 RMS(Cart)=  0.05771627 RMS(Int)=  0.00528318
 Iteration  2 RMS(Cart)=  0.00508663 RMS(Int)=  0.00104074
 Iteration  3 RMS(Cart)=  0.00004203 RMS(Int)=  0.00104024
 Iteration  4 RMS(Cart)=  0.00000024 RMS(Int)=  0.00104024
 Variable       Old X    -DE/DX   Delta X   Delta X   Delta X     New X
                                 (Linear)    (Quad)   (Total)
    R1        2.55010   0.00837   0.01258   0.02149   0.03433   2.58443
    R2        2.49491   0.01513   0.01986   0.03085   0.05073   2.54564
    R3        2.83059  -0.02511  -0.10325  -0.10279  -0.20604   2.62455
    R4        2.53183   0.00707   0.00772   0.01580   0.02367   2.55550
    R5        2.71147  -0.01467  -0.04147  -0.04531  -0.08678   2.62469
    R6        2.64229  -0.00110   0.01072  -0.01276  -0.00222   2.64007
    R7        2.03681   0.00008  -0.00243   0.00148  -0.00095   2.03586
    R8        2.50268  -0.00161  -0.01210  -0.00107  -0.01343   2.48925
    R9        2.03836   0.00041   0.00029   0.00168   0.00197   2.04032
   R10        2.05894  -0.00124   0.00092  -0.00607  -0.00514   2.05379
   R11        2.05865   0.00007   0.00180  -0.00054   0.00126   2.05991
   R12        2.38569   0.03916   0.05012   0.04734   0.09746   2.48316
   R13        2.27345  -0.00135  -0.02199   0.00651  -0.01548   2.25797
   R14        1.85539  -0.00444  -0.03924   0.00188  -0.03735   1.81804
    A1        1.98313  -0.00764   0.03125  -0.05302  -0.02154   1.96159
    A2        2.23333   0.00537   0.01365   0.02125   0.03468   2.26800
    A3        2.06664   0.00228  -0.04486   0.03201  -0.01306   2.05357
    A4        1.83248   0.00120  -0.03225   0.02953  -0.00292   1.82956
    A5        2.21789  -0.00009   0.01406  -0.01138   0.00176   2.21966
    A6        2.23086  -0.00120   0.01707  -0.01999  -0.00384   2.22702
    A7        1.86515   0.00133   0.01338  -0.00624   0.00712   1.87227
    A8        2.10809  -0.00030  -0.00791   0.00753  -0.00046   2.10763
    A9        2.30985  -0.00103  -0.00554  -0.00094  -0.00657   2.30329
   A10        1.91492   0.00226   0.01210  -0.00192   0.00977   1.92469
   A11        2.25636  -0.00211  -0.00143  -0.01100  -0.01234   2.24402
   A12        2.11164  -0.00015  -0.01084   0.01347   0.00272   2.11436
   A13        1.82863   0.00287  -0.02480   0.03306   0.00801   1.83664
   A14        1.90623   0.00545  -0.00190   0.07046   0.06590   1.97213
   A15        1.81809   0.00348  -0.01750   0.06286   0.04244   1.86053
   A16        1.95002   0.00046   0.01397   0.03674   0.04570   1.99572
   A17        1.93345   0.00353  -0.01762   0.03131   0.01361   1.94705
   A18        2.01901   0.01297   0.05584   0.05272   0.10846   2.12747
   A19        2.33072  -0.01650  -0.03821  -0.08392  -0.12220   2.20852
   A20        1.97465  -0.00525  -0.03781  -0.02771  -0.06553   1.90913
    D1       -0.00494   0.00006  -0.00123   0.00259   0.00133  -0.00361
    D2       -3.08328   0.00146   0.02493   0.03282   0.05756  -3.02572
    D3       -3.13126  -0.00038  -0.00330  -0.01733  -0.02079   3.13113
    D4        0.07359   0.00103   0.02286   0.01291   0.03543   0.10902
    D5        0.02157  -0.00019   0.01342  -0.02833  -0.01485   0.00673
    D6       -3.13371   0.00024   0.01589  -0.01049   0.00478  -3.12893
    D7        0.05727   0.00040   0.01826  -0.01180   0.00582   0.06309
    D8       -3.08878   0.00073   0.01832   0.00832   0.02731  -3.06147
    D9       -3.06841   0.00002   0.01533  -0.03190  -0.01725  -3.08566
   D10        0.06872   0.00036   0.01539  -0.01178   0.00425   0.07297
   D11       -0.01314   0.00014  -0.01099   0.02341   0.01227  -0.00087
   D12       -3.14154  -0.00013  -0.00298  -0.00045  -0.00344   3.13821
   D13        3.06457  -0.00122  -0.03747  -0.00669  -0.04400   3.02056
   D14       -0.06383  -0.00149  -0.02946  -0.03055  -0.05971  -0.12354
   D15       -1.01186   0.00405   0.03747   0.11040   0.14946  -0.86241
   D16       -3.09746  -0.00103   0.03168  -0.00092   0.02845  -3.06901
   D17        2.20710   0.00567   0.07013   0.14559   0.21804   2.42514
   D18        0.12150   0.00059   0.06435   0.03428   0.09704   0.21854
   D19        0.02722  -0.00018   0.01984  -0.04245  -0.02209   0.00514
   D20       -3.13897  -0.00027   0.00265  -0.01647  -0.01356   3.13065
   D21       -3.12971   0.00014   0.01054  -0.01463  -0.00384  -3.13356
   D22       -0.01272   0.00005  -0.00666   0.01135   0.00469  -0.00804
   D23       -0.02911   0.00016  -0.01987   0.04162   0.02202  -0.00709
   D24        3.13469   0.00028  -0.00434   0.01855   0.01449  -3.13400
   D25       -3.05388  -0.00067  -0.01269  -0.00232  -0.01626  -3.07014
   D26        0.09325  -0.00121  -0.01314  -0.02791  -0.03981   0.05345
         Item               Value     Threshold  Converged?
 Maximum Force            0.039158     0.000450     NO 
 RMS     Force            0.007587     0.000300     NO 
 Maximum Displacement     0.265257     0.001800     NO 
 RMS     Displacement     0.059913     0.001200     NO 
 Predicted change in Energy=-1.089083D-02
 GradGradGradGradGradGradGradGradGradGradGradGradGradGradGradGradGradGrad

                          Input orientation:                          
 ---------------------------------------------------------------------
 Center     Atomic      Atomic             Coordinates (Angstroms)
 Number     Number       Type             X           Y           Z
 ---------------------------------------------------------------------
      1          7           0        0.055109   -0.275459    0.022812
      2          7           0       -0.840532    0.758079    0.027165
      3          6           0       -2.054975    0.163659    0.003834
      4          6           0       -1.840865   -1.216773   -0.014965
      5          7           0       -0.550050   -1.478799    0.002391
      6          1           0       -2.956900    0.752869    0.004732
      7          1           0       -2.571840   -2.011305   -0.026511
      8          6           0       -0.558327    2.113685   -0.081516
      9          6           0        1.443751   -0.252123    0.028737
     10          8           0        1.905655    0.974858    0.117262
     11          8           0        2.092343   -1.251913   -0.057572
     12          1           0        2.865537    0.960029    0.054208
     13          1           0        0.222590    2.440749    0.599935
     14          1           0       -1.506023    2.639433    0.035477
 ---------------------------------------------------------------------
                    Distance matrix (angstroms):
                    1          2          3          4          5
     1  N    0.000000
     2  N    1.367623   0.000000
     3  C    2.155375   1.352314   0.000000
     4  C    2.117125   2.214155   1.397065   0.000000
     5  N    1.347093   2.255796   2.227661   1.317256   0.000000
     6  H    3.182764   2.116494   1.077329   2.263938   3.282267
     7  H    3.149040   3.266465   2.235741   1.079693   2.090941
     8  C    2.468846   1.388928   2.459643   3.569494   3.593474
     9  C    1.388850   2.497690   3.523433   3.423618   2.341083
    10  O    2.235338   2.756203   4.044441   4.342482   3.473344
    11  O    2.260585   3.556543   4.382678   3.933596   2.652793
    12  H    3.070167   3.711666   4.984796   5.185892   4.197237
    13  H    2.781889   2.071153   3.275329   4.244222   4.039417
    14  H    3.306643   1.995605   2.536100   3.871045   4.227861
                    6          7          8          9         10
     6  H    0.000000
     7  H    2.791040   0.000000
     8  C    2.759060   4.590513   0.000000
     9  C    4.514013   4.384375   3.101212   0.000000
    10  O    4.868920   5.383847   2.721700   1.314030   0.000000
    11  O    5.433037   4.725700   4.284143   1.194865   2.241413
    12  H    5.826332   6.196807   3.615548   1.868539   0.962065
    13  H    3.648611   5.293587   1.086820   3.011488   2.283532
    14  H    2.380150   4.771705   1.090057   4.130654   3.796978
                   11         12         13         14
    11  O    0.000000
    12  H    2.345850   0.000000
    13  H    4.190948   3.078233   0.000000
    14  H    5.300893   4.683085   1.829259   0.000000
 Stoichiometry    C4H5N3O2
 Framework group  C1[X(C4H5N3O2)]
 Deg. of freedom    36
 Full point group                 C1      NOp   1
 Largest Abelian subgroup         C1      NOp   1
 Largest concise Abelian subgroup C1      NOp   1
                         Standard orientation:                         
 ---------------------------------------------------------------------
 Center     Atomic      Atomic             Coordinates (Angstroms)
 Number     Number       Type             X           Y           Z
 ---------------------------------------------------------------------
      1          7           0        0.048043   -0.281566    0.012035
      2          7           0       -0.856173    0.744425    0.000649
      3          6           0       -2.065745    0.139713    0.003994
      4          6           0       -1.840228   -1.238975    0.016225
      5          7           0       -0.547145   -1.489951    0.026729
      6          1           0       -2.972541    0.721385   -0.000094
      7          1           0       -2.564572   -2.039500    0.031240
      8          6           0       -0.586482    2.099273   -0.143477
      9          6           0        1.436429   -0.246749    0.003251
     10          8           0        1.888856    0.985744    0.057528
     11          8           0        2.092515   -1.242999   -0.065587
     12          1           0        2.848151    0.977240   -0.014925
     13          1           0        0.198422    2.449059    0.521920
     14          1           0       -1.537351    2.619931   -0.029516
 ---------------------------------------------------------------------
 Rotational constants (GHZ):           2.9456507           1.7485897           1.1003578
 Standard basis: 6-31+G(d,p) (6D, 7F)
 There are   196 symmetry adapted cartesian basis functions of A   symmetry.
 There are   196 symmetry adapted basis functions of A   symmetry.
   196 basis functions,   323 primitive gaussians,   196 cartesian basis functions
    33 alpha electrons       33 beta electrons
       nuclear repulsion energy       455.9329215927 Hartrees.
 NAtoms=   14 NActive=   14 NUniq=   14 SFac= 1.00D+00 NAtFMM=   60 NAOKFM=F Big=F
 Integral buffers will be    131072 words long.
 Raffenetti 2 integral format.
 Two-electron integral symmetry is turned on.
 ------------------------------------------------------------------------------
 Polarizable Continuum Model (PCM)
 =================================
 Model                : PCM.
 Atomic radii         : SMD-Coulomb.
 Polarization charges : Total charges.
 Charge compensation  : None.
 Solution method      : On-the-fly selection.
 Cavity type          : VdW (van der Waals Surface) (Alpha=1.000).
 Cavity algorithm     : GePol (No added spheres)
                        Default sphere list used, NSphG=   14.
                        Lebedev-Laikov grids with approx.  5.0 points / Ang**2.
                        Smoothing algorithm: York/Karplus (Gamma=1.0000).
                        Polarization charges: spherical gaussians, with
                                              point-specific exponents (IZeta= 3).
                        Self-potential: point-specific (ISelfS= 7).
                        Self-field    : sphere-specific E.n sum rule (ISelfD= 2).
 1st derivatives      : Analytical E(r).r(x)/FMM algorithm (CHGder, D1EAlg=3).
                        Cavity 1st derivative terms included.
 Solvent              : Water, Eps=  78.355300 Eps(inf)=   1.777849
 ------------------------------------------------------------------------------
 Spheres list:
 ISph  on   Nord     Re0    Alpha      Xe            Ye            Ze
    1   N      1    1.8900  1.000      0.048043     -0.281566      0.012035
    2   N      2    1.8900  1.000     -0.856173      0.744425      0.000649
    3   C      3    1.8500  1.000     -2.065745      0.139713      0.003994
    4   C      4    1.8500  1.000     -1.840228     -1.238975      0.016225
    5   N      5    1.8900  1.000     -0.547145     -1.489951      0.026729
    6   H      6    1.2000  1.000     -2.972541      0.721385     -0.000094
    7   H      7    1.2000  1.000     -2.564572     -2.039500      0.031240
    8   C      8    1.8500  1.000     -0.586482      2.099273     -0.143477
    9   C      9    1.8500  1.000      1.436429     -0.246749      0.003251
   10   O     10    1.5200  1.000      1.888856      0.985744      0.057528
   11   O     11    1.5200  1.000      2.092515     -1.242999     -0.065587
   12   H     12    1.2000  1.000      2.848151      0.977240     -0.014925
   13   H     13    1.2000  1.000      0.198422      2.449059      0.521920
   14   H     14    1.2000  1.000     -1.537351      2.619931     -0.029516
 ------------------------------------------------------------------------------
 ------------------------------------------------------------------------------
 Atomic radii for non-electrostatic terms: SMD-CDS.
 ------------------------------------------------------------------------------
 Nuclear repulsion after PCM non-electrostatic terms =      455.9430676688 Hartrees.
 One-electron integrals computed using PRISM.
 NBasis=   196 RedAO= T EigKep=  2.08D-05  NBF=   196
 NBsUse=   196 1.00D-06 EigRej= -1.00D+00 NBFU=   196
 Initial guess from the checkpoint file:  "/home/gau/soft/scratch/Gau-89863.chk"
 B after Tr=     0.000000    0.000000   -0.000000
         Rot=    0.999999    0.000304   -0.000499   -0.001060 Ang=   0.14 deg.
 ExpMin= 4.38D-02 ExpMax= 5.48D+03 ExpMxC= 8.25D+02 IAcc=3 IRadAn=         5 AccDes= 0.00D+00
 Harris functional with IExCor= 1009 and IRadAn=       5 diagonalized for initial guess.
 HarFok:  IExCor= 1009 AccDes= 0.00D+00 IRadAn=         5 IDoV= 1 UseB2=F ITyADJ=14
 ICtDFT=  3500011 ScaDFX=  1.000000  1.000000  1.000000  1.000000
 FoFCou: FMM=F IPFlag=           0 FMFlag=      100000 FMFlg1=           0
         NFxFlg=           0 DoJE=T BraDBF=F KetDBF=T FulRan=T
         wScrn=  0.000000 ICntrl=       500 IOpCl=  0 I1Cent=   200000004 NGrid=           0
         NMat0=    1 NMatS0=      1 NMatT0=    0 NMatD0=    1 NMtDS0=    0 NMtDT0=    0
 Petite list used in FoFCou.
 Requested convergence on RMS density matrix=1.00D-08 within 128 cycles.
 Requested convergence on MAX density matrix=1.00D-06.
 Requested convergence on             energy=1.00D-06.
 No special actions if energy rises.
 Inv3:  Mode=1 IEnd=     4241163.
 Iteration    1 A*A^-1 deviation from unit magnitude is 3.77D-15 for   1178.
 Iteration    1 A*A^-1 deviation from orthogonality  is 2.65D-15 for    397    243.
 Iteration    1 A^-1*A deviation from unit magnitude is 3.77D-15 for   1178.
 Iteration    1 A^-1*A deviation from orthogonality  is 1.86D-15 for    425    397.
 Error on total polarization charges =  0.04358
 SCF Done:  E(RM062X) =  -469.867416429     A.U. after   15 cycles
            NFock= 15  Conv=0.27D-08     -V/T= 2.0080
 SMD-CDS (non-electrostatic) energy       (kcal/mol) =       6.37
 (included in total energy above)
 D1PCM: PCM CHGder 1st derivatives, ID1Alg=3 FixD1E=F DoIter=F DoCFld=F I1PDM=0.
 Calling FoFJK, ICntrl=      2127 FMM=F ISym2X=0 I1Cent= 0 IOpClX= 0 NMat=1 NMatS=1 NMatT=0.
 ***** Axes restored to original set *****
 -------------------------------------------------------------------
 Center     Atomic                   Forces (Hartrees/Bohr)
 Number     Number              X              Y              Z
 -------------------------------------------------------------------
      1        7          -0.005914223   -0.005076115    0.002474951
      2        7           0.000714608    0.015236848   -0.004130014
      3        6          -0.004728358   -0.001861668   -0.001598907
      4        6           0.005241631    0.004707691   -0.002266361
      5        7          -0.007480447   -0.012866056    0.001433702
      6        1           0.000399798    0.000663995    0.000909150
      7        1          -0.000313034    0.000286329   -0.000025352
      8        6          -0.008716597   -0.009688983    0.015138609
      9        6          -0.002118252    0.021650866   -0.000366976
     10        8          -0.007882079    0.008007194    0.001286665
     11        8           0.013348187   -0.021668399   -0.001276938
     12        1           0.012194029   -0.000641950   -0.000405225
     13        1           0.002336867    0.000217499   -0.007766450
     14        1           0.002917871    0.001032748   -0.003406852
 -------------------------------------------------------------------
 Cartesian Forces:  Max     0.021668399 RMS     0.007731859

 GradGradGradGradGradGradGradGradGradGradGradGradGradGradGradGradGradGrad
 Berny optimization.
 Using GEDIIS/GDIIS optimizer.
 FormGI is forming the generalized inverse of G from B-inverse, IUseBI=4.
 Internal  Forces:  Max     0.025465871 RMS     0.005326731
 Search for a local minimum.
 Step number   3 out of a maximum of   70
 All quantities printed in internal units (Hartrees-Bohrs-Radians)
 Mixed Optimization -- RFO/linear search
 Update second derivatives using D2CorX and points    2    3
 DE= -1.03D-02 DEPred=-1.09D-02 R= 9.50D-01
 TightC=F SS=  1.41D+00  RLast= 4.50D-01 DXNew= 8.4853D-01 1.3507D+00
 Trust test= 9.50D-01 RLast= 4.50D-01 DXMaxT set to 8.49D-01
 ITU=  1  1  0
 Use linear search instead of GDIIS.
     Eigenvalues ---    0.00231   0.00780   0.01446   0.01600   0.01801
     Eigenvalues ---    0.02271   0.02309   0.02408   0.02505   0.03966
     Eigenvalues ---    0.04243   0.14263   0.15999   0.16000   0.16016
     Eigenvalues ---    0.16289   0.19186   0.22990   0.24677   0.24989
     Eigenvalues ---    0.25061   0.27182   0.30469   0.34928   0.35004
     Eigenvalues ---    0.35315   0.36040   0.36189   0.43569   0.48343
     Eigenvalues ---    0.50862   0.54874   0.58635   0.60931   0.81446
     Eigenvalues ---    1.02649
 RFO step:  Lambda=-6.16920557D-03 EMin= 2.30866736D-03
 Quartic linear search produced a step of  0.03519.
 Iteration  1 RMS(Cart)=  0.05736312 RMS(Int)=  0.00857699
 Iteration  2 RMS(Cart)=  0.00898247 RMS(Int)=  0.00188895
 Iteration  3 RMS(Cart)=  0.00021744 RMS(Int)=  0.00187765
 Iteration  4 RMS(Cart)=  0.00000161 RMS(Int)=  0.00187765
 Iteration  5 RMS(Cart)=  0.00000002 RMS(Int)=  0.00187765
 Variable       Old X    -DE/DX   Delta X   Delta X   Delta X     New X
                                 (Linear)    (Quad)   (Total)
    R1        2.58443   0.00680   0.00121   0.01994   0.02114   2.60557
    R2        2.54564   0.01028   0.00179   0.02681   0.02860   2.57424
    R3        2.62455   0.01566  -0.00725   0.01553   0.00828   2.63282
    R4        2.55550   0.00090   0.00083   0.00551   0.00633   2.56184
    R5        2.62469  -0.00925  -0.00305  -0.04394  -0.04699   2.57770
    R6        2.64007   0.00011  -0.00008  -0.00003  -0.00010   2.63997
    R7        2.03586   0.00003  -0.00003  -0.00052  -0.00056   2.03530
    R8        2.48925  -0.00029  -0.00047  -0.00517  -0.00562   2.48363
    R9        2.04032   0.00000   0.00007   0.00030   0.00037   2.04069
   R10        2.05379  -0.00313  -0.00018  -0.00924  -0.00942   2.04437
   R11        2.05991  -0.00240   0.00004  -0.00623  -0.00619   2.05372
   R12        2.48316   0.00846   0.00343   0.03089   0.03432   2.51747
   R13        2.25797   0.02547  -0.00054   0.02037   0.01982   2.27779
   R14        1.81804   0.01220  -0.00131   0.01417   0.01285   1.83089
    A1        1.96159  -0.00135  -0.00076   0.00354   0.00268   1.96427
    A2        2.26800  -0.00580   0.00122  -0.01840  -0.01714   2.25087
    A3        2.05357   0.00714  -0.00046   0.01482   0.01440   2.06798
    A4        1.82956   0.00011  -0.00010  -0.00477  -0.00503   1.82453
    A5        2.21966  -0.00024   0.00006   0.00115   0.00120   2.22085
    A6        2.22702   0.00012  -0.00014   0.00245   0.00234   2.22936
    A7        1.87227  -0.00032   0.00025  -0.00322  -0.00308   1.86918
    A8        2.10763  -0.00064  -0.00002  -0.00310  -0.00308   2.10455
    A9        2.30329   0.00096  -0.00023   0.00635   0.00615   2.30944
   A10        1.92469   0.00541   0.00034   0.02180   0.02192   1.94661
   A11        2.24402  -0.00313  -0.00043  -0.01357  -0.01411   2.22991
   A12        2.11436  -0.00228   0.00010  -0.00868  -0.00870   2.10566
   A13        1.83664  -0.00385   0.00028  -0.01758  -0.01739   1.81925
   A14        1.97213   0.00589   0.00232   0.06829   0.06417   2.03630
   A15        1.86053   0.00579   0.00149   0.06429   0.05902   1.91955
   A16        1.99572   0.00052   0.00161   0.06051   0.05281   2.04853
   A17        1.94705   0.00329   0.00048   0.01112   0.01134   1.95840
   A18        2.12747  -0.00227   0.00382   0.01524   0.01879   2.14626
   A19        2.20852  -0.00101  -0.00430  -0.02569  -0.03024   2.17828
   A20        1.90913  -0.00074  -0.00231  -0.01952  -0.02183   1.88730
    D1       -0.00361   0.00008   0.00005   0.00337   0.00339  -0.00022
    D2       -3.02572   0.00014   0.00203   0.01331   0.01539  -3.01033
    D3        3.13113  -0.00001  -0.00073  -0.00240  -0.00318   3.12795
    D4        0.10902   0.00004   0.00125   0.00753   0.00882   0.11784
    D5        0.00673   0.00049  -0.00052   0.01872   0.01800   0.02472
    D6       -3.12893   0.00062   0.00017   0.02386   0.02394  -3.10500
    D7        0.06309   0.00042   0.00020   0.01800   0.01845   0.08153
    D8       -3.06147  -0.00048   0.00096  -0.02209  -0.02131  -3.08278
    D9       -3.08566   0.00029  -0.00061   0.01193   0.01150  -3.07416
   D10        0.07297  -0.00061   0.00015  -0.02816  -0.02826   0.04471
   D11       -0.00087  -0.00059   0.00043  -0.02304  -0.02238  -0.02325
   D12        3.13821  -0.00038  -0.00012  -0.01451  -0.01440   3.12382
   D13        3.02056  -0.00068  -0.00155  -0.03316  -0.03457   2.98600
   D14       -0.12354  -0.00046  -0.00210  -0.02463  -0.02659  -0.15012
   D15       -0.86241   0.00634   0.00526   0.22144   0.22963  -0.63278
   D16       -3.06901  -0.00269   0.00100   0.04902   0.04693  -3.02208
   D17        2.42514   0.00642   0.00767   0.23407   0.24484   2.66998
   D18        0.21854  -0.00261   0.00342   0.06165   0.06214   0.28068
   D19        0.00514   0.00098  -0.00078   0.03655   0.03610   0.04123
   D20        3.13065   0.00013  -0.00048   0.00406   0.00374   3.13440
   D21       -3.13356   0.00073  -0.00014   0.02672   0.02682  -3.10673
   D22       -0.00804  -0.00012   0.00016  -0.00578  -0.00553  -0.01357
   D23       -0.00709  -0.00088   0.00078  -0.03320  -0.03247  -0.03956
   D24       -3.13400  -0.00009   0.00051  -0.00344  -0.00266  -3.13666
   D25       -3.07014  -0.00085  -0.00057  -0.03479  -0.03494  -3.10508
   D26        0.05345   0.00008  -0.00140   0.00809   0.00628   0.05972
         Item               Value     Threshold  Converged?
 Maximum Force            0.025466     0.000450     NO 
 RMS     Force            0.005327     0.000300     NO 
 Maximum Displacement     0.360177     0.001800     NO 
 RMS     Displacement     0.064137     0.001200     NO 
 Predicted change in Energy=-3.759759D-03
 GradGradGradGradGradGradGradGradGradGradGradGradGradGradGradGradGradGrad

                          Input orientation:                          
 ---------------------------------------------------------------------
 Center     Atomic      Atomic             Coordinates (Angstroms)
 Number     Number       Type             X           Y           Z
 ---------------------------------------------------------------------
      1          7           0        0.043068   -0.287120    0.029704
      2          7           0       -0.859595    0.755008    0.046456
      3          6           0       -2.074266    0.153547    0.021067
      4          6           0       -1.849305   -1.223840   -0.040892
      5          7           0       -0.565989   -1.505124   -0.004671
      6          1           0       -2.976976    0.740589    0.043419
      7          1           0       -2.585323   -2.013546   -0.069170
      8          6           0       -0.585106    2.086790   -0.061609
      9          6           0        1.435508   -0.240190    0.028654
     10          8           0        1.897486    1.003699    0.147172
     11          8           0        2.125036   -1.225986   -0.046431
     12          1           0        2.864949    0.971232    0.106381
     13          1           0        0.324504    2.434911    0.409338
     14          1           0       -1.488516    2.667018    0.106572
 ---------------------------------------------------------------------
                    Distance matrix (angstroms):
                    1          2          3          4          5
     1  N    0.000000
     2  N    1.378808   0.000000
     3  C    2.162722   1.355665   0.000000
     4  C    2.112701   2.214271   1.397013   0.000000
     5  N    1.362228   2.279696   2.242042   1.314280   0.000000
     6  H    3.190147   2.117433   1.077034   2.266657   3.295208
     7  H    3.146230   3.264414   2.228366   1.079888   2.083354
     8  C    2.457313   1.364062   2.441692   3.543854   3.592416
     9  C    1.393231   2.501646   3.531798   3.429635   2.367944
    10  O    2.262494   2.770106   4.063678   4.362997   3.519369
    11  O    2.285138   3.583432   4.420612   3.974345   2.705786
    12  H    3.090686   3.731296   5.007168   5.202328   4.232730
    13  H    2.762748   2.087066   3.333087   4.279557   4.060573
    14  H    3.328451   2.013688   2.582238   3.910332   4.274365
                    6          7          8          9         10
     6  H    0.000000
     7  H    2.784121   0.000000
     8  C    2.746694   4.562201   0.000000
     9  C    4.520195   4.395616   3.083158   0.000000
    10  O    4.882661   5.407971   2.716605   1.332190   0.000000
    11  O    5.468639   4.775798   4.280139   1.205355   2.249613
    12  H    5.846815   6.216525   3.629817   1.875336   0.968866
    13  H    3.728860   5.337118   1.081837   2.921542   2.142748
    14  H    2.435289   4.810567   1.086783   4.124056   3.772703
                   11         12         13         14
    11  O    0.000000
    12  H    2.323487   0.000000
    13  H    4.105095   2.947541   0.000000
    14  H    5.313817   4.672082   1.852723   0.000000
 Stoichiometry    C4H5N3O2
 Framework group  C1[X(C4H5N3O2)]
 Deg. of freedom    36
 Full point group                 C1      NOp   1
 Largest Abelian subgroup         C1      NOp   1
 Largest concise Abelian subgroup C1      NOp   1
                         Standard orientation:                         
 ---------------------------------------------------------------------
 Center     Atomic      Atomic             Coordinates (Angstroms)
 Number     Number       Type             X           Y           Z
 ---------------------------------------------------------------------
      1          7           0        0.037147   -0.293557    0.014187
      2          7           0       -0.854747    0.757930    0.010972
      3          6           0       -2.075598    0.168645    0.020613
      4          6           0       -1.865280   -1.212263   -0.001828
      5          7           0       -0.584458   -1.505638    0.025685
      6          1           0       -2.972006    0.765458    0.037047
      7          1           0       -2.609467   -1.994762    0.004258
      8          6           0       -0.568499    2.082832   -0.141869
      9          6           0        1.429838   -0.261174   -0.007162
     10          8           0        1.905810    0.980895    0.066627
     11          8           0        2.108383   -1.255934   -0.061101
     12          1           0        2.872242    0.937124    0.013764
     13          1           0        0.350978    2.435780    0.305747
     14          1           0       -1.463654    2.677325    0.020531
 ---------------------------------------------------------------------
 Rotational constants (GHZ):           2.9482496           1.7256052           1.0907731
 Standard basis: 6-31+G(d,p) (6D, 7F)
 There are   196 symmetry adapted cartesian basis functions of A   symmetry.
 There are   196 symmetry adapted basis functions of A   symmetry.
   196 basis functions,   323 primitive gaussians,   196 cartesian basis functions
    33 alpha electrons       33 beta electrons
       nuclear repulsion energy       454.2806778845 Hartrees.
 NAtoms=   14 NActive=   14 NUniq=   14 SFac= 1.00D+00 NAtFMM=   60 NAOKFM=F Big=F
 Integral buffers will be    131072 words long.
 Raffenetti 2 integral format.
 Two-electron integral symmetry is turned on.
 ------------------------------------------------------------------------------
[...]
 ! D1    D(5,1,2,3)              0.0068         -DE/DX =    0.0                 !
 ! D2    D(5,1,2,8)           -179.9055         -DE/DX =    0.0                 !
 ! D3    D(9,1,2,3)           -179.3952         -DE/DX =    0.0                 !
 ! D4    D(9,1,2,8)              0.6924         -DE/DX =    0.0                 !
 ! D5    D(2,1,5,4)              0.0079         -DE/DX =    0.0                 !
 ! D6    D(9,1,5,4)            179.4718         -DE/DX =    0.0                 !
 ! D7    D(2,1,9,10)            -0.3609         -DE/DX =    0.0                 !
 ! D8    D(2,1,9,11)           179.6772         -DE/DX =    0.0                 !
 ! D9    D(5,1,9,10)          -179.726          -DE/DX =    0.0                 !
 ! D10   D(5,1,9,11)             0.3121         -DE/DX =    0.0                 !
 ! D11   D(1,2,3,4)             -0.0182         -DE/DX =    0.0                 !
 ! D12   D(1,2,3,6)           -179.934          -DE/DX =    0.0                 !
 ! D13   D(8,2,3,4)            179.8954         -DE/DX =    0.0                 !
 ! D14   D(8,2,3,6)             -0.0204         -DE/DX =    0.0                 !
 ! D15   D(1,2,8,13)             0.0324         -DE/DX =    0.0                 !
 ! D16   D(1,2,8,14)           179.9478         -DE/DX =    0.0                 !
 ! D17   D(3,2,8,13)          -179.8609         -DE/DX =    0.0                 !
 ! D18   D(3,2,8,14)             0.0545         -DE/DX =    0.0                 !
 ! D19   D(2,3,4,5)              0.0254         -DE/DX =    0.0                 !
 ! D20   D(2,3,4,7)           -179.9724         -DE/DX =    0.0                 !
 ! D21   D(6,3,4,5)            179.9252         -DE/DX =    0.0                 !
 ! D22   D(6,3,4,7)             -0.0727         -DE/DX =    0.0                 !
 ! D23   D(3,4,5,1)             -0.0203         -DE/DX =    0.0                 !
 ! D24   D(7,4,5,1)            179.9777         -DE/DX =    0.0                 !
 ! D25   D(1,9,10,12)          179.9128         -DE/DX =    0.0                 !
 ! D26   D(11,9,10,12)          -0.1268         -DE/DX =    0.0                 !
 --------------------------------------------------------------------------------
 GradGradGradGradGradGradGradGradGradGradGradGradGradGradGradGradGradGrad


 ----------------------------------------------------------------------

 Electric dipole moment (input orientation):
 (Debye = 10**-18 statcoulomb cm , SI units = C m)
                  (au)            (Debye)         (10**-30 SI)
   Tot        0.272509D+01      0.692648D+01      0.231042D+02
   x         -0.908805D+00     -0.230995D+01     -0.770517D+01
   y          0.256587D+01      0.652180D+01      0.217544D+02
   z          0.128305D+00      0.326119D+00      0.108781D+01

 Dipole polarizability, Alpha (input orientation).
 (esu units = cm**3 , SI units = C**2 m**2 J**-1)
 Alpha(0;0):
               (au)            (10**-24 esu)      (10**-40 SI)
   iso        0.130045D+03      0.192707D+02      0.214416D+02
   aniso      0.120352D+03      0.178343D+02      0.198433D+02
   xx         0.128330D+03      0.190165D+02      0.211587D+02
   yx        -0.113633D+01     -0.168386D+00     -0.187355D+00
   yy         0.200001D+03      0.296371D+02      0.329757D+02
   zx         0.792161D+00      0.117386D+00      0.130610D+00
   zy         0.703917D+01      0.104310D+01      0.116060D+01
   zz         0.618055D+02      0.915863D+01      0.101904D+02

 ----------------------------------------------------------------------

 Dipole orientation:
     7         -0.05455753         -0.08201740         -0.54294497
     7         -0.97696765         -0.38071633          1.90415882
     6         -3.44487434         -1.18506442          1.57225628
     6         -3.85076708         -1.31749388         -1.00717725
     7         -1.85393378         -0.66853399         -2.35558210
     1         -4.61751478         -1.56274247          3.19064262
     1         -5.57825759         -1.87923552         -1.94216769
     6          0.20766895          0.01154552          4.06477763
     6          2.33284803          0.66484334         -1.30485133
     8          3.87144854          1.15369831          0.61130001
     8          2.89188771          0.83495719         -3.52610428
     1          5.50385463          1.66203574         -0.06963656
     1          2.13076384          0.64353808          4.12890812
     1         -0.91734143         -0.35193137          5.72790638

 Electric dipole moment (dipole orientation):
 (Debye = 10**-18 statcoulomb cm , SI units = C m)
                  (au)            (Debye)         (10**-30 SI)
   Tot        0.272509D+01      0.692648D+01      0.231042D+02
   x          0.000000D+00      0.000000D+00      0.000000D+00
   y          0.000000D+00      0.000000D+00      0.000000D+00
   z          0.272509D+01      0.692648D+01      0.231042D+02

 Dipole polarizability, Alpha (dipole orientation).
 (esu units = cm**3 , SI units = C**2 m**2 J**-1)
 Alpha(0;0):
               (au)            (10**-24 esu)      (10**-40 SI)
   iso        0.130045D+03      0.192707D+02      0.214416D+02
   aniso      0.120352D+03      0.178343D+02      0.198433D+02
   xx         0.128648D+03      0.190636D+02      0.212112D+02
   yx         0.217113D+02      0.321728D+01      0.357970D+01
   yy         0.684522D+02      0.101436D+02      0.112862D+02
   zx         0.206056D+02      0.305343D+01      0.339740D+01
   zy         0.710180D+01      0.105238D+01      0.117093D+01
   zz         0.193036D+03      0.286050D+02      0.318274D+02

 ----------------------------------------------------------------------
 Unable to Open any file for archive entry.
 1\1\GINC-NODE01\Freq\RM062X\6-31+G(d,p)\C4H5N3O2\GAU\01-Dec-2023\0\\#N
  Geom=AllCheck Guess=TCheck SCRF=Check GenChk RM062X/6-31+G(d,p) Freq\
 \Title Card Required\\0,1\N,0.0569982041,-0.2858394123,0.0177102026\N,
 -0.8585361855,0.7628407014,0.0647245927\C,-2.0948522793,0.1405689799,0
 .021697639\C,-1.8526287265,-1.2198164832,-0.0482163909\N,-0.5672372522
 ,-1.5221379095,-0.0527651238\H,-2.9950207846,0.7302146856,0.0432562888
 \H,-2.5938184237,-2.0054008424,-0.0964830809\C,-0.6172920922,2.0592093
 751,0.1321710972\C,1.4391503655,-0.2260078041,0.0479216482\O,1.9062805
 103,1.0125610284,0.1236156693\O,2.1225581519,-1.2302520874,0.006476170
 1\H,2.879199357,0.9735715723,0.141450076\H,0.3812488494,2.4476195483,0
 .1582568547\H,-1.500575464,2.679859178,0.1561743172\\Version=ES64L-G16
 RevC.01\State=1-A\HF=-469.8778711\RMSD=3.268e-09\RMSF=2.016e-05\ZeroPo
 int=0.100629\Thermal=0.1075898\ETot=-469.7702813\HTot=-469.7693371\GTo
 t=-469.8087787\Dipole=-0.9088047,2.5658736,0.1283049\DipoleDeriv=-2.03
 65085,1.8903867,0.0675755,-0.1224393,-0.075986,-0.0013032,-0.0407572,0
 .0265092,-0.0343383,0.7722981,1.3673381,0.0750335,0.314445,3.1945043,0
 .1583113,0.0210728,0.1675474,0.1039075,-0.453446,-1.688147,-0.0859319,
 0.0916865,-1.6963857,-0.066904,0.0050532,-0.0820197,-0.3648589,0.53972
 68,-0.9819982,-0.0465927,-0.3880827,1.8136765,0.0876858,-0.0171958,0.0
 853655,0.0458088,-0.7333651,0.784166,0.0357136,0.4850126,-1.5273271,-0
 .0556562,0.0240675,-0.0584656,-0.3708129,0.1480827,0.0084739,-0.001224
 2,0.0063019,0.0958289,-0.0116124,-0.0017322,-0.0108658,0.3184299,0.122
 2803,-0.0546617,-0.0034785,-0.0574282,0.1130525,-0.0044385,-0.0035952,
 -0.0045267,0.1873986,-0.1370785,-0.5203856,-0.0244811,-0.3718574,-2.29
 18116,-0.0931651,-0.0156224,-0.0990344,-0.5416935,3.8685774,-1.6539945
 ,-0.0303312,-0.3769578,2.772295,0.1085991,0.0399505,0.0870619,0.654228
 6,-1.1935439,-0.3534528,-0.0305817,-0.5967877,-1.1930256,-0.0480907,-0
 .0477557,-0.0455789,-0.5140344,-1.6862994,1.0136736,0.035064,0.9208314
 ,-1.9208711,-0.0563738,0.0293628,-0.0549425,-0.570649,0.5664441,0.0889
 864,0.0064582,0.0879424,0.4434768,-0.0000788,0.0079257,0.0004241,0.475
 8991,0.1822759,0.163541,0.0078007,0.0284829,0.1319124,-0.009659,0.0027
 269,-0.0067547,0.3266859,0.0405561,-0.0639257,-0.0050242,-0.0211495,0.
 1406607,-0.0073146,-0.0035009,-0.0047198,0.2840284\Polar=128.3297927,-
 1.1363257,200.0008702,0.7921605,7.0391651,61.8055261\Quadrupole=8.5044
 192,-4.518114,-3.9863053,6.5765732,0.5200002,0.0445215\PG=C01 [X(C4H5N
 3O2)]\NImag=1\\0.79109853,0.04101810,0.56859195,0.01280269,0.02771357,
 0.05712412,-0.17125443,0.03053910,-0.00018014,0.57695441,-0.03653943,-
 0.19084063,-0.00860834,0.09424231,0.84080343,-0.00318654,-0.00817726,-
 0.03534745,0.00872293,0.03584048,0.15847457,-0.05385136,0.03763544,0.0
 0159278,-0.22963576,-0.01602738,-0.00223260,0.72228881,0.01394165,0.01
 549570,0.00124981,-0.03307687,-0.13383627,-0.00393948,-0.18658343,0.74
 425022,0.00016773,0.00115482,-0.00106014,-0.00316542,-0.00397519,-0.06
 274440,-0.00382226,0.03290032,0.08030446,-0.09139300,-0.03225822,-0.00
 245469,0.02456178,-0.03009799,-0.00141722,-0.11894011,0.02665771,0.000
 63587,0.81171303,-0.05960917,-0.03571422,-0.00302455,-0.08386707,-0.06
 497713,-0.00456449,0.05563035,-0.36142601,-0.01579480,0.12576182,0.790
 90619,-0.00402622,-0.00249846,0.00592734,-0.00420336,-0.00409251,0.007
 39830,0.00224802,-0.01626089,-0.05189804,0.01268877,0.03550365,0.14165
 287,-0.12205738,-0.08765074,-0.00590636,-0.02679749,0.01301404,0.00047
 923,-0.03399447,0.08691559,0.00413533,-0.42298708,0.09246558,0.0016462
 9,0.64552144,0.01300885,-0.19125104,-0.00828258,0.03514332,-0.02566455
 ,-0.00063248,0.01831467,-0.05147626,-0.00405703,0.04284077,-0.10101340
 ,-0.00156357,-0.05880547,0.38978493,-0.00001873,-0.00866106,-0.0336402
 7,0.00170550,-0.00079237,-0.00839842,0.00038504,-0.00353889,0.02921103
 ,-0.00099671,-0.00108412,-0.06277190,0.00244613,0.01609792,0.07603780,
 -0.00362172,-0.00246196,-0.00023419,-0.01879988,0.01194880,0.00048650,
 -0.27932370,0.14523678,0.00490048,0.00638420,-0.00047675,0.00008596,0.
 00220089,-0.00286019,-0.00019842,0.29225968,-0.00405109,-0.00319165,-0
 .00044990,-0.01971538,0.01062254,0.00058424,0.15899863,-0.15707785,-0.
 00589516,0.02084232,-0.00073178,0.00038673,0.00047089,-0.00455832,-0.0
 0056920,-0.15543074,0.15221629,-0.00026502,-0.00039991,0.00445994,-0.0
 0115362,0.00087604,-0.00417389,0.00555948,-0.00593642,-0.01342082,0.00
 125898,0.00009206,-0.00378043,-0.00005889,-0.00059270,0.00608104,-0.00
 529530,0.00568928,0.01321337,-0.00588714,0.00118311,-0.00010148,0.0002
 5788,0.00504767,0.00021182,0.00958123,0.00452092,0.00030677,-0.1960960
 4,-0.14835795,-0.00924230,-0.01551066,-0.02295454,-0.00130121,-0.00036
 010,-0.00048783,-0.00001241,0.20735966,0.00517583,0.00212711,-0.000322
 02,0.00099331,-0.00443097,-0.00053167,-0.01787415,-0.00617988,-0.00061
 800,-0.15553906,-0.23104134,-0.01154508,0.00479941,0.01170179,0.000930
 03,0.00043738,0.00026949,0.00011661,0.16323243,0.22686120,0.00012002,-
 0.00039695,0.00906535,-0.00002757,-0.00048118,0.00582721,-0.00086476,-
 0.00039790,0.00244095,-0.00964425,-0.01147263,-0.03947665,0.00017631,0
 .00065212,-0.00504207,0.00003792,0.00010442,-0.00186919,0.01024472,0.0
 1200409,0.02789589,0.01768267,0.03624684,0.00190984,-0.14983288,-0.059
 76362,-0.00378199,-0.01045594,-0.05388531,-0.00290493,-0.01431446,0.00
 946496,0.00036198,0.00096211,-0.00615451,-0.00032817,0.00062964,-0.000
 59589,-0.00001691,0.00077630,-0.00131051,-0.00006636,0.78554591,0.0478
 5247,-0.02225109,-0.00085450,-0.04256911,-0.39388102,-0.01788576,-0.06
 154810,-0.04600160,-0.00350106,0.00172766,0.01899599,0.00098558,-0.006
 79075,-0.03557578,-0.00205476,0.00317756,0.00103134,0.00012407,-0.0007
 5750,-0.00002276,-0.00002152,0.03049617,0.71933106,0.00261586,-0.00111
 901,0.00439032,-0.00287355,-0.01777083,-0.04885209,-0.00340239,-0.0036
 1672,0.01467402,-0.00005024,0.00102203,0.00109734,-0.00034009,-0.00195
 505,0.00045103,0.00017728,0.00010263,-0.00108871,-0.00003542,-0.000024
 57,0.00023968,0.00687664,0.03348071,0.05746379,-0.23020379,-0.01469120
 ,-0.00387173,-0.02132596,0.05926902,0.00285142,-0.01131497,-0.01167524
 ,-0.00066317,0.00087727,0.01839749,0.00096818,-0.01828365,-0.03907224,
 -0.00263584,0.00119867,0.00040979,0.00000442,0.00085695,-0.00036536,-0
 .00001431,0.00083674,-0.02819223,-0.00157461,0.70255899,-0.03592041,-0
 .11203326,-0.00470040,0.02957539,0.00966331,0.00212467,0.00389997,-0.0
 0485199,-0.00028371,-0.00066203,-0.01369023,-0.00077362,-0.03342580,0.
 00340959,-0.00004456,0.00092872,0.00086105,-0.00000464,-0.00155782,0.0
 0084916,-0.00003746,0.00037150,0.00208162,-0.00009112,-0.12727923,0.88
 444624,-0.00610699,-0.00426208,-0.03781213,0.00184974,0.00249118,-0.01
 809884,0.00008855,-0.00064162,0.00076904,-0.00002631,-0.00036409,0.000
 88160,-0.00170721,-0.00004992,-0.00764563,0.00008634,0.00002902,0.0007
 9772,-0.00006277,-0.00006276,0.00183400,-0.00000196,-0.00043238,0.0026
 7586,0.00249189,0.03457152,0.20189542,-0.04823627,-0.06168618,-0.00438
 249,0.00569156,-0.01194653,-0.00055506,0.00101464,0.00147119,0.0000623
 7,-0.00162906,-0.00660128,-0.00037144,-0.00693247,0.01199610,0.0004655
 8,-0.00009419,-0.00003241,-0.00000954,-0.00082977,0.00047483,0.0000395
 7,-0.00339936,0.01377506,0.00072135,-0.14401844,-0.07880541,-0.0059086
 7,0.67537818,-0.03918234,-0.01160595,-0.00200830,0.00089244,-0.0138269
 3,-0.00068729,0.00397938,0.00472197,0.00026520,0.00280810,-0.00631455,
 -0.00033856,-0.00554623,0.00604297,0.00020634,-0.00020481,0.00005494,0
 .00000847,-0.00010248,0.00014807,0.00002974,0.00469681,0.00346242,0.00
 033413,-0.04175143,-0.27637414,-0.01231634,0.05250533,0.44204384,-0.00
 318352,-0.00236168,0.00827971,0.00016253,-0.00098060,0.00051962,0.0002
 0715,0.00025422,0.00001756,0.00008020,-0.00046666,0.00041935,-0.000461
 98,0.00047012,0.00260552,-0.00001369,0.00000010,0.00000872,-0.00001956
 ,0.00004421,-0.00048403,0.00027005,0.00046985,-0.00043384,-0.00382425,
 -0.01296819,-0.06253983,0.01591311,0.02325324,0.03030552,-0.08464456,0
 .05588263,0.00103985,-0.00161017,-0.02147215,-0.00131143,0.00094193,0.
 00652285,0.00032624,0.00066263,-0.00255219,-0.00014893,-0.00310175,0.0
 0854242,0.00052297,-0.00076632,-0.00040712,-0.00001029,-0.00017043,-0.
 00009526,-0.00001385,-0.00192189,0.00691777,0.00036116,-0.25945331,0.2
 5563322,0.01043348,0.02870172,0.00691446,0.00044481,0.32082281,0.06148
 300,-0.01433452,-0.00015722,-0.00403336,0.01132400,0.00005931,-0.00377
 160,-0.00280593,-0.00014968,-0.00120448,0.00685088,0.00033410,-0.00517
 463,-0.00168928,-0.00027883,0.00029885,0.00038941,0.00002853,0.0000908
 8,-0.00006520,0.00000402,0.00249166,-0.00609677,-0.00024081,0.24457986
 ,-0.48308764,-0.01725991,0.01548057,-0.10717874,-0.00702047,-0.3198759
 5,0.59098506,0.00146753,-0.00041546,0.01438527,-0.00042111,-0.00023399
 ,0.00801650,-0.00020554,-0.00000461,-0.00005920,-0.00005033,0.00031871
 ,-0.00004482,-0.00035680,0.00005112,-0.00104881,-0.00000144,0.00001663
 ,-0.00016005,0.00000138,-0.00000529,0.00000278,0.00010010,-0.00019152,
 -0.00063722,0.00988701,-0.01696874,-0.08092230,0.00089245,-0.00711559,
 0.02671912,-0.01191744,0.02398525,0.03689400,0.00458224,-0.00057380,-0
 .00001290,-0.00031739,0.00192891,0.00011270,-0.00032636,-0.00035262,-0
 .00001916,0.00004966,0.00044942,0.00002370,0.00082303,-0.00019885,-0.0
 0004306,0.00003317,0.00003381,0.00000221,0.00002267,0.00001964,0.00000
 801,-0.00004871,-0.00046370,-0.00003545,-0.02346529,-0.01352188,-0.001
 21311,-0.49330941,0.00773143,-0.00959747,0.00064173,0.00969745,0.00060
 617,0.51208786,-0.00142676,-0.00710375,-0.00058562,-0.00041042,-0.0012
 6215,-0.00003892,0.00037071,0.00044250,0.00002172,0.00007748,-0.000862
 58,-0.00004590,-0.00113041,0.00108740,-0.00006062,-0.00000113,0.000030
 50,0.00000185,-0.00010747,0.00006518,0.00001798,0.00073333,-0.00078487
 ,-0.00001872,-0.05746178,-0.00651599,-0.00141818,0.06030204,-0.0402903
 3,-0.00066926,0.00359786,0.00425764,0.00047075,-0.00520471,0.04995629,
 -0.00002071,-0.00059376,0.00333072,-0.00003384,0.00002907,-0.00053329,
 0.00001264,0.00001942,0.00010697,0.00001293,-0.00004632,-0.00001582,-0
 .00007912,-0.00003812,0.00176579,0.00000084,0.00000294,-0.00000327,-0.
 00000458,0.00001812,-0.00025366,0.00002533,-0.00004878,0.00005105,-0.0
 0361817,-0.00063352,-0.00142639,-0.00674893,-0.00165644,-0.00675107,0.
 00027204,0.00061895,-0.00312966,0.01016217,0.00228456,0.00663168,-0.00
 435489,-0.00017738,-0.00005127,0.00234563,-0.00502439,-0.00022214,0.00
 460912,0.00382425,0.00018396,0.00106703,-0.00190471,-0.00013273,-0.000
 33097,0.00237552,0.00015576,0.00006304,0.00007036,0.00001797,0.0000441
 3,0.00006488,0.00000784,-0.34930454,-0.11490267,-0.00803708,0.00412599
 ,0.00173684,0.00017999,-0.01103891,0.00581024,-0.00001197,-0.00078056,
 0.00010831,-0.00001457,-0.00078510,0.00024388,-0.00000321,0.36128178,-
 0.00040787,0.00331465,0.00026148,-0.03533935,-0.01511323,-0.00085189,0
 .00414903,-0.00227197,-0.00036686,-0.00169217,-0.00048107,-0.00029326,
 0.00009623,-0.00024039,0.00014594,-0.00019058,0.00006060,0.00007924,0.
 00026039,-0.00031909,0.00000944,-0.09867301,-0.09246300,-0.00472269,-0
 .00134716,-0.00359794,-0.00013330,0.00414479,-0.00174346,-0.00000280,0
 .00004691,0.00114714,0.00001529,0.00048052,0.00068622,0.00001859,0.114
 88918,0.10005995,-0.00007473,0.00028210,-0.00192430,-0.00183120,-0.000
 74990,-0.00346730,0.00022134,-0.00037521,0.00593879,-0.00012408,-0.000
 30922,0.00504864,0.00004633,0.00020387,-0.00310924,0.00000676,0.000086
 22,-0.00158358,0.00001834,0.00001214,-0.00050393,-0.00720062,-0.004842
 66,-0.01163605,0.00001953,-0.00001172,-0.00168894,0.00000349,0.0000096
 9,0.00060110,-0.00003210,-0.00000886,0.00101717,-0.00000015,0.00000538
 ,0.00046250,0.00832695,0.00525824,0.00966364,0.00214110,-0.00300574,-0
 .00014991,0.00976271,-0.00457926,-0.00015760,-0.00059306,-0.00351748,-
 0.00014382,0.00004415,0.00119949,0.00010206,0.00048845,-0.00217585,-0.
 00015884,0.00019664,-0.00010535,-0.00002108,-0.00004468,-0.00001337,-0
 .00000329,-0.27715560,0.15127736,0.00559652,-0.00238919,-0.00097307,-0
 .00010298,-0.00129823,0.00144909,0.00003458,0.00067818,-0.00017057,0.0
 0001260,0.00001191,0.00041740,0.00002260,-0.00694174,0.01358308,0.0006
 2014,0.27509935,-0.00534283,-0.00120331,-0.00023144,0.02762570,-0.0285
 8039,-0.00129946,0.00282647,0.00101737,0.00029941,0.00073808,-0.000500
 76,0.00020179,0.00076229,-0.00055766,-0.00029581,-0.00040194,0.0000234
 5,-0.00008250,-0.00000983,0.00003725,-0.00001418,0.13588157,-0.1478255
 3,-0.00537998,-0.00082028,-0.00115979,-0.00015115,-0.00107810,0.000859
 90,-0.00002208,0.00034455,0.00030394,0.00007743,-0.00002562,0.00029394
 ,0.00002529,-0.00711430,0.01096159,0.00043994,-0.15338575,0.16632998,-
 0.00029138,-0.00026486,0.00282154,0.00144910,-0.00155187,0.00137948,0.
 00021255,0.00028797,-0.00428022,0.00008708,0.00019043,-0.00443778,-0.0
 0001917,-0.00030371,0.00550412,-0.00003904,-0.00008797,0.00151913,-0.0
 0000331,-0.00001582,0.00032367,0.00475700,-0.00522727,-0.01839518,-0.0
 0002039,-0.00017851,0.00128043,-0.00012178,0.00001573,0.00073255,0.000
 03347,0.00008559,-0.00103279,0.00000634,0.00003497,-0.00023553,-0.0003
 9950,0.00058258,0.00118149,-0.00565098,0.00643273,0.01363910\\0.000008
 66,0.00003645,0.00000183,0.00002583,0.00002778,0.00001162,-0.00003085,
 -0.00003227,0.00000760,-0.00000701,0.00001697,-0.00000082,-0.00003442,
 -0.00003718,-0.00001538,0.00000452,0.00000998,-0.00000085,-0.00001031,
 0.00000561,-0.00000149,0.00000400,-0.00002915,-0.00000334,0.00000793,0
 .00006317,-0.00000511,-0.00000076,-0.00004321,0.00001221,0.00002079,-0
 .00002648,0.00000068,-0.00000564,-0.00000663,-0.00001136,0.00001290,0.
 00000559,0.00000364,0.00000436,0.00000935,0.00000077\\\@
 The archive entry for this job was punched.


 IT IS IMPOSSIBLE TO MEDITATE ON TIME AND THE MYSTERY 
 OF NATURE WITHOUT AN OVERWHELMING EMOTION AT THE
 LIMITATIONS OF HUMAN INTELLIGENCE.

                                         -- ALFRED NORTH WHITEHEAD
 Job cpu time:       0 days  0 hours 35 minutes 17.3 seconds.
 Elapsed time:       0 days  0 hours  0 minutes 44.7 seconds.
 File lengths (MBytes):  RWF=     91 Int=      0 D2E=      0 Chk=      8 Scr=      1
 Normal termination of Gaussian 16 at Fri Dec  1 08:30:46 2023.
