 Entering Gaussian System, Link 0=g16
 Input=sidanzuo-TS.gjf
 Output=sidanzuo-TS.log
 Initial command:
 /home/Tinker/g16/l1.exe "/home/Tinker/g16/scratch/Gau-1725549.inp" -scrdir="/home/Tinker/g16/scratch/"
 Entering Link 1 = /home/Tinker/g16/l1.exe PID=   1725550.
  
 Copyright (c) 1988-2019, Gaussian, Inc.  All Rights Reserved.
  
 This is part of the Gaussian(R) 16 program.  It is based on
 the Gaussian(R) 09 system (copyright 2009, Gaussian, Inc.),
 the Gaussian(R) 03 system (copyright 2003, Gaussian, Inc.),
 the Gaussian(R) 98 system (copyright 1998, Gaussian, Inc.),
 the Gaussian(R) 94 system (copyright 1995, Gaussian, Inc.),
 the Gaussian 92(TM) system (copyright 1992, Gaussian, Inc.),
 the Gaussian 90(TM) system (copyright 1990, Gaussian, Inc.),
 the Gaussian 88(TM) system (copyright 1988, Gaussian, Inc.),
 the Gaussian 86(TM) system (copyright 1986, Carnegie Mellon
 University), and the Gaussian 82(TM) system (copyright 1983,
 Carnegie Mellon University). Gaussian is a federally registered
 trademark of Gaussian, Inc.
  
 This software contains proprietary and confidential information,
 including trade secrets, belonging to Gaussian, Inc.
  
 This software is provided under written license and may be
 used, copied, transmitted, or stored only in accord with that
 written license.
  
 The following legend is applicable only to US Government
 contracts under FAR:
  
                    RESTRICTED RIGHTS LEGEND
  
 Use, reproduction and disclosure by the US Government is
 subject to restrictions as set forth in subparagraphs (a)
 and (c) of the Commercial Computer Software - Restricted
 Rights clause in FAR 52.227-19.
  
 Gaussian, Inc.
 340 Quinnipiac St., Bldg. 40, Wallingford CT 06492
  
  
 ---------------------------------------------------------------
 Warning -- This program may not be used in any manner that
 competes with the business of Gaussian, Inc. or will provide
 assistance to any competitor of Gaussian, Inc.  The licensee
 of this program is prohibited from giving any competitor of
 Gaussian, Inc. access to this program.  By using this program,
 the user acknowledges that Gaussian, Inc. is engaged in the
 business of creating and licensing software in the field of
 computational chemistry and represents and warrants to the
 licensee that it is not a competitor of Gaussian, Inc. and that
 it will not use this program in any manner prohibited above.
 ---------------------------------------------------------------
  

 Cite this work as:
 Gaussian 16, Revision C.01,
 M. J. Frisch, G. W. Trucks, H. B. Schlegel, G. E. Scuseria, 
 M. A. Robb, J. R. Cheeseman, G. Scalmani, V. Barone, 
 G. A. Petersson, H. Nakatsuji, X. Li, M. Caricato, A. V. Marenich, 
 J. Bloino, B. G. Janesko, R. Gomperts, B. Mennucci, H. P. Hratchian, 
 J. V. Ortiz, A. F. Izmaylov, J. L. Sonnenberg, D. Williams-Young, 
 F. Ding, F. Lipparini, F. Egidi, J. Goings, B. Peng, A. Petrone, 
 T. Henderson, D. Ranasinghe, V. G. Zakrzewski, J. Gao, N. Rega, 
 G. Zheng, W. Liang, M. Hada, M. Ehara, K. Toyota, R. Fukuda, 
 J. Hasegawa, M. Ishida, T. Nakajima, Y. Honda, O. Kitao, H. Nakai, 
 T. Vreven, K. Throssell, J. A. Montgomery, Jr., J. E. Peralta, 
 F. Ogliaro, M. J. Bearpark, J. J. Heyd, E. N. Brothers, K. N. Kudin, 
 V. N. Staroverov, T. A. Keith, R. Kobayashi, J. Normand, 
 K. Raghavachari, A. P. Rendell, J. C. Burant, S. S. Iyengar, 
 J. Tomasi, M. Cossi, J. M. Millam, M. Klene, C. Adamo, R. Cammi, 
 J. W. Ochterski, R. L. Martin, K. Morokuma, O. Farkas, 
 J. B. Foresman, and D. J. Fox, Gaussian, Inc., Wallingford CT, 2019.
 
 ******************************************
 Gaussian 16:  ES64L-G16RevC.01  3-Jul-2019
                28-Oct-2023 
 ******************************************
 %mem=10GB
 %nprocshared=24
 Will use up to   24 processors via shared memory.
 ----------------------------------------------------------------------
 # opt=(calcfc,ts,noeigentest) freq 6-31+g(d,p) integral=grid=ultrafine
  m062x scrf=(SMD,solvent=water)
 ----------------------------------------------------------------------
 1/5=1,10=4,11=1,18=20,26=6,38=1/1,3;
 2/9=110,12=2,17=6,18=5,40=1/2;
 3/5=1,6=6,7=111,11=2,25=1,30=1,70=32201,71=2,72=1,74=-55,75=-5,140=1/1,2,3;
 4//1;
 5/5=2,38=5,53=1/2;
 8/6=4,10=90,11=11/1;
 11/6=1,8=1,9=11,15=111,16=1/1,2,10;
 10/6=1,13=1/2;
 6/7=2,8=2,9=2,10=2,28=1/1;
 7/10=1,25=1/1,2,3,16;
 1/5=1,10=4,11=1,18=20,26=6/3(2);
 2/9=110/2;
 99//99;
 2/9=110/2;
 3/5=1,6=6,7=111,11=2,25=1,30=1,70=32205,71=1,72=1,74=-55,75=-5/1,2,3;
 4/5=5,16=3,69=1/1;
 5/5=2,38=5,53=1/2;
 7//1,2,3,16;
 1/5=1,11=1,18=20,26=6/3(-5);
 2/9=110/2;
 6/7=2,8=2,9=2,10=2,19=2,28=1/1;
 99/9=1/99;
 -------------------
 Title Card Required
 -------------------
 Symbolic Z-matrix:
 Charge =  0 Multiplicity = 1
 N                    -0.91795   0.84827  -0.00071 
 N                    -0.37387  -0.36809  -0.00035 
 N                    -1.35199  -1.20382   0.00047 
 N                    -2.53677  -0.56049   0.00058 
 C                    -2.24764   0.72579  -0.00023 
 C                     1.31944  -0.26432   0.05547 
 O                     2.38029  -1.24169   0.03044 
 O                     1.78977   1.00847   0.03195 
 H                     0.34904   1.62461   0.00856 
 H                    -2.94135   1.55183  -0.00033 
 
 Add virtual bond connecting atoms H9         and N1         Dist= 2.81D+00.
 Add virtual bond connecting atoms H9         and O8         Dist= 2.96D+00.

 GradGradGradGradGradGradGradGradGradGradGradGradGradGradGradGradGradGrad
 Berny optimization.
 Initialization pass.
                           ----------------------------
                           !    Initial Parameters    !
                           ! (Angstroms and Degrees)  !
 --------------------------                            --------------------------
 ! Name  Definition              Value          Derivative Info.                !
 --------------------------------------------------------------------------------
 ! R1    R(1,2)                  1.3325         calculate D2E/DX2 analytically  !
 ! R2    R(1,5)                  1.3353         calculate D2E/DX2 analytically  !
 ! R3    R(1,9)                  1.486          calculate D2E/DX2 analytically  !
 ! R4    R(2,3)                  1.2865         calculate D2E/DX2 analytically  !
 ! R5    R(2,6)                  1.6974         calculate D2E/DX2 analytically  !
 ! R6    R(3,4)                  1.3482         calculate D2E/DX2 analytically  !
 ! R7    R(4,5)                  1.3184         calculate D2E/DX2 analytically  !
 ! R8    R(5,10)                 1.0787         calculate D2E/DX2 analytically  !
 ! R9    R(6,7)                  1.4427         calculate D2E/DX2 analytically  !
 ! R10   R(6,8)                  1.3571         calculate D2E/DX2 analytically  !
 ! R11   R(8,9)                  1.5671         calculate D2E/DX2 analytically  !
 ! A1    A(2,1,5)              108.8363         calculate D2E/DX2 analytically  !
 ! A2    A(2,1,9)               97.3979         calculate D2E/DX2 analytically  !
 ! A3    A(5,1,9)              153.763          calculate D2E/DX2 analytically  !
 ! A4    A(1,2,3)              106.4121         calculate D2E/DX2 analytically  !
 ! A5    A(1,2,6)              110.5815         calculate D2E/DX2 analytically  !
 ! A6    A(3,2,6)              142.9523         calculate D2E/DX2 analytically  !
 ! A7    A(2,3,4)              110.9869         calculate D2E/DX2 analytically  !
 ! A8    A(3,4,5)              105.8331         calculate D2E/DX2 analytically  !
 ! A9    A(1,5,4)              107.9316         calculate D2E/DX2 analytically  !
 ! A10   A(1,5,10)             124.7607         calculate D2E/DX2 analytically  !
 ! A11   A(4,5,10)             127.3077         calculate D2E/DX2 analytically  !
 ! A12   A(2,6,7)              133.7555         calculate D2E/DX2 analytically  !
 ! A13   A(2,6,8)              113.7341         calculate D2E/DX2 analytically  !
 ! A14   A(7,6,8)              112.3483         calculate D2E/DX2 analytically  !
 ! A15   A(6,8,9)               92.8878         calculate D2E/DX2 analytically  !
 ! A16   A(1,9,8)              125.3496         calculate D2E/DX2 analytically  !
 ! D1    D(5,1,2,3)             -0.0062         calculate D2E/DX2 analytically  !
 ! D2    D(5,1,2,6)           -177.9656         calculate D2E/DX2 analytically  !
 ! D3    D(9,1,2,3)            179.6041         calculate D2E/DX2 analytically  !
 ! D4    D(9,1,2,6)              1.6447         calculate D2E/DX2 analytically  !
 ! D5    D(2,1,5,4)              0.0066         calculate D2E/DX2 analytically  !
 ! D6    D(2,1,5,10)           179.9976         calculate D2E/DX2 analytically  !
 ! D7    D(9,1,5,4)           -179.1192         calculate D2E/DX2 analytically  !
 ! D8    D(9,1,5,10)             0.8718         calculate D2E/DX2 analytically  !
 ! D9    D(2,1,9,8)             -0.7327         calculate D2E/DX2 analytically  !
 ! D10   D(5,1,9,8)            178.4329         calculate D2E/DX2 analytically  !
 ! D11   D(1,2,3,4)              0.0035         calculate D2E/DX2 analytically  !
 ! D12   D(6,2,3,4)            176.8318         calculate D2E/DX2 analytically  !
 ! D13   D(1,2,6,7)           -177.5073         calculate D2E/DX2 analytically  !
 ! D14   D(1,2,6,8)             -2.6059         calculate D2E/DX2 analytically  !
 ! D15   D(3,2,6,7)              5.7426         calculate D2E/DX2 analytically  !
 ! D16   D(3,2,6,8)           -179.3559         calculate D2E/DX2 analytically  !
 ! D17   D(2,3,4,5)              0.0005         calculate D2E/DX2 analytically  !
 ! D18   D(3,4,5,1)             -0.0043         calculate D2E/DX2 analytically  !
 ! D19   D(3,4,5,10)          -179.995          calculate D2E/DX2 analytically  !
 ! D20   D(2,6,8,9)              1.6898         calculate D2E/DX2 analytically  !
 ! D21   D(7,6,8,9)            177.7101         calculate D2E/DX2 analytically  !
 ! D22   D(6,8,9,1)             -0.783          calculate D2E/DX2 analytically  !
 --------------------------------------------------------------------------------
 Trust Radius=3.00D-01 FncErr=5.00D-06 GrdErr=5.00D-06 EigMax=2.50D+02 EigMin=1.00D-04
 Number of steps in this run=     59 maximum allowed number of steps=    100.
 Search for a saddle point of order  1.
 GradGradGradGradGradGradGradGradGradGradGradGradGradGradGradGradGradGrad

                          Input orientation:                          
 ---------------------------------------------------------------------
 Center     Atomic      Atomic             Coordinates (Angstroms)
 Number     Number       Type             X           Y           Z
 ---------------------------------------------------------------------
      1          7           0       -0.917949    0.848274   -0.000712
      2          7           0       -0.373865   -0.368085   -0.000348
      3          7           0       -1.351994   -1.203820    0.000471
      4          7           0       -2.536771   -0.560491    0.000579
      5          6           0       -2.247635    0.725790   -0.000229
      6          6           0        1.319443   -0.264320    0.055471
      7          8           0        2.380293   -1.241686    0.030437
      8          8           0        1.789771    1.008472    0.031947
      9          1           0        0.349043    1.624608    0.008558
     10          1           0       -2.941350    1.551834   -0.000334
 ---------------------------------------------------------------------
                    Distance matrix (angstroms):
                    1          2          3          4          5
     1  N    0.000000
     2  N    1.332500   0.000000
     3  N    2.097495   1.286542   0.000000
     4  N    2.145974   2.171447   1.348172   0.000000
     5  C    1.335315   2.169695   2.127338   1.318377   0.000000
     6  C    2.499389   1.697403   2.832360   3.867961   3.702360
     7  O    3.904780   2.889553   3.732600   4.964115   5.028879
     8  O    2.712652   2.564620   3.842644   4.602347   4.047418
     9  H    1.485951   2.119788   3.300545   3.619758   2.747852
    10  H    2.142230   3.205943   3.181145   2.150721   1.078698
                    6          7          8          9         10
     6  C    0.000000
     7  O    1.442663   0.000000
     8  O    1.357114   2.326355   0.000000
     9  H    2.124129   3.513133   1.567121   0.000000
    10  H    4.632050   6.010374   4.762331   3.291210   0.000000
 Stoichiometry    C2H2N4O2
 Framework group  C1[X(C2H2N4O2)]
 Deg. of freedom    24
 Full point group                 C1      NOp   1
 Largest Abelian subgroup         C1      NOp   1
 Largest concise Abelian subgroup C1      NOp   1
                         Standard orientation:                         
 ---------------------------------------------------------------------
 Center     Atomic      Atomic             Coordinates (Angstroms)
 Number     Number       Type             X           Y           Z
 ---------------------------------------------------------------------
      1          7           0       -0.788031    0.882196   -0.009125
      2          7           0       -0.163852   -0.295064   -0.013029
      3          7           0       -1.083865   -1.194323   -0.003044
      4          7           0       -2.308958   -0.631644    0.007349
      5          6           0       -2.106494    0.671088    0.003318
      6          6           0        1.519158   -0.078261    0.027583
      7          8           0        2.642720   -0.982542   -0.006461
      8          8           0        1.903102    1.223101   -0.000777
      9          1           0        0.424249    1.741510   -0.011577
     10          1           0       -2.853863    1.448903    0.009014
 ---------------------------------------------------------------------
 Rotational constants (GHZ):           5.7704514           1.4071326           1.1313446
 Standard basis: 6-31+G(d,p) (6D, 7F)
 There are   162 symmetry adapted cartesian basis functions of A   symmetry.
 There are   162 symmetry adapted basis functions of A   symmetry.
   162 basis functions,   270 primitive gaussians,   162 cartesian basis functions
    29 alpha electrons       29 beta electrons
       nuclear repulsion energy       344.8402039490 Hartrees.
 NAtoms=   10 NActive=   10 NUniq=   10 SFac= 1.00D+00 NAtFMM=   60 NAOKFM=F Big=F
 Integral buffers will be    131072 words long.
 Raffenetti 2 integral format.
 Two-electron integral symmetry is turned on.
 Force inversion solution in PCM.
 ------------------------------------------------------------------------------
 Polarizable Continuum Model (PCM)
 =================================
 Model                : PCM.
 Atomic radii         : SMD-Coulomb.
 Polarization charges : Total charges.
 Charge compensation  : None.
 Solution method      : Matrix inversion.
 Cavity type          : VdW (van der Waals Surface) (Alpha=1.000).
 Cavity algorithm     : GePol (No added spheres)
                        Default sphere list used, NSphG=   10.
                        Lebedev-Laikov grids with approx.  5.0 points / Ang**2.
                        Smoothing algorithm: York/Karplus (Gamma=1.0000).
                        Polarization charges: spherical gaussians, with
                                              point-specific exponents (IZeta= 3).
                        Self-potential: point-specific (ISelfS= 7).
                        Self-field    : sphere-specific E.n sum rule (ISelfD= 2).
 1st derivatives      : Analytical E(r).r(x)/FMM algorithm (CHGder, D1EAlg=3).
                        Cavity 1st derivative terms included.
 2nd derivatives      : Analytical E(r).r(xy)/FMM algorithm (CHGder, D2EAlg=3).
                        Cavity 2nd derivative terms included.
 Solvent              : Water, Eps=  78.355300 Eps(inf)=   1.777849
 ------------------------------------------------------------------------------
 Spheres list:
 ISph  on   Nord     Re0    Alpha      Xe            Ye            Ze
    1   N      1    1.8900  1.000     -0.788031      0.882196     -0.009125
    2   N      2    1.8900  1.000     -0.163852     -0.295064     -0.013029
    3   N      3    1.8900  1.000     -1.083865     -1.194323     -0.003044
    4   N      4    1.8900  1.000     -2.308958     -0.631644      0.007349
    5   C      5    1.8500  1.000     -2.106494      0.671088      0.003318
    6   C      6    1.8500  1.000      1.519158     -0.078261      0.027583
    7   O      7    1.5200  1.000      2.642720     -0.982542     -0.006461
    8   O      8    1.5200  1.000      1.903102      1.223101     -0.000777
    9   H      9    1.2000  1.000      0.424249      1.741510     -0.011577
   10   H     10    1.2000  1.000     -2.853863      1.448903      0.009014
 ------------------------------------------------------------------------------
 ------------------------------------------------------------------------------
 Atomic radii for non-electrostatic terms: SMD-CDS.
 ------------------------------------------------------------------------------
 Nuclear repulsion after PCM non-electrostatic terms =      344.8441991115 Hartrees.
 One-electron integrals computed using PRISM.
 NBasis=   162 RedAO= T EigKep=  3.22D-05  NBF=   162
 NBsUse=   162 1.00D-06 EigRej= -1.00D+00 NBFU=   162
 ExpMin= 4.38D-02 ExpMax= 5.48D+03 ExpMxC= 8.25D+02 IAcc=3 IRadAn=         5 AccDes= 0.00D+00
 Harris functional with IExCor= 1009 and IRadAn=       5 diagonalized for initial guess.
 HarFok:  IExCor= 1009 AccDes= 0.00D+00 IRadAn=         5 IDoV= 1 UseB2=F ITyADJ=14
 ICtDFT=  3500011 ScaDFX=  1.000000  1.000000  1.000000  1.000000
 FoFCou: FMM=F IPFlag=           0 FMFlag=      100000 FMFlg1=           0
         NFxFlg=           0 DoJE=T BraDBF=F KetDBF=T FulRan=T
         wScrn=  0.000000 ICntrl=       500 IOpCl=  0 I1Cent=   200000004 NGrid=           0
         NMat0=    1 NMatS0=      1 NMatT0=    0 NMatD0=    1 NMtDS0=    0 NMtDT0=    0
 Petite list used in FoFCou.
 Keep R1 ints in memory in canonical form, NReq=110915818.
 Requested convergence on RMS density matrix=1.00D-08 within 128 cycles.
 Requested convergence on MAX density matrix=1.00D-06.
 Requested convergence on             energy=1.00D-06.
 No special actions if energy rises.
 Inv3:  Mode=1 IEnd=     3042147.
 Iteration    1 A*A^-1 deviation from unit magnitude is 3.11D-15 for    973.
 Iteration    1 A*A^-1 deviation from orthogonality  is 2.40D-15 for    995    469.
 Iteration    1 A^-1*A deviation from unit magnitude is 3.33D-15 for    973.
 Iteration    1 A^-1*A deviation from orthogonality  is 3.58D-15 for    363    288.
 Error on total polarization charges =  0.03345
 SCF Done:  E(RM062X) =  -446.509480534     A.U. after   16 cycles
            NFock= 16  Conv=0.37D-08     -V/T= 2.0112
 SMD-CDS (non-electrostatic) energy       (kcal/mol) =       2.51
 (included in total energy above)
 DoSCS=F DFT=T ScalE2(SS,OS)=  1.000000  1.000000
 Range of M.O.s used for correlation:     1   162
 NBasis=   162 NAE=    29 NBE=    29 NFC=     0 NFV=     0
 NROrb=    162 NOA=    29 NOB=    29 NVA=   133 NVB=   133

 **** Warning!!: The largest alpha MO coefficient is  0.72721664D+02

 Symmetrizing basis deriv contribution to polar:
 IMax=3 JMax=2 DiffMx= 0.00D+00
 G2DrvN: will do    11 centers at a time, making    1 passes.
 Calling FoFCou, ICntrl=  3107 FMM=F I1Cent=   0 AccDes= 0.00D+00.
 NEqPCM:  Using equilibrium solvation (IEInf=0, Eps=  78.3553, EpsInf=   1.7778)
 G2PCM: DoFxE=T DoFxN=T DoGrad=T DoDP/DQ/DG/TGxP=FFFF NFrqRd=   0 IEInf=0 SqF1=F DoCFld=F IF1Alg=4.
 End of G2Drv F.D. properties file   721 does not exist.
 End of G2Drv F.D. properties file   722 does not exist.
 End of G2Drv F.D. properties file   788 does not exist.
          IDoAtm=1111111111
 NEqPCM:  Using equilibrium solvation (IEInf=0, Eps=  78.3553, EpsInf=   1.7778)
          Differentiating once with respect to nuclear coordinates.
 Keep R1 ints in memory in canonical form, NReq=110841610.
          There are    33 degrees of freedom in the 1st order CPHF.  IDoFFX=6 NUNeed=     0.
     27 vectors produced by pass  0 Test12= 1.17D-14 3.03D-09 XBig12= 1.43D-01 1.01D-01.
 AX will form    27 AO Fock derivatives at one time.
     27 vectors produced by pass  1 Test12= 1.17D-14 3.03D-09 XBig12= 2.26D-02 3.98D-02.
     27 vectors produced by pass  2 Test12= 1.17D-14 3.03D-09 XBig12= 9.90D-04 6.69D-03.
     27 vectors produced by pass  3 Test12= 1.17D-14 3.03D-09 XBig12= 1.38D-05 5.43D-04.
     27 vectors produced by pass  4 Test12= 1.17D-14 3.03D-09 XBig12= 1.56D-07 6.25D-05.
     27 vectors produced by pass  5 Test12= 1.17D-14 3.03D-09 XBig12= 1.09D-09 5.46D-06.
     27 vectors produced by pass  6 Test12= 1.17D-14 3.03D-09 XBig12= 7.01D-12 5.08D-07.
     16 vectors produced by pass  7 Test12= 1.17D-14 3.03D-09 XBig12= 2.62D-14 2.37D-08.
 InvSVY:  IOpt=1 It=  1 EMax= 2.00D-15
 Solved reduced A of dimension   205 with    27 vectors.
 End of Minotr F.D. properties file   721 does not exist.
 End of Minotr F.D. properties file   722 does not exist.
 End of Minotr F.D. properties file   788 does not exist.

 **********************************************************************

            Population analysis using the SCF Density.

 **********************************************************************

 Orbital symmetries:
       Occupied  (A) (A) (A) (A) (A) (A) (A) (A) (A) (A) (A) (A)
                 (A) (A) (A) (A) (A) (A) (A) (A) (A) (A) (A) (A)
                 (A) (A) (A) (A) (A)
       Virtual   (A) (A) (A) (A) (A) (A) (A) (A) (A) (A) (A) (A)
                 (A) (A) (A) (A) (A) (A) (A) (A) (A) (A) (A) (A)
                 (A) (A) (A) (A) (A) (A) (A) (A) (A) (A) (A) (A)
                 (A) (A) (A) (A) (A) (A) (A) (A) (A) (A) (A) (A)
                 (A) (A) (A) (A) (A) (A) (A) (A) (A) (A) (A) (A)
                 (A) (A) (A) (A) (A) (A) (A) (A) (A) (A) (A) (A)
                 (A) (A) (A) (A) (A) (A) (A) (A) (A) (A) (A) (A)
                 (A) (A) (A) (A) (A) (A) (A) (A) (A) (A) (A) (A)
                 (A) (A) (A) (A) (A) (A) (A) (A) (A) (A) (A) (A)
                 (A) (A) (A) (A) (A) (A) (A) (A) (A) (A) (A) (A)
                 (A) (A) (A) (A) (A) (A) (A) (A) (A) (A) (A) (A)
                 (A)
 The electronic state is 1-A.
 Alpha  occ. eigenvalues --  -19.72752 -19.68687 -14.96471 -14.89400 -14.89273
 Alpha  occ. eigenvalues --  -14.84744 -10.81239 -10.66622  -1.33023  -1.19697
 Alpha  occ. eigenvalues --   -1.09377  -1.08021  -1.04855  -0.82890  -0.78869
 Alpha  occ. eigenvalues --   -0.71592  -0.65361  -0.63522  -0.58466  -0.54507
 Alpha  occ. eigenvalues --   -0.53382  -0.51553  -0.48957  -0.42652  -0.42413
 Alpha  occ. eigenvalues --   -0.41647  -0.41262  -0.38449  -0.38173
 Alpha virt. eigenvalues --   -0.07225  -0.02936   0.00925   0.01124   0.02734
 Alpha virt. eigenvalues --    0.03438   0.04072   0.05160   0.05883   0.06420
 Alpha virt. eigenvalues --    0.06796   0.08710   0.10297   0.10747   0.13983
 Alpha virt. eigenvalues --    0.14202   0.15895   0.17039   0.17979   0.19298
 Alpha virt. eigenvalues --    0.20504   0.21065   0.21195   0.22993   0.23170
 Alpha virt. eigenvalues --    0.23864   0.25053   0.25925   0.26791   0.27478
 Alpha virt. eigenvalues --    0.28638   0.29012   0.29690   0.30182   0.31541
 Alpha virt. eigenvalues --    0.32080   0.33305   0.34535   0.36539   0.38589
 Alpha virt. eigenvalues --    0.39205   0.41801   0.43345   0.49653   0.50839
 Alpha virt. eigenvalues --    0.69333   0.73634   0.75124   0.80309   0.83326
 Alpha virt. eigenvalues --    0.86588   0.90554   0.90721   0.92349   0.92795
 Alpha virt. eigenvalues --    0.94027   0.95271   0.96295   0.99128   1.02363
 Alpha virt. eigenvalues --    1.03355   1.07743   1.15212   1.16157   1.19253
 Alpha virt. eigenvalues --    1.19672   1.21768   1.24030   1.26020   1.30198
 Alpha virt. eigenvalues --    1.31874   1.32164   1.33993   1.34221   1.36313
 Alpha virt. eigenvalues --    1.36896   1.38674   1.41217   1.44745   1.45733
 Alpha virt. eigenvalues --    1.50887   1.53385   1.57319   1.58475   1.62042
 Alpha virt. eigenvalues --    1.65161   1.75552   1.78620   1.79236   1.84173
 Alpha virt. eigenvalues --    1.87037   1.87326   1.90174   1.91071   1.96694
 Alpha virt. eigenvalues --    2.02947   2.07018   2.08126   2.18721   2.19268
 Alpha virt. eigenvalues --    2.22928   2.23421   2.25805   2.26800   2.31538
 Alpha virt. eigenvalues --    2.35037   2.42422   2.43758   2.46824   2.50156
 Alpha virt. eigenvalues --    2.52563   2.60614   2.62728   2.63522   2.69083
 Alpha virt. eigenvalues --    2.75275   2.78770   2.90341   2.91429   2.92999
 Alpha virt. eigenvalues --    2.96753   2.99896   3.08072   3.20893   3.55112
 Alpha virt. eigenvalues --    3.91990   3.96184   4.06978   4.16160   4.21875
 Alpha virt. eigenvalues --    4.35245   4.40212   4.50888
          Condensed to atoms (all electrons):
               1          2          3          4          5          6
     1  N    7.089239  -0.137468   0.182246  -0.287399   0.336112   0.075631
     2  N   -0.137468   7.687822  -1.011568   0.476389  -0.176836  -0.065965
     3  N    0.182246  -1.011568   7.942103  -0.174237   0.172472   0.012832
     4  N   -0.287399   0.476389  -0.174237   6.988373   0.293056  -0.019599
     5  C    0.336112  -0.176836   0.172472   0.293056   4.937955  -0.023237
     6  C    0.075631  -0.065965   0.012832  -0.019599  -0.023237   4.709760
     7  O   -0.000969  -0.006760  -0.037033   0.001870  -0.000688   0.384437
     8  O   -0.051711   0.010447  -0.013310   0.001652  -0.009520   0.341372
     9  H    0.102701   0.004314  -0.002435   0.000759   0.017193   0.016510
    10  H   -0.045946  -0.008043   0.014445  -0.034752   0.410579  -0.000814
               7          8          9         10
     1  N   -0.000969  -0.051711   0.102701  -0.045946
     2  N   -0.006760   0.010447   0.004314  -0.008043
     3  N   -0.037033  -0.013310  -0.002435   0.014445
     4  N    0.001870   0.001652   0.000759  -0.034752
     5  C   -0.000688  -0.009520   0.017193   0.410579
     6  C    0.384437   0.341372   0.016510  -0.000814
     7  O    8.342455  -0.110893   0.003600  -0.000001
     8  O   -0.110893   8.188382   0.094165  -0.000203
     9  H    0.003600   0.094165   0.271782   0.000049
    10  H   -0.000001  -0.000203   0.000049   0.375241
 Mulliken charges:
               1
     1  N   -0.262437
     2  N    0.227668
     3  N   -0.085516
     4  N   -0.246112
     5  C    0.042915
     6  C    0.569073
     7  O   -0.576018
     8  O   -0.450381
     9  H    0.491362
    10  H    0.289444
 Sum of Mulliken charges =  -0.00000
 Mulliken charges with hydrogens summed into heavy atoms:
               1
     1  N    0.228926
     2  N    0.227668
     3  N   -0.085516
     4  N   -0.246112
     5  C    0.332360
     6  C    0.569073
     7  O   -0.576018
     8  O   -0.450381
 APT charges:
               1
     1  N   -0.261629
     2  N   -0.663193
     3  N    0.330485
     4  N   -0.293497
     5  C   -0.108344
     6  C   -0.044315
     7  O   -0.172986
     8  O   -0.182625
     9  H    0.546163
    10  H    0.849940
 Sum of APT charges =  -0.00000
 APT charges with hydrogens summed into heavy atoms:
               1
     1  N    0.284534
     2  N   -0.663193
     3  N    0.330485
     4  N   -0.293497
     5  C    0.741597
     6  C   -0.044315
     7  O   -0.172986
     8  O   -0.182625
 Electronic spatial extent (au):  <R**2>=            935.5910
 Charge=             -0.0000 electrons
 Dipole moment (field-independent basis, Debye):
    X=             -7.5884    Y=              6.4297    Z=              0.0655  Tot=              9.9464
 Quadrupole moment (field-independent basis, Debye-Ang):
   XX=            -60.9337   YY=            -47.4023   ZZ=            -44.7368
   XY=             -5.5759   XZ=              0.0779   YZ=             -0.0293
 Traceless Quadrupole moment (field-independent basis, Debye-Ang):
   XX=             -9.9095   YY=              3.6220   ZZ=              6.2875
   XY=             -5.5759   XZ=              0.0779   YZ=             -0.0293
 Octapole moment (field-independent basis, Debye-Ang**2):
  XXX=            -59.4443  YYY=             24.5837  ZZZ=             -0.0283  XYY=            -11.4131
  XXY=             35.4618  XXZ=              0.0232  XZZ=              1.2438  YZZ=              1.1166
  YYZ=             -0.1332  XYZ=             -0.1336
 Hexadecapole moment (field-independent basis, Debye-Ang**3):
 XXXX=          -1010.5696 YYYY=           -250.0616 ZZZZ=            -41.0025 XXXY=            -45.5323
 XXXZ=             -0.5032 YYYX=            -11.8139 YYYZ=             -0.1486 ZZZX=             -0.0570
 ZZZY=              0.0121 XXYY=           -208.5814 XXZZ=           -158.7921 YYZZ=            -50.8734
 XXYZ=              0.3103 YYXZ=             -0.3119 ZZXY=              0.2423
 N-N= 3.448441991115D+02 E-N=-1.731094854496D+03  KE= 4.415564851610D+02
  Exact polarizability:       0.000       0.000       0.000       0.000       0.000       0.000
 Approx polarizability:     116.582      -4.664      90.961      -0.772       0.012      41.666
 D2PCM: PCM CHGder 2nd derivatives, FixD1E=F FixD2E=F DoIter=F DoCFld=F I1PDM=0
 Calling FoFJK, ICntrl=    100127 FMM=F ISym2X=0 I1Cent= 0 IOpClX= 0 NMat=1 NMatS=1 NMatT=0.
 ***** Axes restored to original set *****
 -------------------------------------------------------------------
 Center     Atomic                   Forces (Hartrees/Bohr)
 Number     Number              X              Y              Z
 -------------------------------------------------------------------
      1        7           0.071794337    0.056861353    0.000856258
      2        7          -0.000800345    0.045518227    0.002875169
      3        7          -0.016766624   -0.050652106    0.001499330
      4        7           0.032970129   -0.032315258   -0.000753680
      5        6           0.036219522    0.011880081   -0.000247306
      6        6           0.173170768   -0.010874130   -0.013448544
      7        8          -0.160318771    0.086556331    0.005265492
      8        8          -0.124079737   -0.075071697    0.003760884
      9        1          -0.012679832   -0.032736922    0.000230864
     10        1           0.000490552    0.000834120   -0.000038467
 -------------------------------------------------------------------
 Cartesian Forces:  Max     0.173170768 RMS     0.058506790
 FormGI is forming the generalized inverse of G from B-inverse, IUseBI=4.

 GradGradGradGradGradGradGradGradGradGradGradGradGradGradGradGradGradGrad
 Berny optimization.
 Internal  Forces:  Max     0.176611099 RMS     0.038103736
 Search for a saddle point.
 Step number   1 out of a maximum of   59
 All quantities printed in internal units (Hartrees-Bohrs-Radians)
 Swapping is turned off.
 Second derivative matrix not updated -- analytic derivatives used.
 ITU=  0
     Eigenvalues ---   -0.09068  -0.01292  -0.00077   0.00641   0.01111
     Eigenvalues ---    0.01658   0.02365   0.02748   0.02984   0.05089
     Eigenvalues ---    0.07123   0.08788   0.10565   0.12999   0.14831
     Eigenvalues ---    0.21176   0.24303   0.34267   0.35808   0.38932
     Eigenvalues ---    0.43225   0.46006   0.55377   0.62490
 Eigenvectors required to have negative eigenvalues:
                          R11       R3        R5        R10       R9
   1                   -0.67230   0.61437  -0.20295   0.19629  -0.17208
                          A3        A2        A14       A6        A16
   1                    0.16214  -0.13000  -0.05881  -0.05878   0.04099
 RFO step:  Lambda0=2.517538570D-03 Lambda=-2.15976300D-01.
 Linear search not attempted -- option 19 set.
 Maximum step size (   0.300) exceeded in Quadratic search.
    -- Step size scaled by   0.229
 Iteration  1 RMS(Cart)=  0.03317363 RMS(Int)=  0.00516146
 Iteration  2 RMS(Cart)=  0.00504068 RMS(Int)=  0.00016642
 Iteration  3 RMS(Cart)=  0.00001463 RMS(Int)=  0.00016611
 Iteration  4 RMS(Cart)=  0.00000000 RMS(Int)=  0.00016611
 Variable       Old X    -DE/DX   Delta X   Delta X   Delta X     New X
                                 (Linear)    (Quad)   (Total)
    R1        2.51806  -0.01335   0.00000  -0.00776  -0.00786   2.51020
    R2        2.52338  -0.02809   0.00000  -0.00219  -0.00215   2.52123
    R3        2.80804  -0.07162   0.00000  -0.10724  -0.10714   2.70090
    R4        2.43121   0.01428   0.00000  -0.00217  -0.00219   2.42902
    R5        3.20763  -0.06002   0.00000   0.07734   0.07717   3.28480
    R6        2.54768  -0.03371   0.00000  -0.00232  -0.00236   2.54531
    R7        2.49137   0.03497   0.00000   0.00375   0.00374   2.49511
    R8        2.03844   0.00033   0.00000  -0.00027  -0.00027   2.03817
    R9        2.72624  -0.17661   0.00000  -0.23157  -0.23157   2.49466
   R10        2.56457  -0.09564   0.00000  -0.02806  -0.02804   2.53654
   R11        2.96143  -0.04704   0.00000  -0.02857  -0.02839   2.93304
    A1        1.89955  -0.02864   0.00000  -0.00731  -0.00746   1.89209
    A2        1.69991   0.00872   0.00000   0.01413   0.01375   1.71367
    A3        2.68367   0.01992   0.00000  -0.00644  -0.00667   2.67700
    A4        1.85724   0.04628   0.00000   0.01314   0.01330   1.87054
    A5        1.93001  -0.00651   0.00000  -0.02199  -0.02229   1.90773
    A6        2.49499  -0.03979   0.00000   0.00907   0.00921   2.50419
    A7        1.93709  -0.03905   0.00000  -0.00955  -0.00959   1.92749
    A8        1.84714   0.01363   0.00000   0.00210   0.00207   1.84920
    A9        1.88376   0.00779   0.00000   0.00162   0.00167   1.88543
   A10        2.17749  -0.00485   0.00000  -0.00043  -0.00046   2.17703
   A11        2.22194  -0.00293   0.00000  -0.00119  -0.00121   2.22073
   A12        2.33447  -0.05638   0.00000  -0.05888  -0.05884   2.27563
   A13        1.98503  -0.00927   0.00000  -0.03963  -0.03973   1.94531
   A14        1.96085   0.06569   0.00000   0.09868   0.09874   2.05958
   A15        1.62120   0.03352   0.00000   0.01706   0.01737   1.63857
   A16        2.18776  -0.02644   0.00000   0.02979   0.03007   2.21784
    D1       -0.00011  -0.00195   0.00000  -0.00639  -0.00658  -0.00669
    D2       -3.10609  -0.00030   0.00000  -0.01096  -0.01119  -3.11727
    D3        3.13468  -0.00176   0.00000   0.02012   0.02030  -3.12820
    D4        0.02871  -0.00011   0.00000   0.01555   0.01569   0.04440
    D5        0.00012   0.00144   0.00000   0.00632   0.00646   0.00657
    D6        3.14155   0.00035   0.00000   0.00301   0.00300  -3.13864
    D7       -3.12622   0.00161   0.00000  -0.05338  -0.05316   3.10381
    D8        0.01522   0.00052   0.00000  -0.05669  -0.05662  -0.04140
    D9       -0.01279  -0.00052   0.00000  -0.01513  -0.01555  -0.02834
   D10        3.11424  -0.00085   0.00000   0.04178   0.04154  -3.12741
   D11        0.00006   0.00175   0.00000   0.00412   0.00426   0.00432
   D12        3.08630   0.00197   0.00000   0.01010   0.01043   3.09673
   D13       -3.09809  -0.00334   0.00000  -0.02364  -0.02350  -3.12159
   D14       -0.04548   0.00106   0.00000  -0.01588  -0.01592  -0.06140
   D15        0.10023  -0.00448   0.00000  -0.03045  -0.03043   0.06980
   D16       -3.13035  -0.00007   0.00000  -0.02270  -0.02285   3.12998
   D17        0.00001  -0.00087   0.00000  -0.00029  -0.00030  -0.00029
   D18       -0.00008  -0.00037   0.00000  -0.00368  -0.00378  -0.00385
   D19       -3.14151   0.00075   0.00000  -0.00026  -0.00021   3.14147
   D20        0.02949  -0.00051   0.00000   0.00561   0.00585   0.03534
   D21        3.10163  -0.00272   0.00000   0.00491   0.00510   3.10672
   D22       -0.01367   0.00077   0.00000   0.00418   0.00411  -0.00956
         Item               Value     Threshold  Converged?
 Maximum Force            0.176611     0.000450     NO 
 RMS     Force            0.038104     0.000300     NO 
 Maximum Displacement     0.175929     0.001800     NO 
 RMS     Displacement     0.036175     0.001200     NO 
 Predicted change in Energy=-5.826854D-02
 GradGradGradGradGradGradGradGradGradGradGradGradGradGradGradGradGradGrad

                          Input orientation:                          
 ---------------------------------------------------------------------
 Center     Atomic      Atomic             Coordinates (Angstroms)
 Number     Number       Type             X           Y           Z
 ---------------------------------------------------------------------
      1          7           0       -0.895152    0.840692    0.013316
      2          7           0       -0.369714   -0.379254    0.001507
      3          7           0       -1.347495   -1.213561   -0.007960
      4          7           0       -2.524521   -0.558726   -0.008005
      5          6           0       -2.224435    0.727034    0.002317
      6          6           0        1.363524   -0.258965    0.055390
      7          8           0        2.287196   -1.202018    0.041416
      8          8           0        1.768309    1.020315    0.019290
      9          1           0        0.323563    1.587283    0.003203
     10          1           0       -2.912287    1.557776    0.005367
 ---------------------------------------------------------------------
                    Distance matrix (angstroms):
                    1          2          3          4          5
     1  N    0.000000
     2  N    1.328343   0.000000
     3  N    2.103574   1.285385   0.000000
     4  N    2.147946   2.162289   1.346922   0.000000
     5  C    1.334178   2.159598   2.129563   1.320355   0.000000
     6  C    2.512495   1.738242   2.874872   3.900098   3.721351
     7  O    3.781639   2.781672   3.635044   4.854779   4.906891
     8  O    2.669518   2.555435   3.833951   4.574112   4.003536
     9  H    1.429254   2.085163   3.261486   3.566100   2.689298
    10  H    2.140819   3.196370   3.182618   2.151772   1.078555
                    6          7          8          9         10
     6  C    0.000000
     7  O    1.320119   0.000000
     8  O    1.342278   2.282213   0.000000
     9  H    2.119640   3.411381   1.552096   0.000000
    10  H    4.646031   5.886627   4.711373   3.235985   0.000000
 Stoichiometry    C2H2N4O2
 Framework group  C1[X(C2H2N4O2)]
 Deg. of freedom    24
 Full point group                 C1      NOp   1
 Largest Abelian subgroup         C1      NOp   1
 Largest concise Abelian subgroup C1      NOp   1
                         Standard orientation:                         
 ---------------------------------------------------------------------
 Center     Atomic      Atomic             Coordinates (Angstroms)
 Number     Number       Type             X           Y           Z
 ---------------------------------------------------------------------
      1          7           0       -0.750543    0.881304    0.005621
      2          7           0       -0.158829   -0.307852   -0.011089
      3          7           0       -1.089206   -1.194764   -0.010908
      4          7           0       -2.300466   -0.605767    0.000379
      5          6           0       -2.071588    0.694580    0.007566
      6          6           0        1.565589   -0.092223    0.025920
      7          8           0        2.539636   -0.982969    0.003126
      8          8           0        1.898910    1.207388   -0.014330
      9          1           0        0.425033    1.693893   -0.016466
     10          1           0       -2.804103    1.486168    0.017163
 ---------------------------------------------------------------------
 Rotational constants (GHZ):           5.8093608           1.4487745           1.1596773
 Standard basis: 6-31+G(d,p) (6D, 7F)
 There are   162 symmetry adapted cartesian basis functions of A   symmetry.
 There are   162 symmetry adapted basis functions of A   symmetry.
   162 basis functions,   270 primitive gaussians,   162 cartesian basis functions
    29 alpha electrons       29 beta electrons
       nuclear repulsion energy       348.2838377765 Hartrees.
 NAtoms=   10 NActive=   10 NUniq=   10 SFac= 1.00D+00 NAtFMM=   60 NAOKFM=F Big=F
 Integral buffers will be    131072 words long.
 Raffenetti 2 integral format.
 Two-electron integral symmetry is turned on.
 ------------------------------------------------------------------------------
 Polarizable Continuum Model (PCM)
 =================================
 Model                : PCM.
 Atomic radii         : SMD-Coulomb.
 Polarization charges : Total charges.
 Charge compensation  : None.
 Solution method      : Matrix inversion.
 Cavity type          : VdW (van der Waals Surface) (Alpha=1.000).
 Cavity algorithm     : GePol (No added spheres)
                        Default sphere list used, NSphG=   10.
                        Lebedev-Laikov grids with approx.  5.0 points / Ang**2.
                        Smoothing algorithm: York/Karplus (Gamma=1.0000).
                        Polarization charges: spherical gaussians, with
                                              point-specific exponents (IZeta= 3).
                        Self-potential: point-specific (ISelfS= 7).
                        Self-field    : sphere-specific E.n sum rule (ISelfD= 2).
 1st derivatives      : Analytical E(r).r(x)/FMM algorithm (CHGder, D1EAlg=3).
                        Cavity 1st derivative terms included.
 Solvent              : Water, Eps=  78.355300 Eps(inf)=   1.777849
 ------------------------------------------------------------------------------
 Spheres list:
 ISph  on   Nord     Re0    Alpha      Xe            Ye            Ze
    1   N      1    1.8900  1.000     -0.750543      0.881304      0.005621
    2   N      2    1.8900  1.000     -0.158829     -0.307852     -0.011089
    3   N      3    1.8900  1.000     -1.089206     -1.194764     -0.010908
    4   N      4    1.8900  1.000     -2.300466     -0.605767      0.000379
    5   C      5    1.8500  1.000     -2.071588      0.694580      0.007566
    6   C      6    1.8500  1.000      1.565589     -0.092223      0.025920
    7   O      7    1.5200  1.000      2.539636     -0.982969      0.003126
    8   O      8    1.5200  1.000      1.898910      1.207388     -0.014330
    9   H      9    1.2000  1.000      0.425033      1.693893     -0.016466
   10   H     10    1.2000  1.000     -2.804103      1.486168      0.017163
 ------------------------------------------------------------------------------
 ------------------------------------------------------------------------------
 Atomic radii for non-electrostatic terms: SMD-CDS.
 ------------------------------------------------------------------------------
 Nuclear repulsion after PCM non-electrostatic terms =      348.2890840227 Hartrees.
 One-electron integrals computed using PRISM.
 NBasis=   162 RedAO= T EigKep=  3.22D-05  NBF=   162
 NBsUse=   162 1.00D-06 EigRej= -1.00D+00 NBFU=   162
 Initial guess from the checkpoint file:  "/home/Tinker/g16/scratch/Gau-1725550.chk"
 B after Tr=     0.000000   -0.000000    0.000000
         Rot=    0.999986    0.000053   -0.000058    0.005245 Ang=   0.60 deg.
 ExpMin= 4.38D-02 ExpMax= 5.48D+03 ExpMxC= 8.25D+02 IAcc=3 IRadAn=         5 AccDes= 0.00D+00
 Harris functional with IExCor= 1009 and IRadAn=       5 diagonalized for initial guess.
 HarFok:  IExCor= 1009 AccDes= 0.00D+00 IRadAn=         5 IDoV= 1 UseB2=F ITyADJ=14
 ICtDFT=  3500011 ScaDFX=  1.000000  1.000000  1.000000  1.000000
 FoFCou: FMM=F IPFlag=           0 FMFlag=      100000 FMFlg1=           0
         NFxFlg=           0 DoJE=T BraDBF=F KetDBF=T FulRan=T
         wScrn=  0.000000 ICntrl=       500 IOpCl=  0 I1Cent=   200000004 NGrid=           0
         NMat0=    1 NMatS0=      1 NMatT0=    0 NMatD0=    1 NMtDS0=    0 NMtDT0=    0
 Petite list used in FoFCou.
 Keep R1 ints in memory in canonical form, NReq=110915818.
 Requested convergence on RMS density matrix=1.00D-08 within 128 cycles.
 Requested convergence on MAX density matrix=1.00D-06.
 Requested convergence on             energy=1.00D-06.
 No special actions if energy rises.
 Inv3:  Mode=1 IEnd=     3030075.
 Iteration    1 A*A^-1 deviation from unit magnitude is 3.11D-15 for    362.
 Iteration    1 A*A^-1 deviation from orthogonality  is 1.61D-15 for    329    198.
 Iteration    1 A^-1*A deviation from unit magnitude is 2.89D-15 for    959.
 Iteration    1 A^-1*A deviation from orthogonality  is 2.03D-11 for    373    267.
 Error on total polarization charges =  0.03185
 SCF Done:  E(RM062X) =  -446.564695639     A.U. after   14 cycles
            NFock= 14  Conv=0.79D-08     -V/T= 2.0107
 SMD-CDS (non-electrostatic) energy       (kcal/mol) =       3.29
 (included in total energy above)
 D1PCM: PCM CHGder 1st derivatives, ID1Alg=3 FixD1E=F DoIter=F DoCFld=F I1PDM=0.
 Calling FoFJK, ICntrl=      2127 FMM=F ISym2X=0 I1Cent= 0 IOpClX= 0 NMat=1 NMatS=1 NMatT=0.
 ***** Axes restored to original set *****
 -------------------------------------------------------------------
 Center     Atomic                   Forces (Hartrees/Bohr)
 Number     Number              X              Y              Z
 -------------------------------------------------------------------
      1        7           0.068860188    0.051727659   -0.000944764
      2        7           0.001261627    0.038908758    0.003606318
      3        7          -0.014225837   -0.041662295    0.000540996
      4        7           0.027297683   -0.026874349   -0.000776130
      5        6           0.029784190    0.009659371    0.000465380
      6        6           0.143047660   -0.004552421   -0.013300036
      7        8          -0.130875217    0.066529600    0.004558204
      8        8          -0.108563413   -0.063310151    0.004789216
      9        1          -0.016875137   -0.030982888    0.001077841
     10        1           0.000288256    0.000556715   -0.000017026
 -------------------------------------------------------------------
 Cartesian Forces:  Max     0.143047660 RMS     0.049204611

 GradGradGradGradGradGradGradGradGradGradGradGradGradGradGradGradGradGrad
 Berny optimization.
 FormGI is forming the generalized inverse of G from B-inverse, IUseBI=4.
 Internal  Forces:  Max     0.139149038 RMS     0.032028658
 Search for a saddle point.
 Step number   2 out of a maximum of   59
 All quantities printed in internal units (Hartrees-Bohrs-Radians)
 Swapping is turned off.
 Update second derivatives using D2CorX and points    1    2
 ITU=  0  0
     Eigenvalues ---   -0.09267  -0.01180  -0.00299   0.00642   0.01113
     Eigenvalues ---    0.02294   0.02735   0.02966   0.05070   0.07123
     Eigenvalues ---    0.08314   0.09901   0.10572   0.12975   0.15402
     Eigenvalues ---    0.21174   0.24323   0.34390   0.37919   0.38932
     Eigenvalues ---    0.43281   0.46155   0.55383   0.62486
 Eigenvectors required to have negative eigenvalues:
                          R11       R3        R5        R10       A3
   1                   -0.64636   0.63639  -0.24860   0.18697   0.16277
                          A2        R9        A14       A6        A12
   1                   -0.12984  -0.09961  -0.08804  -0.07001   0.05238
 RFO step:  Lambda0=2.808899065D-04 Lambda=-1.52026380D-01.
 Linear search not attempted -- option 19 set.
 Maximum step size (   0.300) exceeded in Quadratic search.
    -- Step size scaled by   0.262
 Iteration  1 RMS(Cart)=  0.06135709 RMS(Int)=  0.00678439
 Iteration  2 RMS(Cart)=  0.00862854 RMS(Int)=  0.00030760
 Iteration  3 RMS(Cart)=  0.00001341 RMS(Int)=  0.00030735
 Iteration  4 RMS(Cart)=  0.00000000 RMS(Int)=  0.00030735
 Variable       Old X    -DE/DX   Delta X   Delta X   Delta X     New X
                                 (Linear)    (Quad)   (Total)
    R1        2.51020  -0.01105   0.00000   0.00119   0.00159   2.51180
    R2        2.52123  -0.02282   0.00000  -0.01243  -0.01239   2.50884
    R3        2.70090  -0.06927   0.00000  -0.06265  -0.06240   2.63850
    R4        2.42902   0.01202   0.00000   0.01072   0.01070   2.43973
    R5        3.28480  -0.05178   0.00000  -0.24820  -0.24824   3.03656
    R6        2.54531  -0.02819   0.00000  -0.02744  -0.02749   2.51782
    R7        2.49511   0.02865   0.00000   0.01558   0.01556   2.51067
    R8        2.03817   0.00024   0.00000   0.00052   0.00052   2.03870
    R9        2.49466  -0.13915   0.00000  -0.08082  -0.08082   2.41384
   R10        2.53654  -0.07857   0.00000  -0.01966  -0.02006   2.51647
   R11        2.93304  -0.04108   0.00000   0.02589   0.02574   2.95878
    A1        1.89209  -0.02394   0.00000  -0.01485  -0.01501   1.87708
    A2        1.71367   0.00781   0.00000  -0.00277  -0.00211   1.71156
    A3        2.67700   0.01614   0.00000   0.01737   0.01684   2.69384
    A4        1.87054   0.03835   0.00000   0.01667   0.01661   1.88714
    A5        1.90773  -0.00493   0.00000   0.04528   0.04565   1.95337
    A6        2.50419  -0.03344   0.00000  -0.06178  -0.06209   2.44211
    A7        1.92749  -0.03215   0.00000  -0.01415  -0.01410   1.91339
    A8        1.84920   0.01131   0.00000   0.00876   0.00881   1.85802
    A9        1.88543   0.00643   0.00000   0.00356   0.00369   1.88912
   A10        2.17703  -0.00380   0.00000  -0.00014  -0.00020   2.17682
   A11        2.22073  -0.00263   0.00000  -0.00342  -0.00348   2.21724
   A12        2.27563  -0.05215   0.00000  -0.05278  -0.05260   2.22304
   A13        1.94531  -0.01220   0.00000   0.01503   0.01465   1.95995
   A14        2.05958   0.06448   0.00000   0.03810   0.03832   2.09790
   A15        1.63857   0.03029   0.00000   0.00680   0.00588   1.64445
   A16        2.21784  -0.02091   0.00000  -0.06419  -0.06394   2.15390
    D1       -0.00669  -0.00104   0.00000  -0.00067  -0.00027  -0.00695
    D2       -3.11727   0.00024   0.00000  -0.00277  -0.00266  -3.11993
    D3       -3.12820  -0.00180   0.00000   0.00483   0.00504  -3.12317
    D4        0.04440  -0.00052   0.00000   0.00274   0.00265   0.04704
    D5        0.00657   0.00055   0.00000   0.00081   0.00043   0.00701
    D6       -3.13864   0.00010   0.00000   0.00096   0.00088  -3.13775
    D7        3.10381   0.00086   0.00000  -0.01291  -0.01327   3.09054
    D8       -0.04140   0.00040   0.00000  -0.01276  -0.01282  -0.05422
    D9       -0.02834   0.00003   0.00000  -0.00515  -0.00475  -0.03309
   D10       -3.12741   0.00013   0.00000   0.00819   0.00864  -3.11877
   D11        0.00432   0.00102   0.00000   0.00024  -0.00005   0.00427
   D12        3.09673   0.00112   0.00000   0.00845   0.00789   3.10462
   D13       -3.12159  -0.00345   0.00000  -0.00398  -0.00394  -3.12553
   D14       -0.06140   0.00186   0.00000   0.00377   0.00409  -0.05731
   D15        0.06980  -0.00422   0.00000  -0.01176  -0.01148   0.05831
   D16        3.12998   0.00109   0.00000  -0.00401  -0.00345   3.12653
   D17       -0.00029  -0.00057   0.00000   0.00031   0.00037   0.00008
   D18       -0.00385  -0.00009   0.00000  -0.00073  -0.00055  -0.00440
   D19        3.14147   0.00039   0.00000  -0.00090  -0.00102   3.14045
   D20        0.03534  -0.00084   0.00000  -0.00577  -0.00609   0.02925
   D21        3.10672  -0.00179   0.00000  -0.00367  -0.00334   3.10338
   D22       -0.00956   0.00071   0.00000   0.00982   0.00958   0.00002
         Item               Value     Threshold  Converged?
 Maximum Force            0.139149     0.000450     NO 
 RMS     Force            0.032029     0.000300     NO 
 Maximum Displacement     0.330272     0.001800     NO 
 RMS     Displacement     0.069439     0.001200     NO 
 Predicted change in Energy=-3.857728D-02
 GradGradGradGradGradGradGradGradGradGradGradGradGradGradGradGradGradGrad

                          Input orientation:                          
 ---------------------------------------------------------------------
 Center     Atomic      Atomic             Coordinates (Angstroms)
 Number     Number       Type             X           Y           Z
 ---------------------------------------------------------------------
      1          7           0       -0.868148    0.877215    0.015983
      2          7           0       -0.314517   -0.331135    0.005117
      3          7           0       -1.262705   -1.207277   -0.005775
      4          7           0       -2.443110   -0.589332   -0.007580
      5          6           0       -2.185637    0.714033    0.002607
      6          6           0        1.289931   -0.256299    0.052106
      7          8           0        2.112423   -1.233500    0.037592
      8          8           0        1.738366    0.997216    0.021664
      9          1           0        0.306900    1.631201    0.000689
     10          1           0       -2.904516    1.518454    0.003438
 ---------------------------------------------------------------------
                    Distance matrix (angstroms):
                    1          2          3          4          5
     1  N    0.000000
     2  N    1.329186   0.000000
     3  N    2.121616   1.291048   0.000000
     4  N    2.152166   2.144233   1.332372   0.000000
     5  C    1.327624   2.143239   2.131503   1.328591   0.000000
     6  C    2.437922   1.606880   2.724640   3.748343   3.608819
     7  O    3.652313   2.589470   3.375509   4.601074   4.718838
     8  O    2.609281   2.445223   3.723838   4.472441   3.934254
     9  H    1.396234   2.058383   3.243557   3.534599   2.655926
    10  H    2.134980   3.182621   3.182017   2.157725   1.078833
                    6          7          8          9         10
     6  C    0.000000
     7  O    1.277351   0.000000
     8  O    1.331661   2.261916   0.000000
     9  H    2.128767   3.386412   1.565717   0.000000
    10  H    4.554723   5.722246   4.672085   3.213396   0.000000
 Stoichiometry    C2H2N4O2
 Framework group  C1[X(C2H2N4O2)]
 Deg. of freedom    24
 Full point group                 C1      NOp   1
 Largest Abelian subgroup         C1      NOp   1
 Largest concise Abelian subgroup C1      NOp   1
                         Standard orientation:                         
 ---------------------------------------------------------------------
 Center     Atomic      Atomic             Coordinates (Angstroms)
 Number     Number       Type             X           Y           Z
 ---------------------------------------------------------------------
      1          7           0       -0.727939    0.917213    0.006615
      2          7           0       -0.103201   -0.255908   -0.008382
      3          7           0       -0.997388   -1.187161   -0.009548
      4          7           0       -2.212582   -0.640862   -0.000781
      5          6           0       -2.033387    0.675572    0.005805
      6          6           0        1.494275   -0.085258    0.023412
      7          8           0        2.373532   -1.011582    0.002024
      8          8           0        1.866682    1.192769   -0.012384
      9          1           0        0.399749    1.740047   -0.020434
     10          1           0       -2.799021    1.435597    0.012689
 ---------------------------------------------------------------------
 Rotational constants (GHZ):           5.7509979           1.5774544           1.2379848
 Standard basis: 6-31+G(d,p) (6D, 7F)
 There are   162 symmetry adapted cartesian basis functions of A   symmetry.
 There are   162 symmetry adapted basis functions of A   symmetry.
   162 basis functions,   270 primitive gaussians,   162 cartesian basis functions
    29 alpha electrons       29 beta electrons
       nuclear repulsion energy       355.1190689512 Hartrees.
 NAtoms=   10 NActive=   10 NUniq=   10 SFac= 1.00D+00 NAtFMM=   60 NAOKFM=F Big=F
 Integral buffers will be    131072 words long.
 Raffenetti 2 integral format.
 Two-electron integral symmetry is turned on.
 ------------------------------------------------------------------------------
 Polarizable Continuum Model (PCM)
 =================================
 Model                : PCM.
 Atomic radii         : SMD-Coulomb.
 Polarization charges : Total charges.
 Charge compensation  : None.
 Solution method      : Matrix inversion.
 Cavity type          : VdW (van der Waals Surface) (Alpha=1.000).
 Cavity algorithm     : GePol (No added spheres)
                        Default sphere list used, NSphG=   10.
                        Lebedev-Laikov grids with approx.  5.0 points / Ang**2.
                        Smoothing algorithm: York/Karplus (Gamma=1.0000).
                        Polarization charges: spherical gaussians, with
                                              point-specific exponents (IZeta= 3).
                        Self-potential: point-specific (ISelfS= 7).
                        Self-field    : sphere-specific E.n sum rule (ISelfD= 2).
 1st derivatives      : Analytical E(r).r(x)/FMM algorithm (CHGder, D1EAlg=3).
                        Cavity 1st derivative terms included.
 Solvent              : Water, Eps=  78.355300 Eps(inf)=   1.777849
 ------------------------------------------------------------------------------
 Spheres list:
 ISph  on   Nord     Re0    Alpha      Xe            Ye            Ze
    1   N      1    1.8900  1.000     -0.727939      0.917213      0.006615
    2   N      2    1.8900  1.000     -0.103201     -0.255908     -0.008382
    3   N      3    1.8900  1.000     -0.997388     -1.187161     -0.009548
    4   N      4    1.8900  1.000     -2.212582     -0.640862     -0.000781
    5   C      5    1.8500  1.000     -2.033387      0.675572      0.005805
    6   C      6    1.8500  1.000      1.494275     -0.085258      0.023412
    7   O      7    1.5200  1.000      2.373532     -1.011582      0.002024
    8   O      8    1.5200  1.000      1.866682      1.192769     -0.012384
    9   H      9    1.2000  1.000      0.399749      1.740047     -0.020434
   10   H     10    1.2000  1.000     -2.799021      1.435597      0.012689
 ------------------------------------------------------------------------------
 ------------------------------------------------------------------------------
 Atomic radii for non-electrostatic terms: SMD-CDS.
 ------------------------------------------------------------------------------
 Nuclear repulsion after PCM non-electrostatic terms =      355.1245345364 Hartrees.
 One-electron integrals computed using PRISM.
 NBasis=   162 RedAO= T EigKep=  3.32D-05  NBF=   162
 NBsUse=   162 1.00D-06 EigRej= -1.00D+00 NBFU=   162
 Initial guess from the checkpoint file:  "/home/Tinker/g16/scratch/Gau-1725550.chk"
 B after Tr=    -0.000000   -0.000000   -0.000000
         Rot=    1.000000   -0.000062    0.000105    0.000269 Ang=  -0.03 deg.
 ExpMin= 4.38D-02 ExpMax= 5.48D+03 ExpMxC= 8.25D+02 IAcc=3 IRadAn=         5 AccDes= 0.00D+00
 Harris functional with IExCor= 1009 and IRadAn=       5 diagonalized for initial guess.
 HarFok:  IExCor= 1009 AccDes= 0.00D+00 IRadAn=         5 IDoV= 1 UseB2=F ITyADJ=14
 ICtDFT=  3500011 ScaDFX=  1.000000  1.000000  1.000000  1.000000
 FoFCou: FMM=F IPFlag=           0 FMFlag=      100000 FMFlg1=           0
         NFxFlg=           0 DoJE=T BraDBF=F KetDBF=T FulRan=T
         wScrn=  0.000000 ICntrl=       500 IOpCl=  0 I1Cent=   200000004 NGrid=           0
         NMat0=    1 NMatS0=      1 NMatT0=    0 NMatD0=    1 NMtDS0=    0 NMtDT0=    0
 Petite list used in FoFCou.
 Keep R1 ints in memory in canonical form, NReq=110915818.
 Requested convergence on RMS density matrix=1.00D-08 within 128 cycles.
 Requested convergence on MAX density matrix=1.00D-06.
 Requested convergence on             energy=1.00D-06.
 No special actions if energy rises.
 Inv3:  Mode=1 IEnd=     2958147.
 Iteration    1 A*A^-1 deviation from unit magnitude is 3.33D-15 for    961.
 Iteration    1 A*A^-1 deviation from orthogonality  is 1.56D-15 for    325    197.
 Iteration    1 A^-1*A deviation from unit magnitude is 3.11D-15 for    961.
 Iteration    1 A^-1*A deviation from orthogonality  is 2.81D-15 for    360    279.
 Error on total polarization charges =  0.03175
 SCF Done:  E(RM062X) =  -446.601811658     A.U. after   14 cycles
            NFock= 14  Conv=0.31D-08     -V/T= 2.0101
 SMD-CDS (non-electrostatic) energy       (kcal/mol) =       3.43
 (included in total energy above)
 D1PCM: PCM CHGder 1st derivatives, ID1Alg=3 FixD1E=F DoIter=F DoCFld=F I1PDM=0.
 Calling FoFJK, ICntrl=      2127 FMM=F ISym2X=0 I1Cent= 0 IOpClX= 0 NMat=1 NMatS=1 NMatT=0.
 ***** Axes restored to original set *****
 -------------------------------------------------------------------
 Center     Atomic                   Forces (Hartrees/Bohr)
 Number     Number              X              Y              Z
 -------------------------------------------------------------------
      1        7           0.060795345    0.045890955   -0.001403249
      2        7          -0.000961681    0.031089604    0.003488216
      3        7          -0.008500662   -0.033668715    0.000632205
      4        7           0.021844936   -0.020600276   -0.000712351
      5        6           0.023233645    0.008773636    0.000452141
      6        6           0.108568232   -0.003071706   -0.012258634
      7        8          -0.094260588    0.048572278    0.004322797
      8        8          -0.095020926   -0.043547429    0.003904610
      9        1          -0.015711380   -0.033681548    0.001574446
     10        1           0.000013081    0.000243202   -0.000000181
 -------------------------------------------------------------------
 Cartesian Forces:  Max     0.108568232 RMS     0.038748420

 GradGradGradGradGradGradGradGradGradGradGradGradGradGradGradGradGradGrad
 Berny optimization.
 FormGI is forming the generalized inverse of G from B-inverse, IUseBI=4.
 Internal  Forces:  Max     0.097896588 RMS     0.025188008
 Search for a saddle point.
 Step number   3 out of a maximum of   59
 All quantities printed in internal units (Hartrees-Bohrs-Radians)
 Swapping is turned off.
 Update second derivatives using D2CorX and points    1    2    3
 ITU=  0  0  0
     Eigenvalues ---   -0.09235  -0.01374  -0.00699   0.00642   0.01112
     Eigenvalues ---    0.02156   0.02730   0.02960   0.05055   0.07121
     Eigenvalues ---    0.08539   0.10563   0.12108   0.13154   0.19325
     Eigenvalues ---    0.21286   0.24566   0.34446   0.38932   0.40676
     Eigenvalues ---    0.43322   0.46393   0.55387   0.62482
 Eigenvectors required to have negative eigenvalues:
                          R11       R3        R5        R10       A3
   1                   -0.65469   0.65108  -0.18874   0.18119   0.16428
                          A2        A14       R9        A12       A6
   1                   -0.13370  -0.09744  -0.07004   0.06424  -0.05513
 RFO step:  Lambda0=2.387602901D-03 Lambda=-1.00003638D-01.
 Linear search not attempted -- option 19 set.
 Maximum step size (   0.300) exceeded in Quadratic search.
    -- Step size scaled by   0.301
 Iteration  1 RMS(Cart)=  0.03419889 RMS(Int)=  0.00169647
 Iteration  2 RMS(Cart)=  0.00146622 RMS(Int)=  0.00052617
 Iteration  3 RMS(Cart)=  0.00000231 RMS(Int)=  0.00052616
 Iteration  4 RMS(Cart)=  0.00000000 RMS(Int)=  0.00052616
 Variable       Old X    -DE/DX   Delta X   Delta X   Delta X     New X
                                 (Linear)    (Quad)   (Total)
    R1        2.51180  -0.00969   0.00000  -0.01144  -0.01179   2.50000
    R2        2.50884  -0.01759   0.00000  -0.00171  -0.00165   2.50720
    R3        2.63850  -0.06282   0.00000  -0.07851  -0.07788   2.56061
    R4        2.43973   0.00884   0.00000  -0.00118  -0.00124   2.43849
    R5        3.03656  -0.04194   0.00000   0.08575   0.08503   3.12160
    R6        2.51782  -0.02182   0.00000  -0.00319  -0.00323   2.51459
    R7        2.51067   0.02295   0.00000   0.00558   0.00561   2.51628
    R8        2.03870   0.00018   0.00000  -0.00050  -0.00050   2.03820
    R9        2.41384  -0.09790   0.00000  -0.11281  -0.11281   2.30103
   R10        2.51647  -0.06230   0.00000  -0.04435  -0.04452   2.47195
   R11        2.95878  -0.03653   0.00000  -0.19524  -0.19454   2.76424
    A1        1.87708  -0.01924   0.00000  -0.01249  -0.01276   1.86433
    A2        1.71156   0.00630   0.00000  -0.01305  -0.01326   1.69829
    A3        2.69384   0.01296   0.00000   0.02360   0.02281   2.71666
    A4        1.88714   0.03113   0.00000   0.01986   0.02029   1.90743
    A5        1.95337  -0.00303   0.00000  -0.03559  -0.03655   1.91682
    A6        2.44211  -0.02811   0.00000   0.01598   0.01648   2.45859
    A7        1.91339  -0.02572   0.00000  -0.01345  -0.01363   1.89977
    A8        1.85802   0.00882   0.00000   0.00162   0.00156   1.85958
    A9        1.88912   0.00500   0.00000   0.00439   0.00445   1.89356
   A10        2.17682  -0.00269   0.00000  -0.00009  -0.00012   2.17670
   A11        2.21724  -0.00231   0.00000  -0.00431  -0.00434   2.21290
   A12        2.22304  -0.04249   0.00000  -0.03787  -0.03750   2.18553
   A13        1.95995  -0.01312   0.00000  -0.05839  -0.05920   1.90076
   A14        2.09790   0.05578   0.00000   0.09678   0.09723   2.19513
   A15        1.64445   0.02495   0.00000   0.03777   0.03828   1.68273
   A16        2.15390  -0.01503   0.00000   0.06796   0.06915   2.22305
    D1       -0.00695  -0.00070   0.00000  -0.00768  -0.00697  -0.01392
    D2       -3.11993   0.00012   0.00000  -0.01438  -0.01362  -3.13355
    D3       -3.12317  -0.00149   0.00000   0.02677   0.02579  -3.09738
    D4        0.04704  -0.00067   0.00000   0.02008   0.01914   0.06618
    D5        0.00701   0.00029   0.00000   0.00762   0.00704   0.01405
    D6       -3.13775   0.00002   0.00000   0.00375   0.00370  -3.13405
    D7        3.09054   0.00059   0.00000  -0.07424  -0.07515   3.01539
    D8       -0.05422   0.00032   0.00000  -0.07811  -0.07849  -0.13271
    D9       -0.03309   0.00022   0.00000  -0.01923  -0.01942  -0.05250
   D10       -3.11877   0.00032   0.00000   0.05971   0.05999  -3.05878
   D11        0.00427   0.00074   0.00000   0.00480   0.00419   0.00846
   D12        3.10462   0.00089   0.00000   0.01308   0.01269   3.11731
   D13       -3.12553  -0.00314   0.00000  -0.03334  -0.03289   3.12477
   D14       -0.05731   0.00207   0.00000  -0.02098  -0.02034  -0.07765
   D15        0.05831  -0.00377   0.00000  -0.04271  -0.04229   0.01603
   D16        3.12653   0.00144   0.00000  -0.03034  -0.02974   3.09679
   D17        0.00008  -0.00046   0.00000   0.00000   0.00031   0.00039
   D18       -0.00440   0.00002   0.00000  -0.00477  -0.00462  -0.00903
   D19        3.14045   0.00030   0.00000  -0.00080  -0.00121   3.13924
   D20        0.02925  -0.00111   0.00000   0.00889   0.00914   0.03839
   D21        3.10338  -0.00071   0.00000   0.01450   0.01535   3.11873
   D22        0.00002   0.00074   0.00000   0.00474   0.00440   0.00443
         Item               Value     Threshold  Converged?
 Maximum Force            0.097897     0.000450     NO 
 RMS     Force            0.025188     0.000300     NO 
 Maximum Displacement     0.130871     0.001800     NO 
 RMS     Displacement     0.034876     0.001200     NO 
 Predicted change in Energy=-2.936230D-02
 GradGradGradGradGradGradGradGradGradGradGradGradGradGradGradGradGradGrad

                          Input orientation:                          
 ---------------------------------------------------------------------
 Center     Atomic      Atomic             Coordinates (Angstroms)
 Number     Number       Type             X           Y           Z
 ---------------------------------------------------------------------
      1          7           0       -0.848212    0.870615    0.033311
      2          7           0       -0.324000   -0.343749    0.006837
      3          7           0       -1.273359   -1.217368   -0.018040
      4          7           0       -2.442465   -0.581866   -0.018777
      5          6           0       -2.166164    0.720471    0.006275
      6          6           0        1.324256   -0.243542    0.050593
      7          8           0        2.085717   -1.193718    0.055257
      8          8           0        1.673674    1.016163    0.003926
      9          1           0        0.316562    1.561947   -0.004608
     10          1           0       -2.877021    1.531623    0.011067
 ---------------------------------------------------------------------
                    Distance matrix (angstroms):
                    1          2          3          4          5
     1  N    0.000000
     2  N    1.322944   0.000000
     3  N    2.131446   1.290392   0.000000
     4  N    2.157326   2.131959   1.330665   0.000000
     5  C    1.326752   2.127471   2.133755   1.331560   0.000000
     6  C    2.441569   1.651878   2.775005   3.782520   3.621369
     7  O    3.587463   2.555684   3.359959   4.569931   4.663154
     8  O    2.526254   2.416624   3.697858   4.415519   3.851207
     9  H    1.355019   2.010505   3.201971   3.494047   2.621474
    10  H    2.133891   3.167800   3.182692   2.157907   1.078568
                    6          7          8          9         10
     6  C    0.000000
     7  O    1.217653   0.000000
     8  O    1.308101   2.248553   0.000000
     9  H    2.068401   3.275238   1.462774   0.000000
    10  H    4.561085   5.661996   4.579801   3.193765   0.000000
 Stoichiometry    C2H2N4O2
 Framework group  C1[X(C2H2N4O2)]
 Deg. of freedom    24
 Full point group                 C1      NOp   1
 Largest Abelian subgroup         C1      NOp   1
 Largest concise Abelian subgroup C1      NOp   1
                         Standard orientation:                         
 ---------------------------------------------------------------------
 Center     Atomic      Atomic             Coordinates (Angstroms)
 Number     Number       Type             X           Y           Z
 ---------------------------------------------------------------------
      1          7           0       -0.693902    0.910975    0.025362
      2          7           0       -0.107243   -0.274354   -0.006372
      3          7           0       -1.009852   -1.196414   -0.020981
      4          7           0       -2.210518   -0.622882   -0.009486
      5          6           0       -2.002416    0.692135    0.012324
      6          6           0        1.533892   -0.088107    0.019898
      7          8           0        2.343983   -0.997185    0.016723
      8          8           0        1.816478    1.188100   -0.030770
      9          1           0        0.432679    1.662205   -0.025060
     10          1           0       -2.754609    1.465030    0.024452
 ---------------------------------------------------------------------
 Rotational constants (GHZ):           5.7867093           1.6069284           1.2579577
 Standard basis: 6-31+G(d,p) (6D, 7F)
 There are   162 symmetry adapted cartesian basis functions of A   symmetry.
 There are   162 symmetry adapted basis functions of A   symmetry.
   162 basis functions,   270 primitive gaussians,   162 cartesian basis functions
    29 alpha electrons       29 beta electrons
       nuclear repulsion energy       357.7867195925 Hartrees.
 NAtoms=   10 NActive=   10 NUniq=   10 SFac= 1.00D+00 NAtFMM=   60 NAOKFM=F Big=F
 Integral buffers will be    131072 words long.
 Raffenetti 2 integral format.
 Two-electron integral symmetry is turned on.
 ------------------------------------------------------------------------------
 Polarizable Continuum Model (PCM)
 =================================
 Model                : PCM.
 Atomic radii         : SMD-Coulomb.
 Polarization charges : Total charges.
 Charge compensation  : None.
 Solution method      : Matrix inversion.
 Cavity type          : VdW (van der Waals Surface) (Alpha=1.000).
 Cavity algorithm     : GePol (No added spheres)
                        Default sphere list used, NSphG=   10.
                        Lebedev-Laikov grids with approx.  5.0 points / Ang**2.
                        Smoothing algorithm: York/Karplus (Gamma=1.0000).
                        Polarization charges: spherical gaussians, with
                                              point-specific exponents (IZeta= 3).
                        Self-potential: point-specific (ISelfS= 7).
                        Self-field    : sphere-specific E.n sum rule (ISelfD= 2).
 1st derivatives      : Analytical E(r).r(x)/FMM algorithm (CHGder, D1EAlg=3).
                        Cavity 1st derivative terms included.
 Solvent              : Water, Eps=  78.355300 Eps(inf)=   1.777849
 ------------------------------------------------------------------------------
 Spheres list:
 ISph  on   Nord     Re0    Alpha      Xe            Ye            Ze
    1   N      1    1.8900  1.000     -0.693902      0.910975      0.025362
    2   N      2    1.8900  1.000     -0.107243     -0.274354     -0.006372
    3   N      3    1.8900  1.000     -1.009852     -1.196414     -0.020981
    4   N      4    1.8900  1.000     -2.210518     -0.622882     -0.009486
    5   C      5    1.8500  1.000     -2.002416      0.692135      0.012324
    6   C      6    1.8500  1.000      1.533892     -0.088107      0.019898
    7   O      7    1.5200  1.000      2.343983     -0.997185      0.016723
    8   O      8    1.5200  1.000      1.816478      1.188100     -0.030770
    9   H      9    1.2000  1.000      0.432679      1.662205     -0.025060
   10   H     10    1.2000  1.000     -2.754609      1.465030      0.024452
 ------------------------------------------------------------------------------
 ------------------------------------------------------------------------------
 Atomic radii for non-electrostatic terms: SMD-CDS.
 ------------------------------------------------------------------------------
 Nuclear repulsion after PCM non-electrostatic terms =      357.7925654566 Hartrees.
 One-electron integrals computed using PRISM.
 NBasis=   162 RedAO= T EigKep=  3.34D-05  NBF=   162
 NBsUse=   162 1.00D-06 EigRej= -1.00D+00 NBFU=   162
 Initial guess from the checkpoint file:  "/home/Tinker/g16/scratch/Gau-1725550.chk"
 B after Tr=     0.000000    0.000000    0.000000
         Rot=    0.999999    0.000115   -0.000115    0.001466 Ang=   0.17 deg.
 ExpMin= 4.38D-02 ExpMax= 5.48D+03 ExpMxC= 8.25D+02 IAcc=3 IRadAn=         5 AccDes= 0.00D+00
 Harris functional with IExCor= 1009 and IRadAn=       5 diagonalized for initial guess.
 HarFok:  IExCor= 1009 AccDes= 0.00D+00 IRadAn=         5 IDoV= 1 UseB2=F ITyADJ=14
 ICtDFT=  3500011 ScaDFX=  1.000000  1.000000  1.000000  1.000000
 FoFCou: FMM=F IPFlag=           0 FMFlag=      100000 FMFlg1=           0
         NFxFlg=           0 DoJE=T BraDBF=F KetDBF=T FulRan=T
         wScrn=  0.000000 ICntrl=       500 IOpCl=  0 I1Cent=   200000004 NGrid=           0
         NMat0=    1 NMatS0=      1 NMatT0=    0 NMatD0=    1 NMtDS0=    0 NMtDT0=    0
 Petite list used in FoFCou.
 Keep R1 ints in memory in canonical form, NReq=110915818.
 Requested convergence on RMS density matrix=1.00D-08 within 128 cycles.
 Requested convergence on MAX density matrix=1.00D-06.
 Requested convergence on             energy=1.00D-06.
 No special actions if energy rises.
 Inv3:  Mode=1 IEnd=     2958147.
 Iteration    1 A*A^-1 deviation from unit magnitude is 3.55D-15 for    974.
 Iteration    1 A*A^-1 deviation from orthogonality  is 1.59D-15 for    992    926.
 Iteration    1 A^-1*A deviation from unit magnitude is 3.55D-15 for    974.
 Iteration    1 A^-1*A deviation from orthogonality  is 1.95D-13 for    324    255.
 Error on total polarization charges =  0.03052
 SCF Done:  E(RM062X) =  -446.628232063     A.U. after   13 cycles
            NFock= 13  Conv=0.56D-08     -V/T= 2.0094
 SMD-CDS (non-electrostatic) energy       (kcal/mol) =       3.67
 (included in total energy above)
 D1PCM: PCM CHGder 1st derivatives, ID1Alg=3 FixD1E=F DoIter=F DoCFld=F I1PDM=0.
 Calling FoFJK, ICntrl=      2127 FMM=F ISym2X=0 I1Cent= 0 IOpClX= 0 NMat=1 NMatS=1 NMatT=0.
 ***** Axes restored to original set *****
 -------------------------------------------------------------------
 Center     Atomic                   Forces (Hartrees/Bohr)
 Number     Number              X              Y              Z
 -------------------------------------------------------------------
      1        7           0.046238490    0.034756268   -0.003759261
      2        7           0.005821301    0.024542618    0.004252370
      3        7          -0.005875654   -0.024667327    0.000035446
      4        7           0.015284353   -0.015244235   -0.000748830
      5        6           0.016903964    0.005919200    0.001102383
      6        6           0.056045122    0.021135040   -0.010851087
      7        8          -0.050707037    0.009392632    0.003138438
      8        8          -0.075262609   -0.030707782    0.004041612
      9        1          -0.008263783   -0.025147973    0.002740181
     10        1          -0.000184148    0.000021559    0.000048748
 -------------------------------------------------------------------
 Cartesian Forces:  Max     0.075262609 RMS     0.025267094

 GradGradGradGradGradGradGradGradGradGradGradGradGradGradGradGradGradGrad
 Berny optimization.
 FormGI is forming the generalized inverse of G from B-inverse, IUseBI=4.
 Internal  Forces:  Max     0.048242253 RMS     0.017030110
 Search for a saddle point.
 Step number   4 out of a maximum of   59
 All quantities printed in internal units (Hartrees-Bohrs-Radians)
 Swapping is turned off.
 Update second derivatives using D2CorX and points    2    3    4
 ITU=  0  0  0  0
     Eigenvalues ---   -0.09403  -0.02865   0.00123   0.00643   0.01111
     Eigenvalues ---    0.01777   0.02726   0.02948   0.05014   0.07119
     Eigenvalues ---    0.08425   0.10563   0.11773   0.13107   0.21013
     Eigenvalues ---    0.22874   0.25121   0.34376   0.38932   0.43033
     Eigenvalues ---    0.44663   0.51605   0.55584   0.62467
 Eigenvectors required to have negative eigenvalues:
                          R11       R3        R5        R10       A3
   1                    0.68287  -0.61900   0.21928  -0.16955  -0.16706
                          A2        A14       A12       A6        R9
   1                    0.13400   0.08812  -0.06033   0.06031   0.04222
 RFO step:  Lambda0=3.802694133D-04 Lambda=-7.38914082D-02.
 Linear search not attempted -- option 19 set.
 Maximum step size (   0.300) exceeded in Quadratic search.
    -- Step size scaled by   0.292
 Iteration  1 RMS(Cart)=  0.05011632 RMS(Int)=  0.00214170
 Iteration  2 RMS(Cart)=  0.00148177 RMS(Int)=  0.00083971
 Iteration  3 RMS(Cart)=  0.00000726 RMS(Int)=  0.00083969
 Iteration  4 RMS(Cart)=  0.00000001 RMS(Int)=  0.00083969
 Variable       Old X    -DE/DX   Delta X   Delta X   Delta X     New X
                                 (Linear)    (Quad)   (Total)
    R1        2.50000  -0.00654   0.00000  -0.00029  -0.00062   2.49939
    R2        2.50720  -0.01238   0.00000  -0.00757  -0.00762   2.49957
    R3        2.56061  -0.04824   0.00000  -0.15683  -0.15671   2.40390
    R4        2.43849   0.00662   0.00000   0.00494   0.00495   2.44344
    R5        3.12160  -0.03629   0.00000  -0.19327  -0.19333   2.92826
    R6        2.51459  -0.01550   0.00000  -0.01912  -0.01902   2.49557
    R7        2.51628   0.01684   0.00000   0.01234   0.01239   2.52867
    R8        2.03820   0.00015   0.00000   0.00048   0.00048   2.03868
    R9        2.30103  -0.03901   0.00000   0.06069   0.06069   2.36173
   R10        2.47195  -0.04232   0.00000  -0.05615  -0.05612   2.41583
   R11        2.76424  -0.03192   0.00000  -0.11234  -0.11218   2.65206
    A1        1.86433  -0.01405   0.00000  -0.01595  -0.01575   1.84858
    A2        1.69829   0.00342   0.00000  -0.02030  -0.02028   1.67802
    A3        2.71666   0.01074   0.00000   0.03156   0.03018   2.74684
    A4        1.90743   0.02266   0.00000   0.01917   0.01917   1.92660
    A5        1.91682  -0.00154   0.00000   0.01301   0.01265   1.92948
    A6        2.45859  -0.02113   0.00000  -0.03181  -0.03155   2.42704
    A7        1.89977  -0.01858   0.00000  -0.01443  -0.01448   1.88529
    A8        1.85958   0.00642   0.00000   0.00722   0.00722   1.86679
[...]
    R1        2.48741  -0.00000   0.00000   0.00002   0.00002   2.48743
    R2        2.49361  -0.00000   0.00000   0.00000   0.00000   2.49361
    R3        2.28905  -0.00002   0.00000  -0.00002  -0.00002   2.28903
    R4        2.44239  -0.00001   0.00000  -0.00003  -0.00003   2.44236
    R5        2.90447  -0.00000   0.00000  -0.00002  -0.00002   2.90445
    R6        2.48598  -0.00001   0.00000  -0.00002  -0.00002   2.48596
    R7        2.54812   0.00000   0.00000   0.00000   0.00000   2.54813
    R8        2.03846   0.00000   0.00000   0.00000   0.00000   2.03846
    R9        2.27143  -0.00006   0.00000  -0.00007  -0.00007   2.27135
   R10        2.38420  -0.00006   0.00000  -0.00006  -0.00006   2.38414
   R11        2.55909   0.00001   0.00000  -0.00003  -0.00003   2.55906
    A1        1.81970   0.00001   0.00000  -0.00002  -0.00002   1.81967
    A2        1.66652  -0.00003   0.00000  -0.00020  -0.00020   1.66632
    A3        2.79696   0.00003   0.00000   0.00023   0.00023   2.79719
    A4        1.96865  -0.00000   0.00000   0.00001   0.00001   1.96866
    A5        1.93363   0.00003   0.00000   0.00016   0.00016   1.93379
    A6        2.38091  -0.00003   0.00000  -0.00017  -0.00018   2.38074
    A7        1.85838   0.00000   0.00000   0.00000   0.00000   1.85838
    A8        1.87048   0.00000   0.00000   0.00000   0.00000   1.87048
    A9        1.90758  -0.00001   0.00000   0.00000   0.00000   1.90758
   A10        2.18390   0.00001   0.00000   0.00000   0.00000   2.18390
   A11        2.19171   0.00000   0.00000  -0.00001  -0.00001   2.19170
   A12        2.06532   0.00003   0.00000   0.00011   0.00011   2.06543
   A13        1.82805  -0.00002   0.00000  -0.00011  -0.00011   1.82795
   A14        2.38982  -0.00000   0.00000  -0.00000  -0.00000   2.38981
   A15        1.72905   0.00002   0.00000   0.00002   0.00002   1.72907
   A16        2.26752   0.00001   0.00000   0.00013   0.00013   2.26766
    D1       -0.00009   0.00000   0.00000   0.00009   0.00009   0.00000
    D2       -3.14092  -0.00000   0.00000  -0.00068  -0.00068   3.14159
    D3        3.14091   0.00000   0.00000   0.00069   0.00069  -3.14159
    D4        0.00008   0.00000   0.00000  -0.00009  -0.00009  -0.00000
    D5        0.00002  -0.00000   0.00000  -0.00002  -0.00002  -0.00000
    D6       -3.14153  -0.00000   0.00000  -0.00006  -0.00006  -3.14159
    D7       -3.13983  -0.00000   0.00000  -0.00177  -0.00177   3.14159
    D8        0.00180  -0.00000   0.00000  -0.00180  -0.00180  -0.00000
    D9       -0.00007   0.00000   0.00000   0.00007   0.00007   0.00000
   D10        3.13982   0.00000   0.00000   0.00177   0.00177  -3.14159
   D11        0.00013  -0.00000   0.00000  -0.00013  -0.00013  -0.00000
   D12        3.14068   0.00000   0.00000   0.00092   0.00092  -3.14159
   D13        3.14139   0.00000   0.00000   0.00021   0.00021  -3.14159
   D14       -0.00009  -0.00000   0.00000   0.00009   0.00009   0.00000
   D15        0.00083   0.00000   0.00000  -0.00083  -0.00083  -0.00000
   D16       -3.14065  -0.00001   0.00000  -0.00094  -0.00094   3.14159
   D17       -0.00011   0.00000   0.00000   0.00011   0.00011   0.00000
   D18        0.00005   0.00000   0.00000  -0.00005  -0.00005  -0.00000
   D19       -3.14158  -0.00000   0.00000  -0.00001  -0.00001   3.14159
   D20        0.00004   0.00000   0.00000  -0.00004  -0.00004  -0.00000
   D21       -3.14140  -0.00001   0.00000  -0.00019  -0.00019   3.14159
   D22        0.00002  -0.00000   0.00000  -0.00002  -0.00002  -0.00000
         Item               Value     Threshold  Converged?
 Maximum Force            0.000062     0.000450     YES
 RMS     Force            0.000017     0.000300     YES
 Maximum Displacement     0.000902     0.001800     YES
 RMS     Displacement     0.000214     0.001200     YES
 Predicted change in Energy=-3.044438D-08
 Optimization completed.
    -- Stationary point found.
                           ----------------------------
                           !   Optimized Parameters   !
                           ! (Angstroms and Degrees)  !
 --------------------------                            --------------------------
 ! Name  Definition              Value          Derivative Info.                !
 --------------------------------------------------------------------------------
 ! R1    R(1,2)                  1.3163         -DE/DX =    0.0                 !
 ! R2    R(1,5)                  1.3196         -DE/DX =    0.0                 !
 ! R3    R(1,9)                  1.2113         -DE/DX =    0.0                 !
 ! R4    R(2,3)                  1.2925         -DE/DX =    0.0                 !
 ! R5    R(2,6)                  1.537          -DE/DX =    0.0                 !
 ! R6    R(3,4)                  1.3155         -DE/DX =    0.0                 !
 ! R7    R(4,5)                  1.3484         -DE/DX =    0.0                 !
 ! R8    R(5,10)                 1.0787         -DE/DX =    0.0                 !
 ! R9    R(6,7)                  1.202          -DE/DX =   -0.0001              !
 ! R10   R(6,8)                  1.2617         -DE/DX =   -0.0001              !
 ! R11   R(8,9)                  1.3542         -DE/DX =    0.0                 !
 ! A1    A(2,1,5)              104.261          -DE/DX =    0.0                 !
 ! A2    A(2,1,9)               95.4848         -DE/DX =    0.0                 !
 ! A3    A(5,1,9)              160.2542         -DE/DX =    0.0                 !
 ! A4    A(1,2,3)              112.7951         -DE/DX =    0.0                 !
 ! A5    A(1,2,6)              110.7886         -DE/DX =    0.0                 !
 ! A6    A(3,2,6)              136.4163         -DE/DX =    0.0                 !
 ! A7    A(2,3,4)              106.4774         -DE/DX =    0.0                 !
 ! A8    A(3,4,5)              107.1705         -DE/DX =    0.0                 !
 ! A9    A(1,5,4)              109.296          -DE/DX =    0.0                 !
 ! A10   A(1,5,10)             125.1283         -DE/DX =    0.0                 !
 ! A11   A(4,5,10)             125.5756         -DE/DX =    0.0                 !
 ! A12   A(2,6,7)              118.3339         -DE/DX =    0.0                 !
 ! A13   A(2,6,8)              104.7397         -DE/DX =    0.0                 !
 ! A14   A(7,6,8)              136.9264         -DE/DX =    0.0                 !
 ! A15   A(6,8,9)               99.0673         -DE/DX =    0.0                 !
 ! A16   A(1,9,8)              129.9196         -DE/DX =    0.0                 !
 ! D1    D(5,1,2,3)             -0.0054         -DE/DX =    0.0                 !
 ! D2    D(5,1,2,6)            180.0387         -DE/DX =    0.0                 !
 ! D3    D(9,1,2,3)           -180.0393         -DE/DX =    0.0                 !
 ! D4    D(9,1,2,6)              0.0048         -DE/DX =    0.0                 !
 ! D5    D(2,1,5,4)              0.0014         -DE/DX =    0.0                 !
 ! D6    D(2,1,5,10)          -179.9966         -DE/DX =    0.0                 !
 ! D7    D(9,1,5,4)            180.1013         -DE/DX =    0.0                 !
 ! D8    D(9,1,5,10)             0.1033         -DE/DX =    0.0                 !
 ! D9    D(2,1,9,8)             -0.0042         -DE/DX =    0.0                 !
 ! D10   D(5,1,9,8)           -180.1014         -DE/DX =    0.0                 !
 ! D11   D(1,2,3,4)              0.0073         -DE/DX =    0.0                 !
 ! D12   D(6,2,3,4)           -180.0525         -DE/DX =    0.0                 !
 ! D13   D(1,2,6,7)           -180.0117         -DE/DX =    0.0                 !
 ! D14   D(1,2,6,8)             -0.005          -DE/DX =    0.0                 !
 ! D15   D(3,2,6,7)              0.0473         -DE/DX =    0.0                 !
 ! D16   D(3,2,6,8)            180.054          -DE/DX =    0.0                 !
 ! D17   D(2,3,4,5)             -0.006          -DE/DX =    0.0                 !
 ! D18   D(3,4,5,1)              0.0029         -DE/DX =    0.0                 !
 ! D19   D(3,4,5,10)           180.0008         -DE/DX =    0.0                 !
 ! D20   D(2,6,8,9)              0.0023         -DE/DX =    0.0                 !
 ! D21   D(7,6,8,9)            180.0109         -DE/DX =    0.0                 !
 ! D22   D(6,8,9,1)              0.0011         -DE/DX =    0.0                 !
 --------------------------------------------------------------------------------
 GradGradGradGradGradGradGradGradGradGradGradGradGradGradGradGradGradGrad


 ----------------------------------------------------------------------

 Electric dipole moment (input orientation):
 (Debye = 10**-18 statcoulomb cm , SI units = C m)
                  (au)            (Debye)         (10**-30 SI)
   Tot        0.314043D+01      0.798217D+01      0.266257D+02
   x         -0.211722D+01     -0.538142D+01     -0.179505D+02
   y          0.231936D+01      0.589522D+01      0.196644D+02
   z         -0.160087D-01     -0.406901D-01     -0.135728D+00

 Dipole polarizability, Alpha (input orientation).
 (esu units = cm**3 , SI units = C**2 m**2 J**-1)
 Alpha(0;0):
               (au)            (10**-24 esu)      (10**-40 SI)
   iso        0.730085D+02      0.108187D+02      0.120375D+02
   aniso      0.516751D+02      0.765745D+01      0.852007D+01
   xx         0.960956D+02      0.142399D+02      0.158440D+02
   yx        -0.508231D+01     -0.753120D+00     -0.837959D+00
   yy         0.830148D+02      0.123015D+02      0.136873D+02
   zx         0.335355D+00      0.496946D-01      0.552926D-01
   zy        -0.870278D-01     -0.128962D-01     -0.143489D-01
   zz         0.399152D+02      0.591482D+01      0.658112D+01

 ----------------------------------------------------------------------

 Dipole orientation:
     7          0.08058841          0.03386394          2.30066131
     7         -0.52303581         -0.51249420         -0.04972920
     7         -2.32837297         -2.14997024         -0.20688030
     7         -2.96280156         -2.72618470          2.12669973
     6         -1.46176295         -1.36551817          3.67214203
     6          1.12844556          0.98360381         -1.91258899
     8          0.79115833          0.67790553         -4.13793623
     8          2.56944968          2.28883275         -0.53263027
     1          1.72929175          1.52749797          1.76158802
     1         -1.50778226         -1.40804433          5.70963994

 Electric dipole moment (dipole orientation):
 (Debye = 10**-18 statcoulomb cm , SI units = C m)
                  (au)            (Debye)         (10**-30 SI)
   Tot        0.314043D+01      0.798217D+01      0.266257D+02
   x          0.000000D+00      0.000000D+00      0.000000D+00
   y          0.000000D+00      0.000000D+00      0.000000D+00
   z          0.314043D+01      0.798217D+01      0.266257D+02

 Dipole polarizability, Alpha (dipole orientation).
 (esu units = cm**3 , SI units = C**2 m**2 J**-1)
 Alpha(0;0):
               (au)            (10**-24 esu)      (10**-40 SI)
   iso        0.730085D+02      0.108187D+02      0.120375D+02
   aniso      0.516751D+02      0.765745D+01      0.852007D+01
   xx         0.647080D+02      0.958874D+01      0.106689D+02
   yx         0.224800D+02      0.333119D+01      0.370645D+01
   yy         0.602943D+02      0.893469D+01      0.994119D+01
   zx        -0.516225D+01     -0.764966D+00     -0.851140D+00
   zy        -0.469264D+01     -0.695378D+00     -0.773712D+00
   zz         0.940232D+02      0.139328D+02      0.155023D+02

 ----------------------------------------------------------------------
 Unable to Open any file for archive entry.
 1\1\GINC-XIELAB72C\Freq\RM062X\6-31+G(d,p)\C2H2N4O2\TINKER\28-Oct-2023
 \0\\#N Geom=AllCheck Guess=TCheck SCRF=Check GenChk RM062X/6-31+G(d,p)
  Freq\\Title Card Required\\0,1\N,-0.7886547931,0.9285900961,0.0093098
 358\N,-0.2683180164,-0.2804686549,0.0138300529\N,-1.1648108006,-1.2114
 530014,0.010143918\N,-2.3322928398,-0.6052023625,0.0027076466\C,-2.091
 8597238,0.7215964633,0.002270557\C,1.2671721238,-0.2134953851,0.023329
 3534\O,1.8831851375,-1.2456176083,0.028475425\O,1.5347061592,1.0194766
 455,0.0235870061\H,0.2731089683,1.511605219,0.0152100446\H,-2.84324893
 52,1.4955444284,-0.0030233693\\Version=ES64L-G16RevC.01\State=1-A\HF=-
 446.6572462\RMSD=1.612e-09\RMSF=2.866e-05\ZeroPoint=0.0581812\Thermal=
 0.0637186\ETot=-446.5935276\HTot=-446.5925834\GTot=-446.6292344\Dipole
 =-2.1172151,2.3193596,-0.0160087\DipoleDeriv=-0.8713464,-0.1182605,-0.
 0045365,-0.6879099,-0.6335715,-0.0031773,-0.0038966,0.0002302,-0.11558
 44,-1.837101,-0.0050639,-0.0115841,-0.095443,0.1878102,-0.0008008,-0.0
 113177,-0.0001725,0.1388786,0.6766857,0.1202721,0.0041269,0.2229283,-0
 .1416727,0.0013444,0.003754,0.0007133,-0.0986553,-0.7114311,-0.0292615
 ,-0.0024232,0.5149873,-0.2848392,0.0029151,-0.0029135,-0.0001481,-0.29
 93062,0.2706352,0.0446615,0.0003422,-0.2986958,0.4981462,-0.0021679,0.
 0007034,-0.0002694,0.1977619,3.4367864,-0.3748901,0.0177295,-0.5824992
 ,3.2535021,-0.0067575,0.0182999,-0.0054901,0.5899243,-1.4126447,0.6010
 035,-0.0061266,0.7660623,-1.683946,0.0060541,-0.0065328,0.0052082,-0.5
 182564,-1.6711509,-0.1693537,-0.0066558,0.1309217,-1.942952,0.0025777,
 -0.0072324,0.0005856,-0.5274085,1.8855805,-0.0225336,0.008988,0.083038
 1,0.5347511,0.0003092,0.0089791,-0.0004166,0.4110282,0.2339863,-0.0465
 738,0.0001397,-0.0533897,0.2127719,-0.0002971,0.0001566,-0.0002404,0.2
 216177\Polar=96.0956073,-5.0823077,83.014798,0.3353555,-0.0870278,39.9
 151765\Quadrupole=-4.7469447,1.0424265,3.7045182,-4.6995218,-0.045428,
 -0.0236392\PG=C01 [X(C2H2N4O2)]\NImag=1\\0.79344119,0.06769460,0.62782
 151,0.00376600,-0.00023780,0.12329360,-0.14017030,0.05987426,-0.000415
 23,0.73706494,0.09318966,-0.29399754,0.00076927,0.04856739,0.74922850,
 -0.00048512,0.00063012,-0.08339504,0.00355524,-0.00057419,0.11899986,-
 0.05661647,-0.05215479,-0.00039652,-0.17945784,-0.14938862,-0.00042577
 ,0.50136143,0.00397721,-0.12787358,0.00023915,-0.07482267,-0.27180759,
 -0.00012671,-0.01432056,0.64052453,-0.00047413,-0.00008747,0.02923519,
 -0.00050602,-0.00052603,-0.07492619,0.00220194,-0.00082919,0.11744009,
 -0.02338152,-0.01249748,-0.00025992,-0.18340929,-0.06513305,-0.0010931
 3,-0.26610484,0.07700657,-0.00108587,0.58130083,-0.15319093,-0.0312279
 6,-0.00077500,0.05406190,-0.00471647,0.00032759,0.11258065,-0.16873593
 ,0.00075382,0.03294482,0.52198457,-0.00005803,0.00001140,0.02412966,-0
 .00125456,-0.00033069,0.02752764,-0.00112354,0.00054412,-0.09392503,0.
 00257429,-0.00037397,0.11597307,-0.39336188,-0.04395048,-0.00175834,-0
 .07806565,0.07406774,-0.00060924,0.01111233,0.01409544,-0.00008987,-0.
 13637416,-0.02956749,-0.00025824,0.80809523,-0.03198105,-0.13166646,-0
 .00013212,-0.02913602,-0.00631655,-0.00011608,0.11707449,-0.08398459,0
 .00079808,-0.05100387,-0.30494603,0.00001558,-0.17793862,0.75172761,-0
 .00177247,-0.00018404,-0.07220275,-0.00047599,0.00045028,0.01484506,-0
 .00022508,0.00022599,0.02211987,-0.00023188,0.00012994,-0.08268495,0.0
 0390256,-0.00180198,0.15863629,-0.05513336,0.02202760,-0.00034439,-0.0
 3053550,0.03976037,0.00004760,-0.03385757,-0.03575021,-0.00002454,0.03
 720964,-0.02766377,0.00018255,0.02426968,0.01322308,0.00009699,0.38369
 970,-0.01274076,0.00169894,-0.00009037,-0.00739217,-0.08967894,0.00001
 791,-0.01972784,0.00798385,-0.00015569,-0.00393144,-0.01022265,0.00001
 142,0.00813843,-0.00932342,0.00005833,-0.23705313,1.08254466,-0.000297
 85,0.00012234,-0.00300794,0.00007075,0.00031576,-0.04485686,-0.0000598
 1,-0.00026070,-0.01636859,0.00018124,-0.00012950,0.00951642,0.00011757
 ,0.00008571,0.00275374,0.00141994,-0.00254380,0.20397983,-0.00613917,-
 0.00638005,-0.00004200,-0.06008759,0.04357279,-0.00052259,0.01023415,0
 .00720553,0.00003700,-0.00866655,0.00717715,-0.00005163,-0.00692502,-0
 .00070205,-0.00003623,-0.24567027,0.27784978,-0.00141087,0.29470563,0.
 01575362,0.00411746,0.00009666,0.03685991,-0.00176359,0.00025416,-0.00
 183139,-0.00475507,0.00000147,0.00647349,-0.00206838,0.00003502,0.0021
 5527,0.00350262,0.00000724,0.27419207,-0.54469587,0.00230016,-0.344715
 67,0.66331621,-0.00007227,-0.00004209,0.00194901,-0.00050828,0.0002956
 4,0.01458137,0.00005396,0.00005300,0.00138433,-0.00005624,0.00004369,-
 0.00107767,-0.00004387,-0.00000733,-0.00015073,-0.00140421,0.00232173,
 -0.07618338,0.00206816,-0.00293666,0.03310032,-0.10238651,-0.01437723,
 -0.00066590,-0.05556709,-0.04317411,-0.00039291,-0.00259585,0.00770763
 ,-0.00006284,-0.01382602,-0.00643279,-0.00004137,0.00940778,-0.0122085
 5,0.00004874,-0.12316412,-0.08637265,-0.00019542,0.02531545,0.03930080
 ,-0.00003691,0.23246001,0.05870605,0.00565146,0.00036935,-0.05731686,-
 0.04347161,-0.00028560,0.00830047,0.01654732,0.00002201,-0.00801841,0.
 00975686,-0.00006215,-0.01145186,0.00159167,-0.00006113,-0.07221494,-0
 .41302005,-0.00006710,0.02076099,-0.12061047,0.00030291,0.13015635,0.5
 6830613,-0.00075100,-0.00007994,0.00970015,-0.00037589,-0.00020811,0.0
 1616280,-0.00005825,0.00003842,0.00482273,-0.00005997,-0.00005787,-0.0
 0319904,0.00006243,-0.00007589,0.00168848,-0.00021545,-0.00015020,-0.0
 7572278,-0.00001379,0.00041717,0.02356278,0.00100424,0.00020548,0.0465
 6562,-0.00216799,-0.04188649,0.00021506,-0.00670312,-0.03721425,-0.000
 01444,0.01337923,0.01979391,0.00002602,0.00016152,0.01772093,-0.000069
 04,-0.02147743,0.01061927,-0.00008120,0.04329042,0.08031879,0.00018196
 ,-0.00234894,-0.02823354,-0.00000023,0.03025231,-0.06892612,0.00040706
 ,-0.05403933,-0.03085953,-0.06776585,-0.00015960,-0.02437299,-0.037717
 44,-0.00010214,-0.00034014,-0.00371419,0.00000828,0.00541200,0.0006153
 9,0.00003323,-0.00087798,0.00493177,-0.00001167,0.02197347,-0.02591877
 ,0.00016690,-0.00390069,0.00249080,-0.00002420,-0.01409346,-0.02476436
 ,-0.00008583,0.04689868,0.15171652,0.00019377,-0.00023606,-0.02795426,
 -0.00003354,-0.00018109,0.00282243,0.00006291,0.00012895,0.00254084,-0
 .00003444,0.00011457,0.00659083,-0.00008537,0.00006589,-0.00707818,0.0
 0025145,0.00052599,-0.00124907,-0.00003070,-0.00017405,0.00331936,0.00
 034103,-0.00042398,-0.02356686,-0.00066889,0.00017576,0.04558617,-0.01
 408400,0.02165005,-0.00009876,-0.00306856,-0.00424791,-0.00005962,0.00
 254543,-0.00489285,-0.00002169,0.01309039,-0.00763047,0.00009956,-0.21
 668089,0.16205332,-0.00122545,-0.00010862,0.00091099,-0.00000749,-0.00
 041770,0.00004545,-0.00000011,0.00010404,0.00000435,0.00000063,-0.0003
 4667,0.00016063,0.00000379,0.21896658,-0.01054886,0.01324203,-0.000079
 54,-0.00632275,0.00024122,-0.00002506,-0.00019227,-0.00418477,0.000014
 72,0.01874736,-0.01043941,0.00011604,0.16532956,-0.22551662,0.00118704
 ,0.00150547,0.00063223,0.00001024,-0.00086778,0.00046628,-0.00000671,-
 0.00050599,0.00001306,-0.00000323,0.00090881,0.00012613,0.00000403,-0.
 16805355,0.22541984,-0.00004889,0.00010354,-0.00174762,-0.00005647,-0.
 00001083,0.00823893,-0.00002984,-0.00001302,0.00767675,0.00006593,-0.0
 0003327,-0.00285093,-0.00123763,0.00116812,-0.03792684,-0.00000992,0.0
 0000466,0.00113863,0.00000266,-0.00000116,-0.00048540,0.00000134,0.000
 00021,-0.00001387,0.00000370,-0.00000072,-0.00101126,0.00130914,-0.001
 21754,0.02698162\\0.00003719,-0.00002051,-0.00000412,-0.00002103,-0.00
 005292,-0.00001560,-0.00002553,0.00000395,0.00000706,-0.00002332,0.000
 03067,0.00000193,0.00000717,0.00002394,0.00000328,-0.00005142,0.000023
 16,-0.00001205,-0.00000061,-0.00009209,0.00000655,0.00002687,0.0000326
 4,0.00000757,0.00003160,0.00001896,0.00000688,0.00001909,0.00003221,-0
 .00000148\\\@
 The archive entry for this job was punched.


 ORIGINALITY CONSISTS NOT IN SAYING WHAT NO ONE HAS EVER SAID BEFORE, 
 BUT IN SAYING WHAT YOU THINK YOUR SELF.

                                    -- JAMES F. STEPHEN
 Job cpu time:       0 days  0 hours 22 minutes 41.6 seconds.
 Elapsed time:       0 days  0 hours  0 minutes 58.0 seconds.
 File lengths (MBytes):  RWF=     54 Int=      0 D2E=      0 Chk=      8 Scr=      1
 Normal termination of Gaussian 16 at Sat Oct 28 00:14:16 2023.
