 Entering Gaussian System, Link 0=g16
 Input=sidanzuo.gjf
 Output=sidanzuo.log
 Initial command:
 /home/Tinker/g16/l1.exe "/home/Tinker/g16/scratch/Gau-1711543.inp" -scrdir="/home/Tinker/g16/scratch/"
 Entering Link 1 = /home/Tinker/g16/l1.exe PID=   1711544.
  
 Copyright (c) 1988-2019, Gaussian, Inc.  All Rights Reserved.
  
 This is part of the Gaussian(R) 16 program.  It is based on
 the Gaussian(R) 09 system (copyright 2009, Gaussian, Inc.),
 the Gaussian(R) 03 system (copyright 2003, Gaussian, Inc.),
 the Gaussian(R) 98 system (copyright 1998, Gaussian, Inc.),
 the Gaussian(R) 94 system (copyright 1995, Gaussian, Inc.),
 the Gaussian 92(TM) system (copyright 1992, Gaussian, Inc.),
 the Gaussian 90(TM) system (copyright 1990, Gaussian, Inc.),
 the Gaussian 88(TM) system (copyright 1988, Gaussian, Inc.),
 the Gaussian 86(TM) system (copyright 1986, Carnegie Mellon
 University), and the Gaussian 82(TM) system (copyright 1983,
 Carnegie Mellon University). Gaussian is a federally registered
 trademark of Gaussian, Inc.
  
 This software contains proprietary and confidential information,
 including trade secrets, belonging to Gaussian, Inc.
  
 This software is provided under written license and may be
 used, copied, transmitted, or stored only in accord with that
 written license.
  
 The following legend is applicable only to US Government
 contracts under FAR:
  
                    RESTRICTED RIGHTS LEGEND
  
 Use, reproduction and disclosure by the US Government is
 subject to restrictions as set forth in subparagraphs (a)
 and (c) of the Commercial Computer Software - Restricted
 Rights clause in FAR 52.227-19.
  
 Gaussian, Inc.
 340 Quinnipiac St., Bldg. 40, Wallingford CT 06492
  
  
 ---------------------------------------------------------------
 Warning -- This program may not be used in any manner that
 competes with the business of Gaussian, Inc. or will provide
 assistance to any competitor of Gaussian, Inc.  The licensee
 of this program is prohibited from giving any competitor of
 Gaussian, Inc. access to this program.  By using this program,
 the user acknowledges that Gaussian, Inc. is engaged in the
 business of creating and licensing software in the field of
 computational chemistry and represents and warrants to the
 licensee that it is not a competitor of Gaussian, Inc. and that
 it will not use this program in any manner prohibited above.
 ---------------------------------------------------------------
  

 Cite this work as:
 Gaussian 16, Revision C.01,
 M. J. Frisch, G. W. Trucks, H. B. Schlegel, G. E. Scuseria, 
 M. A. Robb, J. R. Cheeseman, G. Scalmani, V. Barone, 
 G. A. Petersson, H. Nakatsuji, X. Li, M. Caricato, A. V. Marenich, 
 J. Bloino, B. G. Janesko, R. Gomperts, B. Mennucci, H. P. Hratchian, 
 J. V. Ortiz, A. F. Izmaylov, J. L. Sonnenberg, D. Williams-Young, 
 F. Ding, F. Lipparini, F. Egidi, J. Goings, B. Peng, A. Petrone, 
 T. Henderson, D. Ranasinghe, V. G. Zakrzewski, J. Gao, N. Rega, 
 G. Zheng, W. Liang, M. Hada, M. Ehara, K. Toyota, R. Fukuda, 
 J. Hasegawa, M. Ishida, T. Nakajima, Y. Honda, O. Kitao, H. Nakai, 
 T. Vreven, K. Throssell, J. A. Montgomery, Jr., J. E. Peralta, 
 F. Ogliaro, M. J. Bearpark, J. J. Heyd, E. N. Brothers, K. N. Kudin, 
 V. N. Staroverov, T. A. Keith, R. Kobayashi, J. Normand, 
 K. Raghavachari, A. P. Rendell, J. C. Burant, S. S. Iyengar, 
 J. Tomasi, M. Cossi, J. M. Millam, M. Klene, C. Adamo, R. Cammi, 
 J. W. Ochterski, R. L. Martin, K. Morokuma, O. Farkas, 
 J. B. Foresman, and D. J. Fox, Gaussian, Inc., Wallingford CT, 2019.
 
 ******************************************
 Gaussian 16:  ES64L-G16RevC.01  3-Jul-2019
                27-Oct-2023 
 ******************************************
 %mem=10GB
 %nprocshared=24
 Will use up to   24 processors via shared memory.
 -----------------------------------------------------
 # opt freq 6-31+g(d,p) m062x scrf=(SMD,solvent=water)
 -----------------------------------------------------
 1/18=20,19=15,26=3,38=1/1,3;
 2/9=110,12=2,17=6,18=5,40=1/2;
 3/5=1,6=6,7=111,11=2,25=1,30=1,70=32201,71=1,72=1,74=-55/1,2,3;
 4//1;
 5/5=2,38=5,53=1/2;
 6/7=2,8=2,9=2,10=2,28=1/1;
 7//1,2,3,16;
 1/18=20,19=15,26=3/3(2);
 2/9=110/2;
 99//99;
 2/9=110/2;
 3/5=1,6=6,7=111,11=2,25=1,30=1,70=32205,71=1,72=1,74=-55/1,2,3;
 4/5=5,16=3,69=1/1;
 5/5=2,38=5,53=1/2;
 7//1,2,3,16;
 1/18=20,19=15,26=3/3(-5);
 2/9=110/2;
 6/7=2,8=2,9=2,10=2,19=2,28=1/1;
 99/9=1/99;
 -------------------
 Title Card Required
 -------------------
 Symbolic Z-matrix:
 Charge =  0 Multiplicity = 1
 N                    -0.339    -0.32      0.038 
 N                    -1.323     0.579     0.013 
 N                    -2.528    -0.021    -0.024 
 N                    -2.226    -1.365    -0.019 
 C                    -0.875    -1.502     0.02 
 C                    -0.754     2.711     0.075 
 O                    -1.862     3.083     0.026 
 O                     0.365     2.42      0.126 
 H                     0.719     0.015     0.068 
 H                    -0.212    -2.429     0.037 
 
 Add virtual bond connecting atoms C6         and N2         Dist= 4.17D+00.

 GradGradGradGradGradGradGradGradGradGradGradGradGradGradGradGradGradGrad
 Berny optimization.
 Initialization pass.
                           ----------------------------
                           !    Initial Parameters    !
                           ! (Angstroms and Degrees)  !
 --------------------------                            --------------------------
 ! Name  Definition              Value          Derivative Info.                !
 --------------------------------------------------------------------------------
 ! R1    R(1,2)                  1.3331         estimate D2E/DX2                !
 ! R2    R(1,5)                  1.298          estimate D2E/DX2                !
 ! R3    R(1,9)                  1.1102         estimate D2E/DX2                !
 ! R4    R(2,3)                  1.3466         estimate D2E/DX2                !
 ! R5    R(2,6)                  2.2075         estimate D2E/DX2                !
 ! R6    R(3,4)                  1.3775         estimate D2E/DX2                !
 ! R7    R(4,5)                  1.3585         estimate D2E/DX2                !
 ! R8    R(5,10)                 1.1398         estimate D2E/DX2                !
 ! R9    R(6,7)                  1.1698         estimate D2E/DX2                !
 ! R10   R(6,8)                  1.1573         estimate D2E/DX2                !
 ! A1    A(2,1,5)              108.0018         estimate D2E/DX2                !
 ! A2    A(2,1,9)              120.0306         estimate D2E/DX2                !
 ! A3    A(5,1,9)              131.9675         estimate D2E/DX2                !
 ! A4    A(1,2,3)              111.1341         estimate D2E/DX2                !
 ! A5    A(1,2,6)              117.4213         estimate D2E/DX2                !
 ! A6    A(3,2,6)              131.433          estimate D2E/DX2                !
 ! A7    A(2,3,4)              103.7944         estimate D2E/DX2                !
 ! A8    A(3,4,5)              108.4528         estimate D2E/DX2                !
 ! A9    A(1,5,4)              108.6167         estimate D2E/DX2                !
 ! A10   A(1,5,10)             120.0139         estimate D2E/DX2                !
 ! A11   A(4,5,10)             131.3694         estimate D2E/DX2                !
 ! A12   A(2,6,7)               93.5437         estimate D2E/DX2                !
 ! A13   A(2,6,8)               90.4364         estimate D2E/DX2                !
 ! A14   L(7,6,8,2,-1)         183.9801         estimate D2E/DX2                !
 ! A15   L(7,6,8,2,-2)         180.0084         estimate D2E/DX2                !
 ! D1    D(5,1,2,3)             -0.0878         estimate D2E/DX2                !
 ! D2    D(5,1,2,6)            178.8134         estimate D2E/DX2                !
 ! D3    D(9,1,2,3)            179.8948         estimate D2E/DX2                !
 ! D4    D(9,1,2,6)             -1.204          estimate D2E/DX2                !
 ! D5    D(2,1,5,4)              0.0801         estimate D2E/DX2                !
 ! D6    D(2,1,5,10)          -179.9421         estimate D2E/DX2                !
 ! D7    D(9,1,5,4)           -179.8997         estimate D2E/DX2                !
 ! D8    D(9,1,5,10)             0.0782         estimate D2E/DX2                !
 ! D9    D(1,2,3,4)              0.0572         estimate D2E/DX2                !
 ! D10   D(6,2,3,4)           -178.6419         estimate D2E/DX2                !
 ! D11   D(1,2,6,7)            179.5407         estimate D2E/DX2                !
 ! D12   D(1,2,6,8)             -0.4678         estimate D2E/DX2                !
 ! D13   D(3,2,6,7)             -1.8263         estimate D2E/DX2                !
 ! D14   D(3,2,6,8)            178.1653         estimate D2E/DX2                !
 ! D15   D(2,3,4,5)             -0.0075         estimate D2E/DX2                !
 ! D16   D(3,4,5,1)             -0.0453         estimate D2E/DX2                !
 ! D17   D(3,4,5,10)           179.9803         estimate D2E/DX2                !
 --------------------------------------------------------------------------------
 Trust Radius=3.00D-01 FncErr=1.00D-07 GrdErr=1.00D-06 EigMax=2.50D+02 EigMin=1.00D-04
 Number of steps in this run=     52 maximum allowed number of steps=    100.
 GradGradGradGradGradGradGradGradGradGradGradGradGradGradGradGradGradGrad

                          Input orientation:                          
 ---------------------------------------------------------------------
 Center     Atomic      Atomic             Coordinates (Angstroms)
 Number     Number       Type             X           Y           Z
 ---------------------------------------------------------------------
      1          7           0       -0.339000   -0.320000    0.038000
      2          7           0       -1.323000    0.579000    0.013000
      3          7           0       -2.528000   -0.021000   -0.024000
      4          7           0       -2.226000   -1.365000   -0.019000
      5          6           0       -0.875000   -1.502000    0.020000
      6          6           0       -0.754000    2.711000    0.075000
      7          8           0       -1.862000    3.083000    0.026000
      8          8           0        0.365000    2.420000    0.126000
      9          1           0        0.719000    0.015000    0.068000
     10          1           0       -0.212000   -2.429000    0.037000
 ---------------------------------------------------------------------
                    Distance matrix (angstroms):
                    1          2          3          4          5
     1  N    0.000000
     2  N    1.333072   0.000000
     3  N    2.210196   1.346623   0.000000
     4  N    2.157787   2.143728   1.377521   0.000000
     5  C    1.297977   2.128688   2.219844   1.358488   0.000000
     6  C    3.059502   2.207494   3.258942   4.334674   4.215096
     7  O    3.728281   2.561388   3.175039   4.463096   4.690035
     8  O    2.830364   2.500279   3.788196   4.589175   4.114720
     9  H    1.110175   2.119171   3.248503   3.253459   2.201006
    10  H    2.112821   3.206706   3.341563   2.278471   1.139819
                    6          7          8          9         10
     6  C    0.000000
     7  O    1.169807   0.000000
     8  O    1.157343   2.325747   0.000000
     9  H    3.072164   4.009482   2.431605   0.000000
    10  H    5.168637   5.753674   4.884020   2.615503   0.000000
 Stoichiometry    C2H2N4O2
 Framework group  C1[X(C2H2N4O2)]
 Deg. of freedom    24
 Full point group                 C1      NOp   1
 Largest Abelian subgroup         C1      NOp   1
 Largest concise Abelian subgroup C1      NOp   1
                         Standard orientation:                         
 ---------------------------------------------------------------------
 Center     Atomic      Atomic             Coordinates (Angstroms)
 Number     Number       Type             X           Y           Z
 ---------------------------------------------------------------------
      1          7           0       -0.875723    0.963914    0.014109
      2          7           0       -0.156846   -0.158715    0.012160
      3          7           0       -0.952720   -1.244870   -0.003517
      4          7           0       -2.225901   -0.719045   -0.012601
      5          6           0       -2.131525    0.636119   -0.001908
      6          6           0        2.041464    0.041817   -0.003551
      7          8           0        2.219613   -1.114291    0.007683
      8          8           0        1.945031    1.195074   -0.015429
      9          1           0       -0.365990    1.950050    0.028139
     10          1           0       -2.932471    1.447085   -0.004465
 ---------------------------------------------------------------------
 Rotational constants (GHZ):           5.2841849           1.4613012           1.1448011
 Standard basis: 6-31+G(d,p) (6D, 7F)
 There are   162 symmetry adapted cartesian basis functions of A   symmetry.
 There are   162 symmetry adapted basis functions of A   symmetry.
   162 basis functions,   270 primitive gaussians,   162 cartesian basis functions
    29 alpha electrons       29 beta electrons
       nuclear repulsion energy       346.4987251431 Hartrees.
 NAtoms=   10 NActive=   10 NUniq=   10 SFac= 1.00D+00 NAtFMM=   60 NAOKFM=F Big=F
 Integral buffers will be    131072 words long.
 Raffenetti 2 integral format.
 Two-electron integral symmetry is turned on.
 ------------------------------------------------------------------------------
 Polarizable Continuum Model (PCM)
 =================================
 Model                : PCM.
 Atomic radii         : SMD-Coulomb.
 Polarization charges : Total charges.
 Charge compensation  : None.
 Solution method      : On-the-fly selection.
 Cavity type          : VdW (van der Waals Surface) (Alpha=1.000).
 Cavity algorithm     : GePol (No added spheres)
                        Default sphere list used, NSphG=   10.
                        Lebedev-Laikov grids with approx.  5.0 points / Ang**2.
                        Smoothing algorithm: York/Karplus (Gamma=1.0000).
                        Polarization charges: spherical gaussians, with
                                              point-specific exponents (IZeta= 3).
                        Self-potential: point-specific (ISelfS= 7).
                        Self-field    : sphere-specific E.n sum rule (ISelfD= 2).
 1st derivatives      : Analytical E(r).r(x)/FMM algorithm (CHGder, D1EAlg=3).
                        Cavity 1st derivative terms included.
 Solvent              : Water, Eps=  78.355300 Eps(inf)=   1.777849
 ------------------------------------------------------------------------------
 Spheres list:
 ISph  on   Nord     Re0    Alpha      Xe            Ye            Ze
    1   N      1    1.8900  1.000     -0.875723      0.963914      0.014109
    2   N      2    1.8900  1.000     -0.156846     -0.158715      0.012160
    3   N      3    1.8900  1.000     -0.952720     -1.244870     -0.003517
    4   N      4    1.8900  1.000     -2.225901     -0.719045     -0.012601
    5   C      5    1.8500  1.000     -2.131525      0.636119     -0.001908
    6   C      6    1.8500  1.000      2.041464      0.041817     -0.003551
    7   O      7    1.5200  1.000      2.219613     -1.114291      0.007683
    8   O      8    1.5200  1.000      1.945031      1.195074     -0.015429
    9   H      9    1.2000  1.000     -0.365990      1.950050      0.028139
   10   H     10    1.2000  1.000     -2.932471      1.447085     -0.004465
 ------------------------------------------------------------------------------
 ------------------------------------------------------------------------------
 Atomic radii for non-electrostatic terms: SMD-CDS.
 ------------------------------------------------------------------------------
 Nuclear repulsion after PCM non-electrostatic terms =      346.5072457214 Hartrees.
 One-electron integrals computed using PRISM.
 NBasis=   162 RedAO= T EigKep=  5.00D-05  NBF=   162
 NBsUse=   162 1.00D-06 EigRej= -1.00D+00 NBFU=   162
 ExpMin= 4.38D-02 ExpMax= 5.48D+03 ExpMxC= 8.25D+02 IAcc=3 IRadAn=         5 AccDes= 0.00D+00
 Harris functional with IExCor= 1009 and IRadAn=       5 diagonalized for initial guess.
 HarFok:  IExCor= 1009 AccDes= 0.00D+00 IRadAn=         5 IDoV= 1 UseB2=F ITyADJ=14
 ICtDFT=  3500011 ScaDFX=  1.000000  1.000000  1.000000  1.000000
 FoFCou: FMM=F IPFlag=           0 FMFlag=      100000 FMFlg1=           0
         NFxFlg=           0 DoJE=T BraDBF=F KetDBF=T FulRan=T
         wScrn=  0.000000 ICntrl=       500 IOpCl=  0 I1Cent=   200000004 NGrid=           0
         NMat0=    1 NMatS0=      1 NMatT0=    0 NMatD0=    1 NMtDS0=    0 NMtDT0=    0
 Petite list used in FoFCou.
 Keep R1 ints in memory in canonical form, NReq=110915818.
 Requested convergence on RMS density matrix=1.00D-08 within 128 cycles.
 Requested convergence on MAX density matrix=1.00D-06.
 Requested convergence on             energy=1.00D-06.
 No special actions if energy rises.
 Inv3:  Mode=1 IEnd=     3121200.
 Iteration    1 A*A^-1 deviation from unit magnitude is 3.55D-15 for   1012.
 Iteration    1 A*A^-1 deviation from orthogonality  is 1.44D-15 for   1020    854.
 Iteration    1 A^-1*A deviation from unit magnitude is 3.55D-15 for   1012.
 Iteration    1 A^-1*A deviation from orthogonality  is 1.07D-15 for    693    425.
 Error on total polarization charges =  0.02881
 SCF Done:  E(RM062X) =  -446.670523403     A.U. after   14 cycles
            NFock= 14  Conv=0.65D-08     -V/T= 2.0089
 SMD-CDS (non-electrostatic) energy       (kcal/mol) =       5.35
 (included in total energy above)

 **********************************************************************

            Population analysis using the SCF Density.

 **********************************************************************

 Orbital symmetries:
       Occupied  (A) (A) (A) (A) (A) (A) (A) (A) (A) (A) (A) (A)
                 (A) (A) (A) (A) (A) (A) (A) (A) (A) (A) (A) (A)
                 (A) (A) (A) (A) (A)
       Virtual   (A) (A) (A) (A) (A) (A) (A) (A) (A) (A) (A) (A)
                 (A) (A) (A) (A) (A) (A) (A) (A) (A) (A) (A) (A)
                 (A) (A) (A) (A) (A) (A) (A) (A) (A) (A) (A) (A)
                 (A) (A) (A) (A) (A) (A) (A) (A) (A) (A) (A) (A)
                 (A) (A) (A) (A) (A) (A) (A) (A) (A) (A) (A) (A)
                 (A) (A) (A) (A) (A) (A) (A) (A) (A) (A) (A) (A)
                 (A) (A) (A) (A) (A) (A) (A) (A) (A) (A) (A) (A)
                 (A) (A) (A) (A) (A) (A) (A) (A) (A) (A) (A) (A)
                 (A) (A) (A) (A) (A) (A) (A) (A) (A) (A) (A) (A)
                 (A) (A) (A) (A) (A) (A) (A) (A) (A) (A) (A) (A)
                 (A) (A) (A) (A) (A) (A) (A) (A) (A) (A) (A) (A)
                 (A)
 The electronic state is 1-A.
 Alpha  occ. eigenvalues --  -19.71671 -19.71257 -14.88766 -14.86026 -14.85289
 Alpha  occ. eigenvalues --  -14.81160 -10.74740 -10.64464  -1.28426  -1.26224
 Alpha  occ. eigenvalues --   -1.23071  -1.06385  -0.98653  -0.76664  -0.74900
 Alpha  occ. eigenvalues --   -0.66727  -0.65321  -0.60040  -0.59592  -0.59446
 Alpha  occ. eigenvalues --   -0.57900  -0.54626  -0.45826  -0.43552  -0.43474
 Alpha  occ. eigenvalues --   -0.41182  -0.40554  -0.36752  -0.36432
 Alpha virt. eigenvalues --    0.00493   0.01211   0.03329   0.03602   0.04151
 Alpha virt. eigenvalues --    0.05433   0.05751   0.06144   0.08330   0.08822
 Alpha virt. eigenvalues --    0.09463   0.09786   0.10152   0.12434   0.14303
 Alpha virt. eigenvalues --    0.15945   0.16962   0.18559   0.18742   0.20066
 Alpha virt. eigenvalues --    0.20388   0.20670   0.22651   0.23070   0.23969
 Alpha virt. eigenvalues --    0.24402   0.25716   0.25941   0.26478   0.27939
 Alpha virt. eigenvalues --    0.28141   0.28594   0.28758   0.31381   0.33224
 Alpha virt. eigenvalues --    0.34704   0.35277   0.36635   0.37267   0.39826
 Alpha virt. eigenvalues --    0.42195   0.44164   0.48634   0.51682   0.70519
 Alpha virt. eigenvalues --    0.73669   0.76448   0.79921   0.82100   0.88034
 Alpha virt. eigenvalues --    0.89713   0.93301   0.93672   0.93945   0.94770
 Alpha virt. eigenvalues --    0.96369   0.97511   0.99358   1.00466   1.01028
 Alpha virt. eigenvalues --    1.02293   1.03132   1.09641   1.11437   1.18761
 Alpha virt. eigenvalues --    1.19469   1.20017   1.23589   1.29080   1.29983
 Alpha virt. eigenvalues --    1.31730   1.33416   1.34157   1.37168   1.38197
 Alpha virt. eigenvalues --    1.38443   1.38654   1.40109   1.48429   1.49321
 Alpha virt. eigenvalues --    1.50027   1.54530   1.55420   1.59921   1.61029
 Alpha virt. eigenvalues --    1.62706   1.69567   1.78971   1.83496   1.87491
 Alpha virt. eigenvalues --    1.92686   1.94207   2.02056   2.08467   2.09076
 Alpha virt. eigenvalues --    2.13305   2.13662   2.19936   2.20353   2.22420
 Alpha virt. eigenvalues --    2.22681   2.23569   2.26540   2.29432   2.34575
 Alpha virt. eigenvalues --    2.34807   2.48350   2.48678   2.58859   2.63003
 Alpha virt. eigenvalues --    2.66011   2.66703   2.73553   2.82124   2.84929
 Alpha virt. eigenvalues --    2.90512   2.90986   2.97200   3.04104   3.06742
 Alpha virt. eigenvalues --    3.11568   3.27267   3.35155   3.38734   3.62542
 Alpha virt. eigenvalues --    3.92417   4.04300   4.12917   4.24516   4.30282
 Alpha virt. eigenvalues --    4.52798   4.66477   4.94342
          Condensed to atoms (all electrons):
               1          2          3          4          5          6
     1  N    7.087077  -0.029712  -0.065961  -0.132230   0.254096   0.008711
     2  N   -0.029712   7.410568  -0.431567   0.259519  -0.179809   0.013171
     3  N   -0.065961  -0.431567   7.400268  -0.038923   0.149574   0.002195
     4  N   -0.132230   0.259519  -0.038923   6.978596   0.346651   0.000021
     5  C    0.254096  -0.179809   0.149574   0.346651   5.042758  -0.010613
     6  C    0.008711   0.013171   0.002195   0.000021  -0.010613   4.345208
     7  O   -0.006261  -0.009216  -0.020646   0.005655  -0.004873   0.416469
     8  O   -0.030559   0.028025  -0.005948   0.000748  -0.003634   0.402604
     9  H    0.264948   0.005374  -0.002903   0.004728  -0.000560  -0.001872
    10  H   -0.061174   0.007902   0.005361  -0.019707   0.398660  -0.000053
               7          8          9         10
     1  N   -0.006261  -0.030559   0.264948  -0.061174
     2  N   -0.009216   0.028025   0.005374   0.007902
     3  N   -0.020646  -0.005948  -0.002903   0.005361
     4  N    0.005655   0.000748   0.004728  -0.019707
     5  C   -0.004873  -0.003634  -0.000560   0.398660
     6  C    0.416469   0.402604  -0.001872  -0.000053
     7  O    8.139092  -0.110326   0.000065   0.000010
     8  O   -0.110326   8.134543   0.002621  -0.000102
     9  H    0.000065   0.002621   0.255338   0.000689
    10  H    0.000010  -0.000102   0.000689   0.384256
 Mulliken charges:
               1
     1  N   -0.288934
     2  N   -0.074255
     3  N    0.008550
     4  N   -0.405058
     5  C    0.007750
     6  C    0.824158
     7  O   -0.409968
     8  O   -0.417973
     9  H    0.471572
    10  H    0.284157
 Sum of Mulliken charges =  -0.00000
 Mulliken charges with hydrogens summed into heavy atoms:
               1
     1  N    0.182639
     2  N   -0.074255
     3  N    0.008550
     4  N   -0.405058
     5  C    0.291907
     6  C    0.824158
     7  O   -0.409968
     8  O   -0.417973
 Electronic spatial extent (au):  <R**2>=            915.5131
 Charge=             -0.0000 electrons
 Dipole moment (field-independent basis, Debye):
    X=             -1.3459    Y=              8.0663    Z=              0.0649  Tot=              8.1781
 Quadrupole moment (field-independent basis, Debye-Ang):
   XX=            -47.1528   YY=            -44.3576   ZZ=            -44.2628
   XY=            -10.0012   XZ=             -0.0903   YZ=              0.1209
 Traceless Quadrupole moment (field-independent basis, Debye-Ang):
   XX=             -1.8950   YY=              0.9001   ZZ=              0.9949
   XY=            -10.0012   XZ=             -0.0903   YZ=              0.1209
 Octapole moment (field-independent basis, Debye-Ang**2):
  XXX=             11.3081  YYY=             31.4899  ZZZ=              0.0361  XYY=             -9.2928
  XXY=             31.8359  XXZ=              0.1817  XZZ=              6.8185  YZZ=              1.8819
  YYZ=              0.3105  XYZ=              0.2078
 Hexadecapole moment (field-independent basis, Debye-Ang**3):
 XXXX=           -859.6170 YYYY=           -244.6710 ZZZZ=            -40.5916 XXXY=            -73.2896
 XXXZ=             -0.6240 YYYX=            -31.2374 YYYZ=              0.4481 ZZZX=             -0.1931
 ZZZY=             -0.0266 XXYY=           -201.0745 XXZZ=           -149.7468 YYZZ=            -52.5737
 XXYZ=             -0.0560 YYXZ=             -0.1150 ZZXY=             -1.8829
 N-N= 3.465072457214D+02 E-N=-1.736913501862D+03  KE= 4.427319508382D+02
 D1PCM: PCM CHGder 1st derivatives, ID1Alg=3 FixD1E=F DoIter=F DoCFld=F I1PDM=0.
 Calling FoFJK, ICntrl=      2127 FMM=F ISym2X=0 I1Cent= 0 IOpClX= 0 NMat=1 NMatS=1 NMatT=0.
 ***** Axes restored to original set *****
 -------------------------------------------------------------------
 Center     Atomic                   Forces (Hartrees/Bohr)
 Number     Number              X              Y              Z
 -------------------------------------------------------------------
      1        7           0.030908100    0.055780903    0.001091636
      2        7          -0.041088832   -0.001329723   -0.001914796
      3        7           0.103614035   -0.033053092    0.002983802
      4        7           0.005049340   -0.001887128    0.000210422
      5        6          -0.018815343   -0.054527763   -0.000854378
      6        6          -0.025933814    0.007914763   -0.001197212
      7        8           0.008760916    0.011700964    0.000672004
      8        8           0.024804901    0.009201937    0.001329641
      9        1          -0.056772719   -0.017986885   -0.001462720
     10        1          -0.030526586    0.024186023   -0.000858399
 -------------------------------------------------------------------
 Cartesian Forces:  Max     0.103614035 RMS     0.030372689

 GradGradGradGradGradGradGradGradGradGradGradGradGradGradGradGradGradGrad
 Berny optimization.
 FormGI is forming the generalized inverse of G from B-inverse, IUseBI=4.
 Internal  Forces:  Max     0.060083146 RMS     0.022604393
 Search for a local minimum.
 Step number   1 out of a maximum of   52
 All quantities printed in internal units (Hartrees-Bohrs-Radians)
 Mixed Optimization -- RFO/linear search
 Second derivative matrix not updated -- first step.
 ITU=  0
     Eigenvalues ---    0.00230   0.01289   0.02009   0.02487   0.02566
     Eigenvalues ---    0.02591   0.02787   0.05897   0.11601   0.16000
     Eigenvalues ---    0.16000   0.22671   0.24676   0.24994   0.25000
     Eigenvalues ---    0.29636   0.32581   0.46288   0.48442   0.54334
     Eigenvalues ---    0.56868   0.64992   1.21585   1.29548
 RFO step:  Lambda=-5.91420791D-02 EMin= 2.30000000D-03
 Linear search not attempted -- first point.
 Maximum step size (   0.300) exceeded in Quadratic search.
    -- Step size scaled by   0.650
 Iteration  1 RMS(Cart)=  0.07902503 RMS(Int)=  0.00125014
 Iteration  2 RMS(Cart)=  0.00157546 RMS(Int)=  0.00036348
 Iteration  3 RMS(Cart)=  0.00000107 RMS(Int)=  0.00036348
 Iteration  4 RMS(Cart)=  0.00000000 RMS(Int)=  0.00036348
 Variable       Old X    -DE/DX   Delta X   Delta X   Delta X     New X
                                 (Linear)    (Quad)   (Total)
    R1        2.51914  -0.01813   0.00000  -0.01726  -0.01750   2.50164
    R2        2.45282   0.04567   0.00000   0.04372   0.04302   2.49584
    R3        2.09793  -0.05958   0.00000  -0.10066  -0.10066   1.99727
    R4        2.54475  -0.05124   0.00000  -0.05736  -0.05680   2.48795
    R5        4.17156   0.02983   0.00000   0.16428   0.16428   4.33584
    R6        2.60314  -0.02255   0.00000  -0.02987  -0.02929   2.57385
    R7        2.56717  -0.04380   0.00000  -0.04655  -0.04677   2.52040
    R8        2.15395  -0.03745   0.00000  -0.06851  -0.06851   2.08544
    R9        2.21062  -0.00462   0.00000  -0.00236  -0.00236   2.20826
   R10        2.18706   0.02175   0.00000   0.01044   0.01044   2.19750
    A1        1.88499   0.00917   0.00000   0.03225   0.03134   1.91633
    A2        2.09493  -0.00456   0.00000  -0.01606  -0.01560   2.07933
    A3        2.30327  -0.00461   0.00000  -0.01619  -0.01574   2.28753
    A4        1.93966  -0.03871   0.00000  -0.08483  -0.08465   1.85501
    A5        2.04939   0.02056   0.00000   0.04494   0.04485   2.09423
    A6        2.29394   0.01815   0.00000   0.03986   0.03977   2.33371
    A7        1.81155   0.06008   0.00000   0.10934   0.11064   1.92220
    A8        1.89286  -0.02626   0.00000  -0.05857  -0.05824   1.83461
    A9        1.89572  -0.00428   0.00000   0.00181   0.00091   1.89663
   A10        2.09464   0.01376   0.00000   0.03356   0.03401   2.12865
   A11        2.29283  -0.00947   0.00000  -0.03537  -0.03493   2.25790
   A12        1.63265   0.00945   0.00000   0.03700   0.03700   1.66965
   A13        1.57841   0.01184   0.00000   0.04204   0.04204   1.62046
   A14        3.21106   0.02129   0.00000   0.07905   0.07905   3.29011
   A15        3.14174  -0.00000   0.00000  -0.00001  -0.00001   3.14173
    D1       -0.00153   0.00008   0.00000   0.00127   0.00124  -0.00030
    D2        3.12088   0.00021   0.00000   0.00046   0.00046   3.12134
    D3        3.13976   0.00005   0.00000   0.00096   0.00092   3.14067
    D4       -0.02101   0.00018   0.00000   0.00014   0.00014  -0.02087
    D5        0.00140  -0.00005   0.00000  -0.00097  -0.00100   0.00040
    D6       -3.14058  -0.00003   0.00000  -0.00048  -0.00048  -3.14106
    D7       -3.13984  -0.00002   0.00000  -0.00060  -0.00063  -3.14048
    D8        0.00136   0.00000   0.00000  -0.00011  -0.00012   0.00125
    D9        0.00100  -0.00001   0.00000  -0.00091  -0.00091   0.00009
   D10       -3.11789  -0.00005   0.00000   0.00032   0.00030  -3.11759
   D11        3.13358   0.00035   0.00000   0.00197   0.00198   3.13555
   D12       -0.00816   0.00035   0.00000   0.00198   0.00198  -0.00618
   D13       -0.03188  -0.00022   0.00000  -0.00066  -0.00067  -0.03254
   D14        3.10957  -0.00022   0.00000  -0.00065  -0.00066   3.10891
   D15       -0.00013  -0.00003   0.00000   0.00026   0.00028   0.00015
   D16       -0.00079   0.00007   0.00000   0.00047   0.00047  -0.00033
   D17        3.14125   0.00003   0.00000  -0.00012  -0.00012   3.14112
         Item               Value     Threshold  Converged?
 Maximum Force            0.060083     0.000450     NO 
 RMS     Force            0.022604     0.000300     NO 
 Maximum Displacement     0.287666     0.001800     NO 
 RMS     Displacement     0.078799     0.001200     NO 
 Predicted change in Energy=-2.863493D-02
 GradGradGradGradGradGradGradGradGradGradGradGradGradGradGradGradGradGrad

                          Input orientation:                          
 ---------------------------------------------------------------------
 Center     Atomic      Atomic             Coordinates (Angstroms)
 Number     Number       Type             X           Y           Z
 ---------------------------------------------------------------------
      1          7           0       -0.348392   -0.350420    0.037601
      2          7           0       -1.303704    0.565687    0.012975
      3          7           0       -2.444208   -0.091101   -0.022081
      4          7           0       -2.212556   -1.433278   -0.019614
      5          6           0       -0.885120   -1.557038    0.018573
      6          6           0       -0.758264    2.793458    0.075595
      7          8           0       -1.858956    3.183051    0.028436
      8          8           0        0.382182    2.572226    0.127579
      9          1           0        0.661517   -0.040129    0.066918
     10          1           0       -0.267499   -2.471457    0.034017
 ---------------------------------------------------------------------
                    Distance matrix (angstroms):
                    1          2          3          4          5
     1  N    0.000000
     2  N    1.323813   0.000000
     3  N    2.112641   1.316568   0.000000
     4  N    2.156609   2.196118   1.362023   0.000000
     5  C    1.320744   2.163610   2.140416   1.333740   0.000000
     6  C    3.170711   2.294425   3.342549   4.470942   4.352719
     7  O    3.842825   2.675656   3.326431   4.630100   4.839101
     8  O    3.013917   2.623270   3.886411   4.774766   4.320736
     9  H    1.056910   2.057187   3.107419   3.195098   2.166896
    10  H    2.122582   3.209114   3.226036   2.205434   1.103565
                    6          7          8          9         10
     6  C    0.000000
     7  O    1.168559   0.000000
     8  O    1.162868   2.325003   0.000000
     9  H    3.169396   4.091840   2.627947   0.000000
    10  H    5.287902   5.874200   5.086215   2.602981   0.000000
 Stoichiometry    C2H2N4O2
 Framework group  C1[X(C2H2N4O2)]
 Deg. of freedom    24
 Full point group                 C1      NOp   1
 Largest Abelian subgroup         C1      NOp   1
 Largest concise Abelian subgroup C1      NOp   1
                         Standard orientation:                         
 ---------------------------------------------------------------------
 Center     Atomic      Atomic             Coordinates (Angstroms)
 Number     Number       Type             X           Y           Z
 ---------------------------------------------------------------------
      1          7           0       -0.928087    0.945255    0.013422
      2          7           0       -0.181789   -0.148142    0.012627
      3          7           0       -1.017384   -1.165432   -0.003221
      4          7           0       -2.303076   -0.715975   -0.012674
      5          6           0       -2.206581    0.614228   -0.002044
      6          6           0        2.106051    0.024855   -0.003147
      7          8           0        2.308797   -1.125938    0.006889
      8          8           0        2.075967    1.187278   -0.014525
      9          1           0       -0.455772    1.890675    0.025993
     10          1           0       -3.006804    1.374156   -0.004835
 ---------------------------------------------------------------------
 Rotational constants (GHZ):           5.5105270           1.3424440           1.0795256
 Standard basis: 6-31+G(d,p) (6D, 7F)
 There are   162 symmetry adapted cartesian basis functions of A   symmetry.
 There are   162 symmetry adapted basis functions of A   symmetry.
   162 basis functions,   270 primitive gaussians,   162 cartesian basis functions
    29 alpha electrons       29 beta electrons
       nuclear repulsion energy       343.3255584426 Hartrees.
 NAtoms=   10 NActive=   10 NUniq=   10 SFac= 1.00D+00 NAtFMM=   60 NAOKFM=F Big=F
 Integral buffers will be    131072 words long.
 Raffenetti 2 integral format.
 Two-electron integral symmetry is turned on.
 ------------------------------------------------------------------------------
 Polarizable Continuum Model (PCM)
 =================================
 Model                : PCM.
 Atomic radii         : SMD-Coulomb.
 Polarization charges : Total charges.
 Charge compensation  : None.
 Solution method      : On-the-fly selection.
 Cavity type          : VdW (van der Waals Surface) (Alpha=1.000).
 Cavity algorithm     : GePol (No added spheres)
                        Default sphere list used, NSphG=   10.
                        Lebedev-Laikov grids with approx.  5.0 points / Ang**2.
                        Smoothing algorithm: York/Karplus (Gamma=1.0000).
                        Polarization charges: spherical gaussians, with
                                              point-specific exponents (IZeta= 3).
                        Self-potential: point-specific (ISelfS= 7).
                        Self-field    : sphere-specific E.n sum rule (ISelfD= 2).
 1st derivatives      : Analytical E(r).r(x)/FMM algorithm (CHGder, D1EAlg=3).
                        Cavity 1st derivative terms included.
 Solvent              : Water, Eps=  78.355300 Eps(inf)=   1.777849
 ------------------------------------------------------------------------------
 Spheres list:
 ISph  on   Nord     Re0    Alpha      Xe            Ye            Ze
    1   N      1    1.8900  1.000     -0.928087      0.945255      0.013422
    2   N      2    1.8900  1.000     -0.181789     -0.148142      0.012627
    3   N      3    1.8900  1.000     -1.017384     -1.165432     -0.003221
    4   N      4    1.8900  1.000     -2.303076     -0.715975     -0.012674
    5   C      5    1.8500  1.000     -2.206581      0.614228     -0.002044
    6   C      6    1.8500  1.000      2.106051      0.024855     -0.003147
    7   O      7    1.5200  1.000      2.308797     -1.125938      0.006889
    8   O      8    1.5200  1.000      2.075967      1.187278     -0.014525
    9   H      9    1.2000  1.000     -0.455772      1.890675      0.025993
   10   H     10    1.2000  1.000     -3.006804      1.374156     -0.004835
 ------------------------------------------------------------------------------
 ------------------------------------------------------------------------------
 Atomic radii for non-electrostatic terms: SMD-CDS.
 ------------------------------------------------------------------------------
 Nuclear repulsion after PCM non-electrostatic terms =      343.3340401986 Hartrees.
 One-electron integrals computed using PRISM.
 NBasis=   162 RedAO= T EigKep=  3.80D-05  NBF=   162
 NBsUse=   162 1.00D-06 EigRej= -1.00D+00 NBFU=   162
 Initial guess from the checkpoint file:  "/home/Tinker/g16/scratch/Gau-1711544.chk"
 B after Tr=    -0.000000   -0.000000   -0.000000
         Rot=    0.999998   -0.000069    0.000064    0.002186 Ang=  -0.25 deg.
 ExpMin= 4.38D-02 ExpMax= 5.48D+03 ExpMxC= 8.25D+02 IAcc=3 IRadAn=         5 AccDes= 0.00D+00
 Harris functional with IExCor= 1009 and IRadAn=       5 diagonalized for initial guess.
 HarFok:  IExCor= 1009 AccDes= 0.00D+00 IRadAn=         5 IDoV= 1 UseB2=F ITyADJ=14
 ICtDFT=  3500011 ScaDFX=  1.000000  1.000000  1.000000  1.000000
 FoFCou: FMM=F IPFlag=           0 FMFlag=      100000 FMFlg1=           0
         NFxFlg=           0 DoJE=T BraDBF=F KetDBF=T FulRan=T
         wScrn=  0.000000 ICntrl=       500 IOpCl=  0 I1Cent=   200000004 NGrid=           0
         NMat0=    1 NMatS0=      1 NMatT0=    0 NMatD0=    1 NMtDS0=    0 NMtDT0=    0
 Petite list used in FoFCou.
 Keep R1 ints in memory in canonical form, NReq=110915818.
 Requested convergence on RMS density matrix=1.00D-08 within 128 cycles.
 Requested convergence on MAX density matrix=1.00D-06.
 Requested convergence on             energy=1.00D-06.
 No special actions if energy rises.
 Inv3:  Mode=1 IEnd=     3288627.
 Iteration    1 A*A^-1 deviation from unit magnitude is 3.44D-15 for   1038.
 Iteration    1 A*A^-1 deviation from orthogonality  is 1.78D-15 for   1031     18.
 Iteration    1 A^-1*A deviation from unit magnitude is 3.44D-15 for   1038.
 Iteration    1 A^-1*A deviation from orthogonality  is 1.46D-15 for    708    437.
 Error on total polarization charges =  0.02840
 SCF Done:  E(RM062X) =  -446.695211390     A.U. after   12 cycles
            NFock= 12  Conv=0.97D-08     -V/T= 2.0085
 SMD-CDS (non-electrostatic) energy       (kcal/mol) =       5.32
 (included in total energy above)
 D1PCM: PCM CHGder 1st derivatives, ID1Alg=3 FixD1E=F DoIter=F DoCFld=F I1PDM=0.
 Calling FoFJK, ICntrl=      2127 FMM=F ISym2X=0 I1Cent= 0 IOpClX= 0 NMat=1 NMatS=1 NMatT=0.
 ***** Axes restored to original set *****
 -------------------------------------------------------------------
 Center     Atomic                   Forces (Hartrees/Bohr)
 Number     Number              X              Y              Z
 -------------------------------------------------------------------
      1        7           0.032506326    0.023341515    0.000987393
      2        7          -0.032844756   -0.029734889   -0.001361857
      3        7           0.026298465   -0.002178705    0.000748382
      4        7           0.012365129    0.016223015    0.000457130
      5        6          -0.001455249   -0.024468008   -0.000165304
      6        6          -0.008918409    0.018363273   -0.000158771
      7        8           0.005026043   -0.000563755    0.000262803
      8        8           0.007999777   -0.000584721    0.000332866
      9        1          -0.027529543   -0.011442936   -0.000717788
     10        1          -0.013447784    0.011045211   -0.000384853
 -------------------------------------------------------------------
 Cartesian Forces:  Max     0.032844756 RMS     0.015253944

 GradGradGradGradGradGradGradGradGradGradGradGradGradGradGradGradGradGrad
 Berny optimization.
 Using GEDIIS/GDIIS optimizer.
 FormGI is forming the generalized inverse of G from B-inverse, IUseBI=4.
 Internal  Forces:  Max     0.029683234 RMS     0.008443514
 Search for a local minimum.
 Step number   2 out of a maximum of   52
 All quantities printed in internal units (Hartrees-Bohrs-Radians)
 Mixed Optimization -- RFO/linear search
 Update second derivatives using D2CorX and points    1    2
 DE= -2.47D-02 DEPred=-2.86D-02 R= 8.62D-01
 TightC=F SS=  1.41D+00  RLast= 3.00D-01 DXNew= 5.0454D-01 8.9999D-01
 Trust test= 8.62D-01 RLast= 3.00D-01 DXMaxT set to 5.05D-01
 ITU=  1  0
 Use linear search instead of GDIIS.
     Eigenvalues ---    0.00230   0.01237   0.01996   0.02507   0.02566
     Eigenvalues ---    0.02594   0.02796   0.05847   0.12217   0.15833
     Eigenvalues ---    0.16065   0.22650   0.24991   0.24999   0.27197
     Eigenvalues ---    0.30804   0.38680   0.44683   0.48413   0.52868
     Eigenvalues ---    0.58018   0.68039   1.21560   1.29343
 RFO step:  Lambda=-9.40724750D-03 EMin= 2.30000827D-03
 Quartic linear search produced a step of  0.36902.
 Iteration  1 RMS(Cart)=  0.05008700 RMS(Int)=  0.01138443
 Iteration  2 RMS(Cart)=  0.01621343 RMS(Int)=  0.00016702
 Iteration  3 RMS(Cart)=  0.00001447 RMS(Int)=  0.00016687
 Iteration  4 RMS(Cart)=  0.00000000 RMS(Int)=  0.00016687
 Variable       Old X    -DE/DX   Delta X   Delta X   Delta X     New X
                                 (Linear)    (Quad)   (Total)
    R1        2.50164   0.00258  -0.00646   0.01516   0.00851   2.51015
    R2        2.49584   0.00955   0.01588   0.00585   0.02142   2.51727
    R3        1.99727  -0.02968  -0.03714  -0.07505  -0.11219   1.88508
    R4        2.48795  -0.02615  -0.02096  -0.04301  -0.06379   2.42417
    R5        4.33584   0.01770   0.06062   0.21332   0.27394   4.60978
    R6        2.57385  -0.01348  -0.01081  -0.02919  -0.03969   2.53416
    R7        2.52040  -0.01454  -0.01726  -0.01630  -0.03355   2.48686
    R8        2.08544  -0.01668  -0.02528  -0.04266  -0.06794   2.01750
    R9        2.20826  -0.00493  -0.00087  -0.00458  -0.00545   2.20281
   R10        2.19750   0.00797   0.00385   0.00438   0.00824   2.20574
    A1        1.91633  -0.00527   0.01156  -0.02707  -0.01600   1.90033
    A2        2.07933   0.00548  -0.00576   0.03633   0.03081   2.11014
    A3        2.28753  -0.00021  -0.00581  -0.00925  -0.01482   2.27271
    A4        1.85501   0.00034  -0.03124   0.04253   0.01122   1.86623
    A5        2.09423  -0.00013   0.01655  -0.02224  -0.00566   2.08857
    A6        2.33371  -0.00021   0.01468  -0.02022  -0.00551   2.32820
    A7        1.92220   0.00623   0.04083  -0.04086   0.00051   1.92271
    A8        1.83461   0.00567  -0.02149   0.05055   0.02939   1.86400
    A9        1.89663  -0.00696   0.00034  -0.02515  -0.02513   1.87150
   A10        2.12865   0.00865   0.01255   0.03516   0.04786   2.17651
   A11        2.25790  -0.00169  -0.01289  -0.01000  -0.02274   2.23517
   A12        1.66965   0.00099   0.01365  -0.01373  -0.00007   1.66957
   A13        1.62046   0.00055   0.01551  -0.01843  -0.00292   1.61754
   A14        3.29011   0.00154   0.02917  -0.03216  -0.00299   3.28711
   A15        3.14173  -0.00001  -0.00000  -0.00030  -0.00031   3.14143
    D1       -0.00030   0.00004   0.00046  -0.00054  -0.00010  -0.00039
    D2        3.12134   0.00004   0.00017   0.00196   0.00213   3.12347
    D3        3.14067   0.00004   0.00034  -0.00009   0.00024   3.14092
    D4       -0.02087   0.00004   0.00005   0.00241   0.00247  -0.01840
    D5        0.00040  -0.00005  -0.00037  -0.00011  -0.00048  -0.00009
    D6       -3.14106  -0.00002  -0.00018   0.00001  -0.00017  -3.14123
    D7       -3.14048  -0.00005  -0.00023  -0.00065  -0.00089  -3.14136
    D8        0.00125  -0.00002  -0.00004  -0.00054  -0.00057   0.00068
    D9        0.00009  -0.00002  -0.00034   0.00097   0.00063   0.00072
   D10       -3.11759  -0.00002   0.00011  -0.00217  -0.00208  -3.11967
   D11        3.13555   0.00003   0.00073   0.00032   0.00106   3.13662
   D12       -0.00618   0.00004   0.00073   0.00062   0.00137  -0.00481
   D13       -0.03254   0.00004  -0.00025   0.00448   0.00422  -0.02832
   D14        3.10891   0.00005  -0.00024   0.00478   0.00453   3.11344
   D15        0.00015  -0.00000   0.00010  -0.00102  -0.00093  -0.00078
   D16       -0.00033   0.00003   0.00017   0.00067   0.00084   0.00051
   D17        3.14112   0.00000  -0.00005   0.00054   0.00051  -3.14155
         Item               Value     Threshold  Converged?
 Maximum Force            0.029683     0.000450     NO 
 RMS     Force            0.008444     0.000300     NO 
 Maximum Displacement     0.207602     0.001800     NO 
 RMS     Displacement     0.064220     0.001200     NO 
 Predicted change in Energy=-7.220424D-03
 GradGradGradGradGradGradGradGradGradGradGradGradGradGradGradGradGradGrad

                          Input orientation:                          
 ---------------------------------------------------------------------
 Center     Atomic      Atomic             Coordinates (Angstroms)
 Number     Number       Type             X           Y           Z
 ---------------------------------------------------------------------
      1          7           0       -0.333536   -0.384521    0.038346
      2          7           0       -1.309037    0.516691    0.013083
      3          7           0       -2.415499   -0.131458   -0.022341
      4          7           0       -2.178327   -1.451338   -0.019749
      5          6           0       -0.871641   -1.602907    0.017956
      6          6           0       -0.759770    2.892589    0.076589
      7          8           0       -1.862806    3.266832    0.031224
      8          8           0        0.387235    2.682084    0.126422
      9          1           0        0.623110   -0.103313    0.067266
     10          1           0       -0.314729   -2.513661    0.031206
 ---------------------------------------------------------------------
                    Distance matrix (angstroms):
                    1          2          3          4          5
     1  N    0.000000
     2  N    1.328315   0.000000
     3  N    2.098164   1.282814   0.000000
     4  N    2.131836   2.151716   1.341022   0.000000
     5  C    1.332081   2.164264   2.133140   1.315987   0.000000
     6  C    3.304933   2.439389   3.449070   4.570698   4.497270
     7  O    3.958673   2.805399   3.443358   4.728983   4.969602
     8  O    3.151402   2.753018   3.974100   4.867099   4.467403
     9  H    0.997540   2.029909   3.040060   3.110111   2.117899
    10  H    2.129235   3.189359   3.176633   2.145722   1.067613
                    6          7          8          9         10
     6  C    0.000000
     7  O    1.165677   0.000000
     8  O    1.167226   2.326731   0.000000
     9  H    3.299678   4.187953   2.795992   0.000000
    10  H    5.424726   5.984199   5.243814   2.586623   0.000000
 Stoichiometry    C2H2N4O2
 Framework group  C1[X(C2H2N4O2)]
 Deg. of freedom    24
 Full point group                 C1      NOp   1
 Largest Abelian subgroup         C1      NOp   1
 Largest concise Abelian subgroup C1      NOp   1
                         Standard orientation:                         
 ---------------------------------------------------------------------
 Center     Atomic      Atomic             Coordinates (Angstroms)
 Number     Number       Type             X           Y           Z
 ---------------------------------------------------------------------
      1          7           0       -0.984732    0.947995    0.012010
      2          7           0       -0.243807   -0.154481    0.011565
      3          7           0       -1.053991   -1.148978   -0.002193
      4          7           0       -2.321855   -0.712205   -0.011728
      5          6           0       -2.271221    0.602775   -0.002344
      6          6           0        2.188874    0.025719   -0.002875
      7          8           0        2.389256   -1.122574    0.005681
      8          8           0        2.157079    1.192474   -0.012289
      9          1           0       -0.560134    1.850601    0.022265
     10          1           0       -3.085769    1.292920   -0.005667
 ---------------------------------------------------------------------
 Rotational constants (GHZ):           5.5687177           1.2619378           1.0288393
 Standard basis: 6-31+G(d,p) (6D, 7F)
 There are   162 symmetry adapted cartesian basis functions of A   symmetry.
 There are   162 symmetry adapted basis functions of A   symmetry.
   162 basis functions,   270 primitive gaussians,   162 cartesian basis functions
    29 alpha electrons       29 beta electrons
       nuclear repulsion energy       340.8272962784 Hartrees.
 NAtoms=   10 NActive=   10 NUniq=   10 SFac= 1.00D+00 NAtFMM=   60 NAOKFM=F Big=F
 Integral buffers will be    131072 words long.
 Raffenetti 2 integral format.
 Two-electron integral symmetry is turned on.
 ------------------------------------------------------------------------------
 Polarizable Continuum Model (PCM)
 =================================
 Model                : PCM.
 Atomic radii         : SMD-Coulomb.
 Polarization charges : Total charges.
 Charge compensation  : None.
 Solution method      : On-the-fly selection.
 Cavity type          : VdW (van der Waals Surface) (Alpha=1.000).
 Cavity algorithm     : GePol (No added spheres)
                        Default sphere list used, NSphG=   10.
                        Lebedev-Laikov grids with approx.  5.0 points / Ang**2.
                        Smoothing algorithm: York/Karplus (Gamma=1.0000).
                        Polarization charges: spherical gaussians, with
                                              point-specific exponents (IZeta= 3).
                        Self-potential: point-specific (ISelfS= 7).
                        Self-field    : sphere-specific E.n sum rule (ISelfD= 2).
 1st derivatives      : Analytical E(r).r(x)/FMM algorithm (CHGder, D1EAlg=3).
                        Cavity 1st derivative terms included.
 Solvent              : Water, Eps=  78.355300 Eps(inf)=   1.777849
 ------------------------------------------------------------------------------
 Spheres list:
 ISph  on   Nord     Re0    Alpha      Xe            Ye            Ze
    1   N      1    1.8900  1.000     -0.984732      0.947995      0.012010
    2   N      2    1.8900  1.000     -0.243807     -0.154481      0.011565
    3   N      3    1.8900  1.000     -1.053991     -1.148978     -0.002193
    4   N      4    1.8900  1.000     -2.321855     -0.712205     -0.011728
    5   C      5    1.8500  1.000     -2.271221      0.602775     -0.002344
    6   C      6    1.8500  1.000      2.188874      0.025719     -0.002875
    7   O      7    1.5200  1.000      2.389256     -1.122574      0.005681
    8   O      8    1.5200  1.000      2.157079      1.192474     -0.012289
    9   H      9    1.2000  1.000     -0.560134      1.850601      0.022265
   10   H     10    1.2000  1.000     -3.085769      1.292920     -0.005667
 ------------------------------------------------------------------------------
 ------------------------------------------------------------------------------
 Atomic radii for non-electrostatic terms: SMD-CDS.
 ------------------------------------------------------------------------------
 Nuclear repulsion after PCM non-electrostatic terms =      340.8359015695 Hartrees.
 One-electron integrals computed using PRISM.
 NBasis=   162 RedAO= T EigKep=  3.56D-05  NBF=   162
 NBsUse=   162 1.00D-06 EigRej= -1.00D+00 NBFU=   162
 Initial guess from the checkpoint file:  "/home/Tinker/g16/scratch/Gau-1711544.chk"
 B after Tr=     0.000000   -0.000000    0.000000
         Rot=    0.999999   -0.000036    0.000077   -0.001597 Ang=  -0.18 deg.
 ExpMin= 4.38D-02 ExpMax= 5.48D+03 ExpMxC= 8.25D+02 IAcc=3 IRadAn=         5 AccDes= 0.00D+00
 Harris functional with IExCor= 1009 and IRadAn=       5 diagonalized for initial guess.
 HarFok:  IExCor= 1009 AccDes= 0.00D+00 IRadAn=         5 IDoV= 1 UseB2=F ITyADJ=14
 ICtDFT=  3500011 ScaDFX=  1.000000  1.000000  1.000000  1.000000
 FoFCou: FMM=F IPFlag=           0 FMFlag=      100000 FMFlg1=           0
         NFxFlg=           0 DoJE=T BraDBF=F KetDBF=T FulRan=T
         wScrn=  0.000000 ICntrl=       500 IOpCl=  0 I1Cent=   200000004 NGrid=           0
         NMat0=    1 NMatS0=      1 NMatT0=    0 NMatD0=    1 NMtDS0=    0 NMtDT0=    0
 Petite list used in FoFCou.
 Keep R1 ints in memory in canonical form, NReq=110915818.
 Requested convergence on RMS density matrix=1.00D-08 within 128 cycles.
 Requested convergence on MAX density matrix=1.00D-06.
 Requested convergence on             energy=1.00D-06.
 No special actions if energy rises.
 Inv3:  Mode=1 IEnd=     3364443.
 Iteration    1 A*A^-1 deviation from unit magnitude is 3.33D-15 for   1035.
 Iteration    1 A*A^-1 deviation from orthogonality  is 5.33D-15 for   1042     12.
 Iteration    1 A^-1*A deviation from unit magnitude is 3.33D-15 for   1035.
 Iteration    1 A^-1*A deviation from orthogonality  is 1.75D-15 for    900    622.
 Error on total polarization charges =  0.02792
 SCF Done:  E(RM062X) =  -446.701556978     A.U. after   12 cycles
            NFock= 12  Conv=0.68D-08     -V/T= 2.0080
 SMD-CDS (non-electrostatic) energy       (kcal/mol) =       5.40
 (included in total energy above)
 D1PCM: PCM CHGder 1st derivatives, ID1Alg=3 FixD1E=F DoIter=F DoCFld=F I1PDM=0.
 Calling FoFJK, ICntrl=      2127 FMM=F ISym2X=0 I1Cent= 0 IOpClX= 0 NMat=1 NMatS=1 NMatT=0.
 ***** Axes restored to original set *****
 -------------------------------------------------------------------
 Center     Atomic                   Forces (Hartrees/Bohr)
 Number     Number              X              Y              Z
 -------------------------------------------------------------------
      1        7          -0.012816847   -0.002112098   -0.000385884
      2        7           0.000939091   -0.001022168   -0.000212202
      3        7           0.001425609   -0.001374051    0.000176446
      4        7          -0.008640965   -0.010421868   -0.000393888
      5        6          -0.003857610    0.008747908   -0.000031968
      6        6           0.004572036    0.015832517    0.000410102
      7        8           0.001420404   -0.004204629    0.000036254
      8        8          -0.003956224   -0.002992120   -0.000229871
      9        1           0.017497709    0.005252308    0.000567158
     10        1           0.003416797   -0.007705799    0.000063852
 -------------------------------------------------------------------
 Cartesian Forces:  Max     0.017497709 RMS     0.006247349

 GradGradGradGradGradGradGradGradGradGradGradGradGradGradGradGradGradGrad
 Berny optimization.
 Using GEDIIS/GDIIS optimizer.
 FormGI is forming the generalized inverse of G from B-inverse, IUseBI=4.
 Internal  Forces:  Max     0.018277977 RMS     0.004274111
 Search for a local minimum.
 Step number   3 out of a maximum of   52
 All quantities printed in internal units (Hartrees-Bohrs-Radians)
 Mixed Optimization -- RFO/linear search
 Update second derivatives using D2CorX and points    1    2    3
 DE= -6.35D-03 DEPred=-7.22D-03 R= 8.79D-01
 TightC=F SS=  1.41D+00  RLast= 3.25D-01 DXNew= 8.4853D-01 9.7506D-01
 Trust test= 8.79D-01 RLast= 3.25D-01 DXMaxT set to 8.49D-01
 ITU=  1  1  0
 Use linear search instead of GDIIS.
     Eigenvalues ---    0.00230   0.01243   0.01994   0.02496   0.02566
     Eigenvalues ---    0.02590   0.02805   0.04432   0.12363   0.15798
     Eigenvalues ---    0.16059   0.22831   0.24993   0.24998   0.30083
     Eigenvalues ---    0.36769   0.40387   0.46591   0.48281   0.53604
     Eigenvalues ---    0.59492   0.66797   1.21495   1.29811
 RFO step:  Lambda=-3.13214181D-03 EMin= 2.30003882D-03
 Quartic linear search produced a step of -0.06606.
 Iteration  1 RMS(Cart)=  0.03841865 RMS(Int)=  0.00013977
 Iteration  2 RMS(Cart)=  0.00018835 RMS(Int)=  0.00000988
 Iteration  3 RMS(Cart)=  0.00000002 RMS(Int)=  0.00000988
 Variable       Old X    -DE/DX   Delta X   Delta X   Delta X     New X
                                 (Linear)    (Quad)   (Total)
    R1        2.51015   0.00066  -0.00056   0.00282   0.00226   2.51241
    R2        2.51727   0.00600  -0.00142   0.01309   0.01166   2.52893
    R3        1.88508   0.01828   0.00741   0.02567   0.03308   1.91816
    R4        2.42417   0.00557   0.00421  -0.00529  -0.00107   2.42310
    R5        4.60978   0.00887  -0.01810   0.19931   0.18121   4.79099
    R6        2.53416   0.00418   0.00262  -0.00118   0.00145   2.53562
    R7        2.48686   0.00383   0.00222  -0.00111   0.00110   2.48796
    R8        2.01750   0.00836   0.00449   0.01014   0.01463   2.03212
    R9        2.20281  -0.00269   0.00036  -0.00327  -0.00291   2.19990
   R10        2.20574  -0.00336  -0.00054  -0.00052  -0.00107   2.20467
    A1        1.90033  -0.00077   0.00106  -0.00723  -0.00619   1.89413
    A2        2.11014   0.00029  -0.00204   0.00820   0.00618   2.11632
    A3        2.27271   0.00049   0.00098  -0.00097   0.00002   2.27273
    A4        1.86623  -0.00266  -0.00074  -0.00818  -0.00892   1.85731
    A5        2.08857   0.00110   0.00037   0.00325   0.00362   2.09219
    A6        2.32820   0.00156   0.00036   0.00491   0.00527   2.33347
    A7        1.92271   0.00578  -0.00003   0.02207   0.02206   1.94476
    A8        1.86400  -0.00684  -0.00194  -0.01908  -0.02101   1.84299
    A9        1.87150   0.00449   0.00166   0.01243   0.01407   1.88558
   A10        2.17651  -0.00113  -0.00316   0.00844   0.00529   2.18180
   A11        2.23517  -0.00336   0.00150  -0.02087  -0.01936   2.21581
   A12        1.66957  -0.00249   0.00000  -0.01949  -0.01948   1.65009
   A13        1.61754  -0.00279   0.00019  -0.02118  -0.02099   1.59655
   A14        3.28711  -0.00528   0.00020  -0.04067  -0.04047   3.24664
   A15        3.14143   0.00002   0.00002   0.00065   0.00067   3.14210
    D1       -0.00039   0.00003   0.00001   0.00175   0.00174   0.00135
    D2        3.12347   0.00002  -0.00014   0.00052   0.00037   3.12384
    D3        3.14092   0.00003  -0.00002   0.00181   0.00179  -3.14048
    D4       -0.01840   0.00003  -0.00016   0.00058   0.00042  -0.01799
    D5       -0.00009   0.00001   0.00003  -0.00018  -0.00015  -0.00023
    D6       -3.14123  -0.00001   0.00001  -0.00066  -0.00065   3.14131
    D7       -3.14136   0.00001   0.00006  -0.00025  -0.00020  -3.14157
    D8        0.00068  -0.00002   0.00004  -0.00073  -0.00070  -0.00002
    D9        0.00072  -0.00005  -0.00004  -0.00264  -0.00270  -0.00198
   D10       -3.11967  -0.00003   0.00014  -0.00111  -0.00100  -3.12066
   D11        3.13662   0.00006  -0.00007   0.00478   0.00471   3.14133
   D12       -0.00481   0.00003  -0.00009   0.00413   0.00404  -0.00077
   D13       -0.02832  -0.00000  -0.00028   0.00299   0.00271  -0.02561
   D14        3.11344  -0.00003  -0.00030   0.00234   0.00204   3.11548
   D15       -0.00078   0.00006   0.00006   0.00256   0.00262   0.00184
   D16        0.00051  -0.00004  -0.00006  -0.00140  -0.00143  -0.00092
   D17       -3.14155  -0.00002  -0.00003  -0.00088  -0.00091   3.14072
         Item               Value     Threshold  Converged?
 Maximum Force            0.018278     0.000450     NO 
 RMS     Force            0.004274     0.000300     NO 
 Maximum Displacement     0.143874     0.001800     NO 
 RMS     Displacement     0.038443     0.001200     NO 
 Predicted change in Energy=-1.641815D-03
 GradGradGradGradGradGradGradGradGradGradGradGradGradGradGradGradGradGrad

                          Input orientation:                          
 ---------------------------------------------------------------------
 Center     Atomic      Atomic             Coordinates (Angstroms)
 Number     Number       Type             X           Y           Z
 ---------------------------------------------------------------------
      1          7           0       -0.333272   -0.404006    0.038878
      2          7           0       -1.311038    0.496462    0.011920
      3          7           0       -2.410153   -0.163004   -0.022925
      4          7           0       -2.188049   -1.486286   -0.022316
      5          6           0       -0.879466   -1.625534    0.017424
      6          6           0       -0.753115    2.968724    0.077424
      7          8           0       -1.863739    3.315046    0.035141
      8          8           0        0.390037    2.740327    0.123677
      9          1           0        0.641414   -0.122336    0.069923
     10          1           0       -0.327619   -2.548393    0.030852
 ---------------------------------------------------------------------
                    Distance matrix (angstroms):
                    1          2          3          4          5
     1  N    0.000000
     2  N    1.329510   0.000000
     3  N    2.091730   1.282249   0.000000
     4  N    2.148318   2.168319   1.341791   0.000000
     5  C    1.338252   2.165445   2.117457   1.316571   0.000000
     6  C    3.398979   2.535280   3.544512   4.681462   4.596386
     7  O    4.021653   2.872357   3.521190   4.812615   5.037702
     8  O    3.227568   2.817991   4.036320   4.952988   4.547930
     9  H    1.015045   2.048986   3.053250   3.142408   2.139028
    10  H    2.144409   3.199783   3.167005   2.142918   1.075353
                    6          7          8          9         10
     6  C    0.000000
     7  O    1.164136   0.000000
     8  O    1.166662   2.327584   0.000000
     9  H    3.391079   4.253540   2.874181   0.000000
    10  H    5.533696   6.061320   5.337996   2.612720   0.000000
 Stoichiometry    C2H2N4O2
 Framework group  C1[X(C2H2N4O2)]
 Deg. of freedom    24
 Full point group                 C1      NOp   1
 Largest Abelian subgroup         C1      NOp   1
 Largest concise Abelian subgroup C1      NOp   1
                         Standard orientation:                         
 ---------------------------------------------------------------------
 Center     Atomic      Atomic             Coordinates (Angstroms)
 Number     Number       Type             X           Y           Z
 ---------------------------------------------------------------------
      1          7           0       -1.010281    0.952744    0.009991
      2          7           0       -0.270434   -0.151890    0.012227
      3          7           0       -1.090635   -1.137412   -0.001203
      4          7           0       -2.364210   -0.715115   -0.009906
      5          6           0       -2.301117    0.599928   -0.003497
      6          6           0        2.258818    0.022211   -0.002550
      7          8           0        2.430542   -1.129174    0.003354
      8          8           0        2.208657    1.187772   -0.009788
      9          1           0       -0.582461    1.873190    0.018042
     10          1           0       -3.128417    1.286905   -0.008053
 ---------------------------------------------------------------------
 Rotational constants (GHZ):           5.5757078           1.2098897           0.9941914
 Standard basis: 6-31+G(d,p) (6D, 7F)
 There are   162 symmetry adapted cartesian basis functions of A   symmetry.
 There are   162 symmetry adapted basis functions of A   symmetry.
   162 basis functions,   270 primitive gaussians,   162 cartesian basis functions
    29 alpha electrons       29 beta electrons
       nuclear repulsion energy       337.9830646649 Hartrees.
 NAtoms=   10 NActive=   10 NUniq=   10 SFac= 1.00D+00 NAtFMM=   60 NAOKFM=F Big=F
 Integral buffers will be    131072 words long.
 Raffenetti 2 integral format.
 Two-electron integral symmetry is turned on.
 ------------------------------------------------------------------------------
 Polarizable Continuum Model (PCM)
 =================================
 Model                : PCM.
 Atomic radii         : SMD-Coulomb.
 Polarization charges : Total charges.
 Charge compensation  : None.
 Solution method      : On-the-fly selection.
 Cavity type          : VdW (van der Waals Surface) (Alpha=1.000).
 Cavity algorithm     : GePol (No added spheres)
                        Default sphere list used, NSphG=   10.
                        Lebedev-Laikov grids with approx.  5.0 points / Ang**2.
                        Smoothing algorithm: York/Karplus (Gamma=1.0000).
                        Polarization charges: spherical gaussians, with
                                              point-specific exponents (IZeta= 3).
                        Self-potential: point-specific (ISelfS= 7).
                        Self-field    : sphere-specific E.n sum rule (ISelfD= 2).
 1st derivatives      : Analytical E(r).r(x)/FMM algorithm (CHGder, D1EAlg=3).
                        Cavity 1st derivative terms included.
 Solvent              : Water, Eps=  78.355300 Eps(inf)=   1.777849
 ------------------------------------------------------------------------------
 Spheres list:
 ISph  on   Nord     Re0    Alpha      Xe            Ye            Ze
    1   N      1    1.8900  1.000     -1.010281      0.952744      0.009991
    2   N      2    1.8900  1.000     -0.270434     -0.151890      0.012227
    3   N      3    1.8900  1.000     -1.090635     -1.137412     -0.001203
    4   N      4    1.8900  1.000     -2.364210     -0.715115     -0.009906
    5   C      5    1.8500  1.000     -2.301117      0.599928     -0.003497
    6   C      6    1.8500  1.000      2.258818      0.022211     -0.002550
    7   O      7    1.5200  1.000      2.430542     -1.129174      0.003354
    8   O      8    1.5200  1.000      2.208657      1.187772     -0.009788
    9   H      9    1.2000  1.000     -0.582461      1.873190      0.018042
   10   H     10    1.2000  1.000     -3.128417      1.286905     -0.008053
 ------------------------------------------------------------------------------
 ------------------------------------------------------------------------------
 Atomic radii for non-electrostatic terms: SMD-CDS.
 ------------------------------------------------------------------------------
 Nuclear repulsion after PCM non-electrostatic terms =      337.9918020787 Hartrees.
 One-electron integrals computed using PRISM.
 NBasis=   162 RedAO= T EigKep=  3.55D-05  NBF=   162
 NBsUse=   162 1.00D-06 EigRej= -1.00D+00 NBFU=   162
 Initial guess from the checkpoint file:  "/home/Tinker/g16/scratch/Gau-1711544.chk"
 B after Tr=    -0.000000    0.000000    0.000000
         Rot=    0.999999    0.000030    0.000021    0.001120 Ang=   0.13 deg.
 ExpMin= 4.38D-02 ExpMax= 5.48D+03 ExpMxC= 8.25D+02 IAcc=3 IRadAn=         5 AccDes= 0.00D+00
 Harris functional with IExCor= 1009 and IRadAn=       5 diagonalized for initial guess.
 HarFok:  IExCor= 1009 AccDes= 0.00D+00 IRadAn=         5 IDoV= 1 UseB2=F ITyADJ=14
 ICtDFT=  3500011 ScaDFX=  1.000000  1.000000  1.000000  1.000000
 FoFCou: FMM=F IPFlag=           0 FMFlag=      100000 FMFlg1=           0
         NFxFlg=           0 DoJE=T BraDBF=F KetDBF=T FulRan=T
         wScrn=  0.000000 ICntrl=       500 IOpCl=  0 I1Cent=   200000004 NGrid=           0
         NMat0=    1 NMatS0=      1 NMatT0=    0 NMatD0=    1 NMtDS0=    0 NMtDT0=    0
 Petite list used in FoFCou.
 Keep R1 ints in memory in canonical form, NReq=110915818.
 Requested convergence on RMS density matrix=1.00D-08 within 128 cycles.
 Requested convergence on MAX density matrix=1.00D-06.
 Requested convergence on             energy=1.00D-06.
 No special actions if energy rises.
 Inv3:  Mode=1 IEnd=     3473328.
 Iteration    1 A*A^-1 deviation from unit magnitude is 3.77D-15 for   1069.
 Iteration    1 A*A^-1 deviation from orthogonality  is 3.43D-15 for   1059     14.
 Iteration    1 A^-1*A deviation from unit magnitude is 3.55D-15 for   1069.
 Iteration    1 A^-1*A deviation from orthogonality  is 1.44D-15 for    706    438.
 Error on total polarization charges =  0.02804
 SCF Done:  E(RM062X) =  -446.703681804     A.U. after   11 cycles
            NFock= 11  Conv=0.91D-08     -V/T= 2.0081
 SMD-CDS (non-electrostatic) energy       (kcal/mol) =       5.48
 (included in total energy above)
 D1PCM: PCM CHGder 1st derivatives, ID1Alg=3 FixD1E=F DoIter=F DoCFld=F I1PDM=0.
 Calling FoFJK, ICntrl=      2127 FMM=F ISym2X=0 I1Cent= 0 IOpClX= 0 NMat=1 NMatS=1 NMatT=0.
 ***** Axes restored to original set *****
 -------------------------------------------------------------------
 Center     Atomic                   Forces (Hartrees/Bohr)
 Number     Number              X              Y              Z
 -------------------------------------------------------------------
      1        7          -0.001096863   -0.004848252   -0.000191272
      2        7           0.001067320   -0.003539418    0.000245290
      3        7          -0.008983835    0.004555470   -0.000597560
      4        7           0.000855983   -0.002085162    0.000252221
      5        6           0.003318903    0.001800956    0.000070781
      6        6           0.005209896    0.009982931    0.000449732
      7        8           0.000541743   -0.002732866   -0.000047062
      8        8          -0.004390036   -0.001800951   -0.000270146
      9        1           0.001625976    0.000476358    0.000055180
     10        1           0.001850913   -0.001809065    0.000032834
 -------------------------------------------------------------------
 Cartesian Forces:  Max     0.009982931 RMS     0.003299643

 GradGradGradGradGradGradGradGradGradGradGradGradGradGradGradGradGradGrad
 Berny optimization.
 Using GEDIIS/GDIIS optimizer.
 FormGI is forming the generalized inverse of G from B-inverse, IUseBI=4.
 Internal  Forces:  Max     0.005615099 RMS     0.002152627
 Search for a local minimum.
 Step number   4 out of a maximum of   52
 All quantities printed in internal units (Hartrees-Bohrs-Radians)
 Mixed Optimization -- RFO/linear search
 Update second derivatives using D2CorX and points    2    3    4
 DE= -2.12D-03 DEPred=-1.64D-03 R= 1.29D+00
 TightC=F SS=  1.41D+00  RLast= 1.96D-01 DXNew= 1.4270D+00 5.8910D-01
 Trust test= 1.29D+00 RLast= 1.96D-01 DXMaxT set to 8.49D-01
 ITU=  1  1  1  0
 Use linear search instead of GDIIS.
     Eigenvalues ---    0.00230   0.01236   0.01983   0.02125   0.02502
     Eigenvalues ---    0.02566   0.02590   0.02809   0.12092   0.16028
     Eigenvalues ---    0.16124   0.23965   0.24987   0.25002   0.30030
     Eigenvalues ---    0.38814   0.43382   0.47358   0.49540   0.54115
     Eigenvalues ---    0.59306   0.73556   1.21322   1.30092
 RFO step:  Lambda=-1.61147119D-03 EMin= 2.29999100D-03
 Quartic linear search produced a step of  0.53700.
 Iteration  1 RMS(Cart)=  0.03757517 RMS(Int)=  0.01283299
 Iteration  2 RMS(Cart)=  0.01843556 RMS(Int)=  0.00001748
 Iteration  3 RMS(Cart)=  0.00001281 RMS(Int)=  0.00001641
 Iteration  4 RMS(Cart)=  0.00000000 RMS(Int)=  0.00001641
 Variable       Old X    -DE/DX   Delta X   Delta X   Delta X     New X
                                 (Linear)    (Quad)   (Total)
    R1        2.51241   0.00345   0.00121   0.00794   0.00914   2.52155
    R2        2.52893  -0.00293   0.00626  -0.00307   0.00318   2.53211
    R3        1.91816   0.00170   0.01776  -0.01225   0.00551   1.92367
    R4        2.42310   0.00429  -0.00057   0.00323   0.00267   2.42577
    R5        4.79099   0.00562   0.09731   0.18584   0.28315   5.07413
    R6        2.53562   0.00490   0.00078   0.01121   0.01200   2.54762
    R7        2.48796   0.00321   0.00059   0.00223   0.00283   2.49078
    R8        2.03212   0.00250   0.00785   0.00050   0.00836   2.04048
    R9        2.19990  -0.00132  -0.00156  -0.00223  -0.00380   2.19610
   R10        2.20467  -0.00396  -0.00057  -0.00331  -0.00389   2.20079
    A1        1.89413   0.00145  -0.00333   0.00865   0.00530   1.89944
    A2        2.11632  -0.00073   0.00332  -0.00285   0.00048   2.11680
    A3        2.27273  -0.00072   0.00001  -0.00580  -0.00578   2.26695
    A4        1.85731   0.00158  -0.00479   0.00340  -0.00141   1.85591
    A5        2.09219  -0.00127   0.00194  -0.00440  -0.00246   2.08973
    A6        2.33347  -0.00031   0.00283   0.00116   0.00399   2.33746
    A7        1.94476  -0.00500   0.01184  -0.01583  -0.00398   1.94078
    A8        1.84299   0.00282  -0.01128   0.01683   0.00554   1.84853
    A9        1.88558  -0.00084   0.00756  -0.01302  -0.00548   1.88009
   A10        2.18180  -0.00025   0.00284   0.00583   0.00868   2.19048
   A11        2.21581   0.00109  -0.01040   0.00719  -0.00319   2.21262
   A12        1.65009  -0.00167  -0.01046  -0.01816  -0.02862   1.62147
   A13        1.59655  -0.00206  -0.01127  -0.02031  -0.03158   1.56496
   A14        3.24664  -0.00373  -0.02173  -0.03847  -0.06021   3.18643
   A15        3.14210  -0.00004   0.00036  -0.00232  -0.00196   3.14014
    D1        0.00135  -0.00008   0.00094  -0.00690  -0.00599  -0.00464
    D2        3.12384  -0.00001   0.00020   0.00060   0.00076   3.12459
    D3       -3.14048  -0.00005   0.00096  -0.00480  -0.00384   3.13887
    D4       -0.01799   0.00002   0.00022   0.00270   0.00290  -0.01508
    D5       -0.00023   0.00000  -0.00008   0.00029   0.00021  -0.00002
    D6        3.14131   0.00003  -0.00035   0.00206   0.00172  -3.14015
    D7       -3.14157  -0.00003  -0.00011  -0.00206  -0.00218   3.13944
    D8       -0.00002  -0.00001  -0.00038  -0.00030  -0.00067  -0.00070
    D9       -0.00198   0.00013  -0.00145   0.01108   0.00959   0.00761
   D10       -3.12066   0.00007  -0.00053   0.00216   0.00157  -3.11909
   D11        3.14133  -0.00006   0.00253  -0.00226   0.00027  -3.14159
   D12       -0.00077  -0.00002   0.00217   0.00005   0.00222   0.00146
   D13       -0.02561   0.00004   0.00146   0.00769   0.00915  -0.01646
   D14        3.11548   0.00008   0.00110   0.01001   0.01111   3.12658
   D15        0.00184  -0.00013   0.00141  -0.01090  -0.00951  -0.00767
   D16       -0.00092   0.00007  -0.00077   0.00612   0.00537   0.00445
   D17        3.14072   0.00004  -0.00049   0.00431   0.00383  -3.13863
         Item               Value     Threshold  Converged?
 Maximum Force            0.005615     0.000450     NO 
 RMS     Force            0.002153     0.000300     NO 
 Maximum Displacement     0.212251     0.001800     NO 
 RMS     Displacement     0.055578     0.001200     NO 
 Predicted change in Energy=-1.083455D-03
 GradGradGradGradGradGradGradGradGradGradGradGradGradGradGradGradGradGrad

                          Input orientation:                          
 ---------------------------------------------------------------------
 Center     Atomic      Atomic             Coordinates (Angstroms)
 Number     Number       Type             X           Y           Z
 ---------------------------------------------------------------------
      1          7           0       -0.340876   -0.438312    0.038236
      2          7           0       -1.325261    0.462134    0.012416
      3          7           0       -2.422228   -0.203251   -0.028947
      4          7           0       -2.187699   -1.530816   -0.021627
      5          6           0       -0.877163   -1.666066    0.017098
      6          6           0       -0.736596    3.081042    0.080503
      7          8           0       -1.855068    3.393870    0.039324
      8          8           0        0.397213    2.818161    0.121455
      9          1           0        0.635765   -0.153028    0.070373
     10          1           0       -0.323087   -2.592735    0.031169
 ---------------------------------------------------------------------
                    Distance matrix (angstroms):
                    1          2          3          4          5
     1  N    0.000000
     2  N    1.334348   0.000000
     3  N    2.095661   1.283661   0.000000
     4  N    2.146603   2.171822   1.348142   0.000000
     5  C    1.339937   2.174868   2.128185   1.318066   0.000000
     6  C    3.541783   2.685114   3.693225   4.835842   4.749611
     7  O    4.120485   2.979344   3.642199   4.936283   5.153614
     8  O    3.340107   2.920560   4.135311   5.061210   4.662962
     9  H    1.017962   2.056066   3.060017   3.143042   2.140344
    10  H    2.154508   3.215110   3.181138   2.146448   1.079775
                    6          7          8          9         10
     6  C    0.000000
     7  O    1.162126   0.000000
     8  O    1.164606   2.326146   0.000000
     9  H    3.513215   4.334247   2.981187   0.000000
    10  H    5.689039   6.179520   5.459375   2.621661   0.000000
 Stoichiometry    C2H2N4O2
 Framework group  C1[X(C2H2N4O2)]
 Deg. of freedom    24
 Full point group                 C1      NOp   1
 Largest Abelian subgroup         C1      NOp   1
 Largest concise Abelian subgroup C1      NOp   1
                         Standard orientation:                         
 ---------------------------------------------------------------------
 Center     Atomic      Atomic             Coordinates (Angstroms)
 Number     Number       Type             X           Y           Z
 ---------------------------------------------------------------------
      1          7           0       -1.055657    0.950523    0.009175
      2          7           0       -0.315445   -0.159688    0.010609
      3          7           0       -1.140061   -1.143431    0.004013
      4          7           0       -2.416388   -0.709565   -0.011353
      5          6           0       -2.350698    0.606844   -0.004369
      6          6           0        2.363225    0.025691   -0.003549
      7          8           0        2.502104   -1.128097    0.001071
      8          8           0        2.276029    1.187023   -0.006767
      9          1           0       -0.625094    1.872920    0.015910
     10          1           0       -3.182266    1.295594   -0.009942
 ---------------------------------------------------------------------
 Rotational constants (GHZ):           5.5688201           1.1386272           0.9453609
 Standard basis: 6-31+G(d,p) (6D, 7F)
 There are   162 symmetry adapted cartesian basis functions of A   symmetry.
 There are   162 symmetry adapted basis functions of A   symmetry.
   162 basis functions,   270 primitive gaussians,   162 cartesian basis functions
    29 alpha electrons       29 beta electrons
       nuclear repulsion energy       334.0031843406 Hartrees.
 NAtoms=   10 NActive=   10 NUniq=   10 SFac= 1.00D+00 NAtFMM=   60 NAOKFM=F Big=F
 Integral buffers will be    131072 words long.
 Raffenetti 2 integral format.
 Two-electron integral symmetry is turned on.
 ------------------------------------------------------------------------------
 Polarizable Continuum Model (PCM)
 =================================
 Model                : PCM.
 Atomic radii         : SMD-Coulomb.
 Polarization charges : Total charges.
[...]
 Internal  Forces:  Max     0.000027411 RMS     0.000009662
 Search for a local minimum.
 Step number   1 out of a maximum of    2
 All quantities printed in internal units (Hartrees-Bohrs-Radians)
 Second derivative matrix not updated -- analytic derivatives used.
 ITU=  0
     Eigenvalues ---    0.00026   0.00063   0.00724   0.00940   0.02652
     Eigenvalues ---    0.02927   0.04921   0.05940   0.07416   0.08576
     Eigenvalues ---    0.10635   0.11093   0.12644   0.22546   0.27704
     Eigenvalues ---    0.38075   0.39090   0.45892   0.46622   0.48695
     Eigenvalues ---    0.58357   0.64346   0.93161   1.19430
 Angle between quadratic step and forces=  84.50 degrees.
 Linear search not attempted -- first point.
 Iteration  1 RMS(Cart)=  0.00072887 RMS(Int)=  0.00000037
 Iteration  2 RMS(Cart)=  0.00000043 RMS(Int)=  0.00000003
 Variable       Old X    -DE/DX   Delta X   Delta X   Delta X     New X
                                 (Linear)    (Quad)   (Total)
    R1        2.51806  -0.00001   0.00000  -0.00005  -0.00005   2.51801
    R2        2.52338  -0.00001   0.00000  -0.00002  -0.00002   2.52336
    R3        1.92174   0.00003   0.00000   0.00006   0.00006   1.92180
    R4        2.43121   0.00002   0.00000   0.00006   0.00006   2.43127
    R5        5.30378   0.00000   0.00000   0.00025   0.00025   5.30402
    R6        2.54768   0.00000   0.00000   0.00000   0.00000   2.54768
    R7        2.49137   0.00001   0.00000   0.00002   0.00002   2.49139
    R8        2.03844   0.00001   0.00000   0.00002   0.00002   2.03846
    R9        2.19665   0.00000   0.00000   0.00001   0.00001   2.19666
   R10        2.19989  -0.00002   0.00000  -0.00002  -0.00002   2.19987
    A1        1.89955  -0.00000   0.00000   0.00001   0.00001   1.89956
    A2        2.11190   0.00001   0.00000   0.00007   0.00007   2.11197
    A3        2.27173  -0.00001   0.00000  -0.00008  -0.00008   2.27166
    A4        1.85724   0.00002   0.00000   0.00004   0.00004   1.85728
    A5        1.83819  -0.00001   0.00000  -0.00010  -0.00010   1.83809
    A6        2.58775  -0.00001   0.00000   0.00006   0.00006   2.58781
    A7        1.93709  -0.00003   0.00000  -0.00006  -0.00006   1.93702
    A8        1.84714   0.00001   0.00000   0.00003   0.00003   1.84716
    A9        1.88376   0.00000   0.00000  -0.00001  -0.00001   1.88375
   A10        2.17749   0.00001   0.00000   0.00007   0.00007   2.17756
   A11        2.22194  -0.00001   0.00000  -0.00006  -0.00006   2.22188
   A12        1.68719  -0.00001   0.00000  -0.00017  -0.00017   1.68702
   A13        1.48030   0.00001   0.00000   0.00015   0.00015   1.48045
   A14        3.16749   0.00000   0.00000  -0.00002  -0.00002   3.16747
   A15        3.14161  -0.00000   0.00000  -0.00002  -0.00002   3.14159
    D1       -0.00011   0.00000   0.00000   0.00011   0.00011   0.00000
    D2       -3.14101   0.00000   0.00000  -0.00048  -0.00048  -3.14148
    D3       -3.14130  -0.00000   0.00000  -0.00030  -0.00030   3.14159
    D4        0.00099  -0.00000   0.00000  -0.00089  -0.00089   0.00010
    D5        0.00012  -0.00000   0.00000  -0.00012  -0.00012  -0.00000
    D6        3.14155  -0.00000   0.00000   0.00004   0.00004   3.14159
    D7        3.14125   0.00000   0.00000   0.00034   0.00034  -3.14159
    D8       -0.00050   0.00001   0.00000   0.00050   0.00050   0.00000
    D9        0.00006  -0.00000   0.00000  -0.00006  -0.00006  -0.00000
   D10        3.14038  -0.00000   0.00000   0.00102   0.00102   3.14139
   D11       -3.14068  -0.00000   0.00000  -0.00136  -0.00136   3.14115
   D12        0.00090   0.00000   0.00000  -0.00134  -0.00134  -0.00044
   D13        0.00218  -0.00000   0.00000  -0.00243  -0.00243  -0.00024
   D14       -3.13943  -0.00000   0.00000  -0.00241  -0.00241   3.14135
   D15        0.00001  -0.00000   0.00000  -0.00001  -0.00001  -0.00000
   D16       -0.00008   0.00000   0.00000   0.00008   0.00008   0.00000
   D17       -3.14150  -0.00000   0.00000  -0.00008  -0.00008  -3.14159
         Item               Value     Threshold  Converged?
 Maximum Force            0.000027     0.000450     YES
 RMS     Force            0.000010     0.000300     YES
 Maximum Displacement     0.003130     0.001800     NO 
 RMS     Displacement     0.000729     0.001200     YES
 Predicted change in Energy=-1.273865D-08
                           ----------------------------
                           ! Non-Optimized Parameters !
                           ! (Angstroms and Degrees)  !
 --------------------------                            --------------------------
 ! Name  Definition              Value          Derivative Info.                !
 --------------------------------------------------------------------------------
 ! R1    R(1,2)                  1.3325         -DE/DX =    0.0                 !
 ! R2    R(1,5)                  1.3353         -DE/DX =    0.0                 !
 ! R3    R(1,9)                  1.017          -DE/DX =    0.0                 !
 ! R4    R(2,3)                  1.2866         -DE/DX =    0.0                 !
 ! R5    R(2,6)                  2.8068         -DE/DX =    0.0                 !
 ! R6    R(3,4)                  1.3482         -DE/DX =    0.0                 !
 ! R7    R(4,5)                  1.3184         -DE/DX =    0.0                 !
 ! R8    R(5,10)                 1.0787         -DE/DX =    0.0                 !
 ! R9    R(6,7)                  1.1624         -DE/DX =    0.0                 !
 ! R10   R(6,8)                  1.1641         -DE/DX =    0.0                 !
 ! A1    A(2,1,5)              108.8367         -DE/DX =    0.0                 !
 ! A2    A(2,1,9)              121.0069         -DE/DX =    0.0                 !
 ! A3    A(5,1,9)              130.1564         -DE/DX =    0.0                 !
 ! A4    A(1,2,3)              106.4143         -DE/DX =    0.0                 !
 ! A5    A(1,2,6)              105.315          -DE/DX =    0.0                 !
 ! A6    A(3,2,6)              148.2707         -DE/DX =    0.0                 !
 ! A7    A(2,3,4)              110.9833         -DE/DX =    0.0                 !
 ! A8    A(3,4,5)              105.8347         -DE/DX =    0.0                 !
 ! A9    A(1,5,4)              107.9309         -DE/DX =    0.0                 !
 ! A10   A(1,5,10)             124.7649         -DE/DX =    0.0                 !
 ! A11   A(4,5,10)             127.3042         -DE/DX =    0.0                 !
 ! A12   A(2,6,7)               96.6591         -DE/DX =    0.0                 !
 ! A13   A(2,6,8)               84.8237         -DE/DX =    0.0                 !
 ! A14   L(7,6,8,2,-1)         181.4828         -DE/DX =    0.0                 !
 ! A15   L(7,6,8,2,-2)         179.9999         -DE/DX =    0.0                 !
 ! D1    D(5,1,2,3)              0.0001         -DE/DX =    0.0                 !
 ! D2    D(5,1,2,6)           -179.9937         -DE/DX =    0.0                 !
 ! D3    D(9,1,2,3)            179.9997         -DE/DX =    0.0                 !
 ! D4    D(9,1,2,6)              0.0059         -DE/DX =    0.0                 !
 ! D5    D(2,1,5,4)             -0.0001         -DE/DX =    0.0                 !
 ! D6    D(2,1,5,10)           179.9998         -DE/DX =    0.0                 !
 ! D7    D(9,1,5,4)           -179.9997         -DE/DX =    0.0                 !
 ! D8    D(9,1,5,10)             0.0002         -DE/DX =    0.0                 !
 ! D9    D(1,2,3,4)              0.0            -DE/DX =    0.0                 !
 ! D10   D(6,2,3,4)            179.9886         -DE/DX =    0.0                 !
 ! D11   D(1,2,6,7)            179.9747         -DE/DX =    0.0                 !
 ! D12   D(1,2,6,8)             -0.0252         -DE/DX =    0.0                 !
 ! D13   D(3,2,6,7)             -0.014          -DE/DX =    0.0                 !
 ! D14   D(3,2,6,8)            179.9861         -DE/DX =    0.0                 !
 ! D15   D(2,3,4,5)              0.0            -DE/DX =    0.0                 !
 ! D16   D(3,4,5,1)              0.0001         -DE/DX =    0.0                 !
 ! D17   D(3,4,5,10)          -179.9998         -DE/DX =    0.0                 !
 --------------------------------------------------------------------------------
 GradGradGradGradGradGradGradGradGradGradGradGradGradGradGradGradGradGrad


 ----------------------------------------------------------------------

 Electric dipole moment (input orientation):
 (Debye = 10**-18 statcoulomb cm , SI units = C m)
                  (au)            (Debye)         (10**-30 SI)
   Tot        0.295128D+01      0.750141D+01      0.250220D+02
   x          0.292111D+01      0.742473D+01      0.247662D+02
   y         -0.408459D+00     -0.103820D+01     -0.346306D+01
   z          0.101540D+00      0.258090D+00      0.860896D+00

 Dipole polarizability, Alpha (input orientation).
 (esu units = cm**3 , SI units = C**2 m**2 J**-1)
 Alpha(0;0):
               (au)            (10**-24 esu)      (10**-40 SI)
   iso        0.674616D+02      0.999678D+01      0.111229D+02
   aniso      0.426664D+02      0.632251D+01      0.703475D+01
   xx         0.862273D+02      0.127776D+02      0.142170D+02
   yx        -0.847792D+01     -0.125630D+01     -0.139782D+01
   yy         0.744667D+02      0.110348D+02      0.122779D+02
   zx         0.149705D+01      0.221840D+00      0.246831D+00
   zy         0.114290D+00      0.169360D-01      0.188439D-01
   zz         0.416908D+02      0.617794D+01      0.687388D+01

 ----------------------------------------------------------------------

 Dipole orientation:
     7         -0.21552894         -0.74656086         -0.76105461
     7         -0.07832401          0.38049686         -3.00861741
     7         -0.29297474         -1.37834688         -4.67330378
     7         -0.57065574         -3.65519962         -3.56447904
     6         -0.51832241         -3.22718756         -1.11070509
     6          0.55447735          5.53949688         -1.95300082
     8          0.63488534          6.21900585         -4.04036306
     8          0.48054227          4.91295512          0.15448629
     1         -0.09190433          0.26988688          0.86518439
     1         -0.68557441         -4.60009580          0.38676080

 Electric dipole moment (dipole orientation):
 (Debye = 10**-18 statcoulomb cm , SI units = C m)
                  (au)            (Debye)         (10**-30 SI)
   Tot        0.295128D+01      0.750141D+01      0.250220D+02
   x          0.000000D+00      0.000000D+00      0.000000D+00
   y          0.000000D+00      0.000000D+00      0.000000D+00
   z          0.295128D+01      0.750141D+01      0.250220D+02

 Dipole polarizability, Alpha (dipole orientation).
 (esu units = cm**3 , SI units = C**2 m**2 J**-1)
 Alpha(0;0):
               (au)            (10**-24 esu)      (10**-40 SI)
   iso        0.674616D+02      0.999678D+01      0.111229D+02
   aniso      0.426664D+02      0.632251D+01      0.703475D+01
   xx         0.420847D+02      0.623631D+01      0.693883D+01
   yx         0.368902D+01      0.546656D+00      0.608237D+00
   yy         0.719272D+02      0.106585D+02      0.118592D+02
   zx        -0.764662D+00     -0.113311D+00     -0.126076D+00
   zy        -0.648146D+01     -0.960453D+00     -0.106865D+01
   zz         0.883729D+02      0.130955D+02      0.145707D+02

 ----------------------------------------------------------------------
 Unable to Open any file for archive entry.
 1\1\GINC-XIELAB72C\Freq\RM062X\6-31+G(d,p)\C2H2N4O2\TINKER\27-Oct-2023
 \0\\#N Geom=AllCheck Guess=TCheck SCRF=Check GenChk RM062X/6-31+G(d,p)
  Freq\\Title Card Required\\0,1\N,-0.4569703416,-0.3471128918,0.044354
 0023\N,-1.5513470107,0.4124794144,0.0141138528\N,-2.5525259016,-0.3941
 488884,-0.0325822595\N,-2.1390944098,-1.6773645113,-0.0337070168\C,-0.
 8224253624,-1.6311076096,0.0149043493\C,-0.619190156,3.0589852581,0.07
 97290762\O,-1.6626131636,3.57041744,0.0493762891\O,0.4386667764,2.5740
 427825,0.1109371985\H,0.4694955912,0.0703680142,0.0836547634\H,-0.1389
 960219,-2.4655590081,0.0292197447\\Version=ES64L-G16RevC.01\State=1-A\
 HF=-446.7055208\RMSD=5.789e-09\RMSF=1.693e-05\ZeroPoint=0.0609726\Ther
 mal=0.0684988\ETot=-446.637022\HTot=-446.6360778\GTot=-446.6799634\Dip
 ole=2.9211147,-0.4084592,0.1015404\DipoleDeriv=-0.8776111,-0.2623603,-
 0.0295345,-0.0886962,-0.1375138,-0.003004,-0.0272072,-0.0092173,-0.157
 8263,0.374809,-0.1963811,0.0153207,-0.1540971,-0.6141201,-0.0118656,0.
 0158441,-0.0135021,-0.1155725,-0.2532669,0.0176015,-0.0003433,0.002712
 3,0.3754703,0.0078961,-0.0005153,0.0083955,-0.2367016,-0.4242817,0.227
 7286,-0.0016079,-0.0873157,-0.601906,-0.0070089,-0.0056287,0.0044572,-
 0.299969,0.4723471,0.0982622,0.0128284,0.2145253,0.3484462,0.010252,0.
 0142498,0.0060947,0.1531568,3.1630155,-1.1257522,0.0723623,-1.0880576,
 1.4976468,-0.0284446,0.0728328,-0.0298128,0.7116919,-1.5534437,0.61442
 32,-0.0344782,0.5835723,-0.7305751,0.0158864,-0.0348518,0.0169747,-0.3
 578873,-1.6185777,0.5315322,-0.0376228,0.5683664,-0.7302317,0.0154153,
 -0.0372315,0.0141788,-0.3631426,0.5352332,0.1146021,0.005163,0.066305,
 0.390651,0.0018722,0.004535,0.0035475,0.4342099,0.1817763,-0.0196561,-
 0.0020877,-0.0173148,0.2021324,-0.0009989,-0.0020273,-0.0011162,0.2320
 406\Polar=86.2273203,-8.4779161,74.4667096,1.4970521,0.1142899,41.6907
 913\Quadrupole=-2.6847756,1.3216371,1.3631386,-7.0355745,-0.2285381,-0
 .2594531\PG=C01 [X(C2H2N4O2)]\NImag=0\\0.95364983,0.20010983,0.7476683
 2,0.03335699,0.01538738,0.11273921,-0.20422068,0.09966492,-0.00344356,
 0.53021090,0.06528566,-0.20142701,0.00078086,0.05665035,0.64679642,-0.
 00385645,0.00202557,-0.07580244,0.01558108,0.00870320,0.12298750,-0.16
 659832,0.02738602,-0.00676260,-0.28756148,-0.10785067,-0.00814038,0.65
 885355,-0.05436278,-0.01660368,-0.00253536,-0.16725277,-0.22126636,-0.
 00762254,0.02207077,0.47379341,-0.00779751,0.00043215,0.02816101,-0.00
 888858,-0.00544978,-0.10209351,0.01956988,0.00515582,0.13052783,-0.070
 58777,-0.13217677,-0.00502403,-0.00393112,0.01995233,-0.00129297,-0.13
 196332,0.06906879,-0.00050724,0.61658814,-0.00325211,-0.01359983,-0.00
 057810,-0.08861636,-0.13139602,-0.00537211,0.02828742,-0.21667609,-0.0
 0051729,0.06447946,0.48151138,-0.00340592,-0.00526848,0.02149878,-0.00
 265865,-0.00141788,0.03823352,-0.00102699,0.00097251,-0.09410686,0.019
 16982,0.00699945,0.11420724,-0.14454389,-0.03800959,-0.00316205,-0.010
 94257,-0.01288066,-0.00132721,-0.06802904,0.12558429,-0.00165468,-0.40
 612512,-0.02687010,-0.01211798,0.81302954,-0.07435294,-0.35599705,-0.0
 0630369,0.08558811,-0.10215322,0.00157103,0.02352635,-0.01842846,0.000
 36475,-0.01279357,-0.12611492,-0.00100696,-0.18163869,0.85138244,-0.00
 360671,-0.00496548,-0.07156553,-0.00008215,-0.00202624,0.02093844,-0.0
 0293867,0.00407901,0.02073881,-0.01194944,-0.00151650,-0.08367483,0.02
 170366,0.00217806,0.15560373,0.00078106,0.00216142,0.00005556,-0.00178
 246,-0.00040016,-0.00003370,-0.00050627,-0.00106954,-0.00001948,-0.001
 30454,-0.00005668,-0.00005796,-0.00010767,0.00193189,0.00001848,1.5514
 4240,0.00053702,-0.00210910,-0.00000727,0.00243272,-0.00511935,0.00003
 468,-0.00193139,0.00077891,-0.00005733,-0.00061029,0.00328531,0.000017
 53,0.00071019,0.00083356,0.00003535,-0.67287983,0.45859172,0.00003473,
 0.00005065,0.00000385,0.00000143,-0.00006436,-0.00097198,-0.00002967,-
 0.00002472,-0.00032570,-0.00006271,0.00003556,0.00024164,0.00000240,0.
 00007773,0.00007666,0.04113374,-0.01979360,0.14642598,-0.00025037,-0.0
 0074330,-0.00002323,0.00047667,-0.00165278,-0.00001255,0.00000554,0.00
 061148,0.00000523,0.00036570,0.00033896,0.00001963,0.00013046,-0.00059
 664,-0.00000212,-0.77177368,0.34283067,-0.02036276,0.87105378,-0.00026
 275,-0.00075570,-0.00002054,0.00082605,-0.00142646,0.00000876,0.000564
 81,-0.00016809,0.00001754,0.00023731,-0.00105287,-0.00000434,-0.000074
 54,-0.00042850,-0.00000747,0.34167373,-0.23561678,0.00999132,-0.404946
 62,0.23633508,-0.00001671,-0.00003729,0.00012840,0.00001823,-0.0000792
 7,0.00026512,0.00000470,0.00001889,0.00006338,0.00001724,-0.00000048,-
 0.00004059,0.00000485,-0.00002584,-0.00003027,-0.02037641,0.01003179,-
 0.07268384,0.02435946,-0.01175923,0.03657161,-0.00064806,-0.00055593,-
 0.00002828,-0.00338534,-0.00101928,-0.00014463,0.00085248,-0.00027129,
 0.00001711,0.00044530,-0.00056341,0.00001411,-0.00009514,-0.00082140,-
 0.00001705,-0.77619284,0.32742053,-0.02071503,-0.10035005,0.06243441,-
 0.00401728,0.87937951,-0.00056078,-0.00086711,-0.00002823,-0.00433052,
 -0.00189810,-0.00018000,0.00097112,-0.00098430,0.00002051,-0.00049704,
 -0.00151795,-0.00003679,-0.00046183,0.00048875,-0.00001075,0.32421700,
 -0.21882496,0.00959474,0.06614883,0.00253204,0.00191410,-0.38369309,0.
 22259375,-0.00002618,-0.00002422,-0.00007984,-0.00018626,-0.00006486,0
 .00036309,0.00003063,-0.00002493,0.00031767,0.00001547,-0.00003731,-0.
 00014879,-0.00001234,-0.00002427,0.00008467,-0.02074776,0.00970491,-0.
 07278389,-0.00397439,0.00178466,0.03571268,0.02491930,-0.01118872,0.03
 672096,-0.38291477,-0.14366931,-0.01536772,-0.01760246,-0.01277614,-0.
 00041477,-0.00007235,0.00516649,-0.00023116,0.00552651,0.00310990,-0.0
 0003371,0.00459737,-0.00143538,0.00038936,-0.00059176,0.00136688,-0.00
 000435,0.00033807,-0.00038302,0.00000617,0.00000814,-0.00177808,-0.000
 01812,0.39079730,-0.15312146,-0.14144180,-0.00724066,0.01811032,0.0200
 9563,0.00105618,0.01102435,-0.00267951,0.00026363,-0.00362917,-0.00631
 027,-0.00030451,-0.02319016,0.00357865,-0.00072450,0.00437509,-0.00184
 953,0.00013084,-0.00197480,0.00062653,-0.00006172,-0.00292094,-0.00151
 373,-0.00012492,0.15068225,0.12943228,-0.01551106,-0.00690888,-0.01456
 404,-0.00001236,-0.00007449,-0.01066219,-0.00015530,0.00004719,0.00801
 996,-0.00011872,-0.00005451,0.00744456,0.00012352,0.00008196,-0.006519
 07,0.00002616,0.00002918,0.00000116,-0.00000970,-0.00000772,0.00002724
 ,-0.00002792,-0.00008427,-0.00017741,0.01562285,0.00696090,0.01800736,
 0.01533297,-0.01416729,0.00039891,-0.00126147,-0.00530865,-0.00035842,
 -0.00498079,0.00045457,-0.00049357,-0.00901378,0.02314292,0.00009765,-
 0.18791395,0.16059228,-0.00351536,0.00003577,0.00012350,0.00000223,0.0
 0000388,-0.00006937,-0.00000024,-0.00001400,-0.00001561,-0.00000035,-0
 .00008605,0.00064451,0.00006255,0.18789742,0.01998033,-0.01486705,0.00
 054560,-0.00307284,-0.00220553,-0.00022477,-0.00404877,0.00223418,-0.0
 0022998,-0.00403104,0.01187127,0.00004948,0.15683110,-0.25316125,0.002
 95851,0.00004706,0.00003022,0.00000184,-0.00001580,-0.00004525,-0.0000
 0095,-0.00000960,-0.00000839,-0.00000034,-0.00028359,0.00006176,0.0000
 1064,-0.16539686,0.25609005,0.00082882,-0.00069140,-0.00051940,-0.0003
 2917,-0.00030720,0.00674244,-0.00055158,-0.00006587,0.00869742,-0.0002
 4743,0.00104128,-0.00365467,-0.00356019,0.00308725,-0.03565263,0.00000
 136,0.00000476,0.00001613,0.00000044,-0.00000298,-0.00001374,-0.000000
 32,-0.00000059,-0.00000915,0.00005145,0.00004476,-0.00157758,0.0038066
 1,-0.00311002,0.02597118\\0.00003594,-0.00000294,-0.00002150,-0.000029
 07,0.00002315,0.00000722,0.00004701,0.00000351,-0.00000089,-0.00000484
 ,-0.00000258,-0.00000151,-0.00002525,-0.00002089,0.00001358,-0.0000188
 7,0.00000669,-0.00000275,0.00000956,0.00000196,0.00000175,0.00001658,-
 0.00001248,0.00000044,-0.00002797,-0.00000436,0.00000765,-0.00000309,0
 .00000795,-0.00000398\\\@
 The archive entry for this job was punched.


 THEREFORE SHALL EVIL COME UPON THEE...
 THOU SHALT NOT KNOW FROM WHENCE IT RISETH...
 AND MISCHIEF SHALL FALL UPON THEE...
 THOU SHALT NOT BE ABLE TO PUT IT OFF...
 AND DESOLATION SHALL COME UPON THEE SUDDENLY...
 WHICH THOU SHALT NOT KNOW...

                                         ISAIAH 47.11
 Job cpu time:       0 days  0 hours 20 minutes 29.4 seconds.
 Elapsed time:       0 days  0 hours  0 minutes 52.6 seconds.
 File lengths (MBytes):  RWF=     56 Int=      0 D2E=      0 Chk=      6 Scr=      1
 Normal termination of Gaussian 16 at Fri Oct 27 21:35:06 2023.
