 Entering Gaussian System, Link 0=/home/gau/soft/g16/g16
 Initial command:
 /home/gau/soft/g16/l1.exe "/home/gau/soft/scratch/Gau-12336.inp" -scrdir="/home/gau/soft/scratch/"
 Entering Link 1 = /home/gau/soft/g16/l1.exe PID=     12337.
  
 Copyright (c) 1988-2019, Gaussian, Inc.  All Rights Reserved.
  
 This is part of the Gaussian(R) 16 program.  It is based on
 the Gaussian(R) 09 system (copyright 2009, Gaussian, Inc.),
 the Gaussian(R) 03 system (copyright 2003, Gaussian, Inc.),
 the Gaussian(R) 98 system (copyright 1998, Gaussian, Inc.),
 the Gaussian(R) 94 system (copyright 1995, Gaussian, Inc.),
 the Gaussian 92(TM) system (copyright 1992, Gaussian, Inc.),
 the Gaussian 90(TM) system (copyright 1990, Gaussian, Inc.),
 the Gaussian 88(TM) system (copyright 1988, Gaussian, Inc.),
 the Gaussian 86(TM) system (copyright 1986, Carnegie Mellon
 University), and the Gaussian 82(TM) system (copyright 1983,
 Carnegie Mellon University). Gaussian is a federally registered
 trademark of Gaussian, Inc.
  
 This software contains proprietary and confidential information,
 including trade secrets, belonging to Gaussian, Inc.
  
 This software is provided under written license and may be
 used, copied, transmitted, or stored only in accord with that
 written license.
  
 The following legend is applicable only to US Government
 contracts under FAR:
  
                    RESTRICTED RIGHTS LEGEND
  
 Use, reproduction and disclosure by the US Government is
 subject to restrictions as set forth in subparagraphs (a)
 and (c) of the Commercial Computer Software - Restricted
 Rights clause in FAR 52.227-19.
  
 Gaussian, Inc.
 340 Quinnipiac St., Bldg. 40, Wallingford CT 06492
  
  
 ---------------------------------------------------------------
 Warning -- This program may not be used in any manner that
 competes with the business of Gaussian, Inc. or will provide
 assistance to any competitor of Gaussian, Inc.  The licensee
 of this program is prohibited from giving any competitor of
 Gaussian, Inc. access to this program.  By using this program,
 the user acknowledges that Gaussian, Inc. is engaged in the
 business of creating and licensing software in the field of
 computational chemistry and represents and warrants to the
 licensee that it is not a competitor of Gaussian, Inc. and that
 it will not use this program in any manner prohibited above.
 ---------------------------------------------------------------
  

 Cite this work as:
 Gaussian 16, Revision C.01,
 M. J. Frisch, G. W. Trucks, H. B. Schlegel, G. E. Scuseria, 
 M. A. Robb, J. R. Cheeseman, G. Scalmani, V. Barone, 
 G. A. Petersson, H. Nakatsuji, X. Li, M. Caricato, A. V. Marenich, 
 J. Bloino, B. G. Janesko, R. Gomperts, B. Mennucci, H. P. Hratchian, 
 J. V. Ortiz, A. F. Izmaylov, J. L. Sonnenberg, D. Williams-Young, 
 F. Ding, F. Lipparini, F. Egidi, J. Goings, B. Peng, A. Petrone, 
 T. Henderson, D. Ranasinghe, V. G. Zakrzewski, J. Gao, N. Rega, 
 G. Zheng, W. Liang, M. Hada, M. Ehara, K. Toyota, R. Fukuda, 
 J. Hasegawa, M. Ishida, T. Nakajima, Y. Honda, O. Kitao, H. Nakai, 
 T. Vreven, K. Throssell, J. A. Montgomery, Jr., J. E. Peralta, 
 F. Ogliaro, M. J. Bearpark, J. J. Heyd, E. N. Brothers, K. N. Kudin, 
 V. N. Staroverov, T. A. Keith, R. Kobayashi, J. Normand, 
 K. Raghavachari, A. P. Rendell, J. C. Burant, S. S. Iyengar, 
 J. Tomasi, M. Cossi, J. M. Millam, M. Klene, C. Adamo, R. Cammi, 
 J. W. Ochterski, R. L. Martin, K. Morokuma, O. Farkas, 
 J. B. Foresman, and D. J. Fox, Gaussian, Inc., Wallingford CT, 2019.
 
 ******************************************
 Gaussian 16:  ES64L-G16RevC.01  3-Jul-2019
                 2-Dec-2023 
 ******************************************
 %mem=10GB
 %nprocshared=48
 Will use up to   48 processors via shared memory.
 ----------------------------------------------------------------------
 # opt=(calcfc,ts,noeigentest) freq 6-31+g(d,p) scrf=(smd,solvent=water
 ) integral=grid=ultrafine m062x
 ----------------------------------------------------------------------
 1/5=1,10=4,11=1,18=20,26=6,38=1/1,3;
 2/9=110,12=2,17=6,18=5,40=1/2;
 3/5=1,6=6,7=111,11=2,25=1,30=1,70=32201,71=2,72=1,74=-55,75=-5,140=1/1,2,3;
 4//1;
 5/5=2,38=5,53=1/2;
 8/6=4,10=90,11=11/1;
 11/6=1,8=1,9=11,15=111,16=1/1,2,10;
 10/6=1,13=1/2;
 6/7=2,8=2,9=2,10=2,28=1/1;
 7/10=1,25=1/1,2,3,16;
 1/5=1,10=4,11=1,18=20,26=6/3(2);
 2/9=110/2;
 99//99;
 2/9=110/2;
 3/5=1,6=6,7=111,11=2,25=1,30=1,70=32205,71=1,72=1,74=-55,75=-5/1,2,3;
 4/5=5,16=3,69=1/1;
 5/5=2,38=5,53=1/2;
 7//1,2,3,16;
 1/5=1,11=1,18=20,26=6/3(-5);
 2/9=110/2;
 6/7=2,8=2,9=2,10=2,19=2,28=1/1;
 99/9=1/99;
 -------------------
 Title Card Required
 -------------------
 Symbolic Z-matrix:
 Charge =  0 Multiplicity = 1
 N                     0.27846  -0.3813   -0.0064 
 N                     0.47328   0.92281  -0.03449 
 C                     1.78895   1.07973  -0.02344 
 C                     2.36119  -0.20591   0.01223 
 N                     1.38457  -1.10615   0.02177 
 H                     2.24957   2.05613  -0.0395 
 H                     3.39976  -0.49894   0.02946 
 C                    -1.51416   2.17843   0.05066 
 C                    -1.0875   -0.91961  -0.01196 
 O                    -1.95447  -0.01658  -0.04757 
 O                    -1.19449  -2.1436    0.01833 
 H                    -1.52271   2.10572   1.12991 
 H                    -2.42857   1.99919  -0.49355 
 H                    -0.75141   2.77602  -0.42347 
 
 Add virtual bond connecting atoms C8         and O10        Dist= 4.23D+00.
 Add virtual bond connecting atoms H13        and O10        Dist= 4.00D+00.
 Add virtual bond connecting atoms H14        and N2         Dist= 4.26D+00.

 GradGradGradGradGradGradGradGradGradGradGradGradGradGradGradGradGradGrad
 Berny optimization.
 Initialization pass.
                           ----------------------------
                           !    Initial Parameters    !
                           ! (Angstroms and Degrees)  !
 --------------------------                            --------------------------
 ! Name  Definition              Value          Derivative Info.                !
 --------------------------------------------------------------------------------
 ! R1    R(1,2)                  1.3189         calculate D2E/DX2 analytically  !
 ! R2    R(1,5)                  1.3228         calculate D2E/DX2 analytically  !
 ! R3    R(1,9)                  1.4682         calculate D2E/DX2 analytically  !
 ! R4    R(2,3)                  1.325          calculate D2E/DX2 analytically  !
 ! R5    R(2,14)                 2.2551         calculate D2E/DX2 analytically  !
 ! R6    R(3,4)                  1.4077         calculate D2E/DX2 analytically  !
 ! R7    R(3,6)                  1.0797         calculate D2E/DX2 analytically  !
 ! R8    R(4,5)                  1.3283         calculate D2E/DX2 analytically  !
 ! R9    R(4,7)                  1.0793         calculate D2E/DX2 analytically  !
 ! R10   R(8,10)                 2.2409         calculate D2E/DX2 analytically  !
 ! R11   R(8,12)                 1.0817         calculate D2E/DX2 analytically  !
 ! R12   R(8,13)                 1.0791         calculate D2E/DX2 analytically  !
 ! R13   R(8,14)                 1.0788         calculate D2E/DX2 analytically  !
 ! R14   R(9,10)                 1.2523         calculate D2E/DX2 analytically  !
 ! R15   R(9,11)                 1.229          calculate D2E/DX2 analytically  !
 ! R16   R(10,13)                2.1183         calculate D2E/DX2 analytically  !
 ! A1    A(2,1,5)              114.7579         calculate D2E/DX2 analytically  !
 ! A2    A(2,1,9)              119.9922         calculate D2E/DX2 analytically  !
 ! A3    A(5,1,9)              125.2496         calculate D2E/DX2 analytically  !
 ! A4    A(1,2,3)              105.2831         calculate D2E/DX2 analytically  !
 ! A5    A(1,2,14)             137.3945         calculate D2E/DX2 analytically  !
 ! A6    A(3,2,14)             116.3177         calculate D2E/DX2 analytically  !
 ! A7    A(2,3,4)              107.1988         calculate D2E/DX2 analytically  !
 ! A8    A(2,3,6)              122.0435         calculate D2E/DX2 analytically  !
 ! A9    A(4,3,6)              130.7576         calculate D2E/DX2 analytically  !
 ! A10   A(3,4,5)              108.68           calculate D2E/DX2 analytically  !
 ! A11   A(3,4,7)              129.7587         calculate D2E/DX2 analytically  !
 ! A12   A(5,4,7)              121.5613         calculate D2E/DX2 analytically  !
 ! A13   A(1,5,4)              104.0801         calculate D2E/DX2 analytically  !
 ! A14   A(10,8,12)             88.6445         calculate D2E/DX2 analytically  !
 ! A15   A(10,8,14)            131.4748         calculate D2E/DX2 analytically  !
 ! A16   A(12,8,13)            119.0322         calculate D2E/DX2 analytically  !
 ! A17   A(12,8,14)            118.7721         calculate D2E/DX2 analytically  !
 ! A18   A(13,8,14)            118.0036         calculate D2E/DX2 analytically  !
 ! A19   A(1,9,10)             112.3211         calculate D2E/DX2 analytically  !
 ! A20   A(1,9,11)             116.4897         calculate D2E/DX2 analytically  !
 ! A21   A(10,9,11)            131.1892         calculate D2E/DX2 analytically  !
 ! A22   A(8,10,9)             124.6828         calculate D2E/DX2 analytically  !
 ! A23   A(9,10,13)            147.899          calculate D2E/DX2 analytically  !
 ! A24   A(2,14,8)              81.5435         calculate D2E/DX2 analytically  !
 ! D1    D(5,1,2,3)             -0.0472         calculate D2E/DX2 analytically  !
 ! D2    D(5,1,2,14)           167.3838         calculate D2E/DX2 analytically  !
 ! D3    D(9,1,2,3)           -179.874          calculate D2E/DX2 analytically  !
 ! D4    D(9,1,2,14)           -12.443          calculate D2E/DX2 analytically  !
 ! D5    D(2,1,5,4)              0.0505         calculate D2E/DX2 analytically  !
 ! D6    D(9,1,5,4)            179.8668         calculate D2E/DX2 analytically  !
 ! D7    D(2,1,9,10)             0.1388         calculate D2E/DX2 analytically  !
 ! D8    D(2,1,9,11)          -179.8485         calculate D2E/DX2 analytically  !
 ! D9    D(5,1,9,10)          -179.6687         calculate D2E/DX2 analytically  !
 ! D10   D(5,1,9,11)             0.3441         calculate D2E/DX2 analytically  !
 ! D11   D(1,2,3,4)              0.023          calculate D2E/DX2 analytically  !
 ! D12   D(1,2,3,6)           -179.9089         calculate D2E/DX2 analytically  !
 ! D13   D(14,2,3,4)          -170.5176         calculate D2E/DX2 analytically  !
 ! D14   D(14,2,3,6)             9.5505         calculate D2E/DX2 analytically  !
 ! D15   D(1,2,14,8)            34.273          calculate D2E/DX2 analytically  !
 ! D16   D(3,2,14,8)          -159.2711         calculate D2E/DX2 analytically  !
 ! D17   D(2,3,4,5)              0.0062         calculate D2E/DX2 analytically  !
 ! D18   D(2,3,4,7)            179.9312         calculate D2E/DX2 analytically  !
 ! D19   D(6,3,4,5)            179.93           calculate D2E/DX2 analytically  !
 ! D20   D(6,3,4,7)             -0.145          calculate D2E/DX2 analytically  !
 ! D21   D(3,4,5,1)             -0.0324         calculate D2E/DX2 analytically  !
 ! D22   D(7,4,5,1)           -179.9647         calculate D2E/DX2 analytically  !
 ! D23   D(12,8,10,9)          -85.961          calculate D2E/DX2 analytically  !
 ! D24   D(14,8,10,9)           42.4777         calculate D2E/DX2 analytically  !
 ! D25   D(10,8,14,2)          -36.8171         calculate D2E/DX2 analytically  !
 ! D26   D(12,8,14,2)           79.8862         calculate D2E/DX2 analytically  !
 ! D27   D(13,8,14,2)         -123.3205         calculate D2E/DX2 analytically  !
 ! D28   D(1,9,10,8)            -4.6219         calculate D2E/DX2 analytically  !
 ! D29   D(1,9,10,13)           20.1136         calculate D2E/DX2 analytically  !
 ! D30   D(11,9,10,8)          175.3629         calculate D2E/DX2 analytically  !
 ! D31   D(11,9,10,13)        -159.9016         calculate D2E/DX2 analytically  !
 --------------------------------------------------------------------------------
 Trust Radius=3.00D-01 FncErr=5.00D-06 GrdErr=5.00D-06 EigMax=2.50D+02 EigMin=1.00D-04
 Number of steps in this run=     81 maximum allowed number of steps=    100.
 Search for a saddle point of order  1.
 GradGradGradGradGradGradGradGradGradGradGradGradGradGradGradGradGradGrad

                          Input orientation:                          
 ---------------------------------------------------------------------
 Center     Atomic      Atomic             Coordinates (Angstroms)
 Number     Number       Type             X           Y           Z
 ---------------------------------------------------------------------
      1          7           0        0.278464   -0.381295   -0.006403
      2          7           0        0.473277    0.922809   -0.034486
      3          6           0        1.788949    1.079727   -0.023443
      4          6           0        2.361188   -0.205910    0.012232
      5          7           0        1.384572   -1.106148    0.021770
      6          1           0        2.249571    2.056134   -0.039501
      7          1           0        3.399761   -0.498935    0.029459
      8          6           0       -1.514161    2.178425    0.050655
      9          6           0       -1.087499   -0.919610   -0.011955
     10          8           0       -1.954474   -0.016582   -0.047569
     11          8           0       -1.194488   -2.143602    0.018325
     12          1           0       -1.522711    2.105721    1.129913
     13          1           0       -2.428571    1.999188   -0.493548
     14          1           0       -0.751406    2.776015   -0.423470
 ---------------------------------------------------------------------
                    Distance matrix (angstroms):
                    1          2          3          4          5
     1  N    0.000000
     2  N    1.318874   0.000000
     3  C    2.101533   1.325043   0.000000
     4  C    2.090179   2.200090   1.407691   0.000000
     5  N    1.322755   2.224925   2.223424   1.328269   0.000000
     6  H    3.134871   2.107053   1.079723   2.265387   3.279025
     7  H    3.123719   3.254190   2.256034   1.079256   2.104698
     8  C    3.125528   2.352388   3.481833   4.550259   4.380857
     9  C    1.468220   2.414754   3.503061   3.521845   2.479328
    10  O    2.262901   2.603191   3.900730   4.320227   3.513003
    11  O    2.296938   3.491004   4.392322   4.049385   2.779905
    12  H    3.274247   2.595973   3.653763   4.655912   4.471731
    13  H    3.637588   3.128906   4.342106   5.297175   4.944565
    14  H    3.347116   2.255112   3.080717   4.332431   4.453294
                    6          7          8          9         10
     6  H    0.000000
     7  H    2.802868   0.000000
     8  C    3.766797   5.596011   0.000000
     9  C    4.471224   4.507126   3.127904   0.000000
    10  O    4.687239   5.376470   2.240888   1.252347   0.000000
    11  O    5.431636   4.879772   4.333954   1.229032   2.259676
    12  H    3.949696   5.676792   1.081738   3.262805   2.465168
    13  H    4.700470   6.362673   1.079087   3.248044   2.118253
    14  H    3.109907   5.306847   1.078751   3.733624   3.063866
                   11         12         13         14
    11  O    0.000000
    12  H    4.404555   0.000000
    13  H    4.352894   1.862138   0.000000
    14  H    4.959248   1.859356   1.849663   0.000000
 Stoichiometry    C4H5N3O2
 Framework group  C1[X(C4H5N3O2)]
 Deg. of freedom    36
 Full point group                 C1      NOp   1
 Largest Abelian subgroup         C1      NOp   1
 Largest concise Abelian subgroup C1      NOp   1
                         Standard orientation:                         
 ---------------------------------------------------------------------
 Center     Atomic      Atomic             Coordinates (Angstroms)
 Number     Number       Type             X           Y           Z
 ---------------------------------------------------------------------
      1          7           0        0.278464   -0.381295   -0.006403
      2          7           0        0.473277    0.922809   -0.034486
      3          6           0        1.788949    1.079726   -0.023443
      4          6           0        2.361188   -0.205911    0.012232
      5          7           0        1.384572   -1.106149    0.021770
      6          1           0        2.249572    2.056133   -0.039501
      7          1           0        3.399761   -0.498936    0.029459
      8          6           0       -1.514160    2.178426    0.050655
      9          6           0       -1.087499   -0.919610   -0.011955
     10          8           0       -1.954474   -0.016581   -0.047569
     11          8           0       -1.194489   -2.143602    0.018325
     12          1           0       -1.522710    2.105722    1.129913
     13          1           0       -2.428570    1.999189   -0.493548
     14          1           0       -0.751405    2.776015   -0.423470
 ---------------------------------------------------------------------
 Rotational constants (GHZ):           2.4341432           1.7425280           1.0230242
 Standard basis: 6-31+G(d,p) (6D, 7F)
 There are   196 symmetry adapted cartesian basis functions of A   symmetry.
 There are   196 symmetry adapted basis functions of A   symmetry.
   196 basis functions,   323 primitive gaussians,   196 cartesian basis functions
    33 alpha electrons       33 beta electrons
       nuclear repulsion energy       442.1571410228 Hartrees.
 NAtoms=   14 NActive=   14 NUniq=   14 SFac= 1.00D+00 NAtFMM=   60 NAOKFM=F Big=F
 Integral buffers will be    131072 words long.
 Raffenetti 2 integral format.
 Two-electron integral symmetry is turned on.
 Force inversion solution in PCM.
 ------------------------------------------------------------------------------
 Polarizable Continuum Model (PCM)
 =================================
 Model                : PCM.
 Atomic radii         : SMD-Coulomb.
 Polarization charges : Total charges.
 Charge compensation  : None.
 Solution method      : Matrix inversion.
 Cavity type          : VdW (van der Waals Surface) (Alpha=1.000).
 Cavity algorithm     : GePol (No added spheres)
                        Default sphere list used, NSphG=   14.
                        Lebedev-Laikov grids with approx.  5.0 points / Ang**2.
                        Smoothing algorithm: York/Karplus (Gamma=1.0000).
                        Polarization charges: spherical gaussians, with
                                              point-specific exponents (IZeta= 3).
                        Self-potential: point-specific (ISelfS= 7).
                        Self-field    : sphere-specific E.n sum rule (ISelfD= 2).
 1st derivatives      : Analytical E(r).r(x)/FMM algorithm (CHGder, D1EAlg=3).
                        Cavity 1st derivative terms included.
 2nd derivatives      : Analytical E(r).r(xy)/FMM algorithm (CHGder, D2EAlg=3).
                        Cavity 2nd derivative terms included.
 Solvent              : Water, Eps=  78.355300 Eps(inf)=   1.777849
 ------------------------------------------------------------------------------
 Spheres list:
 ISph  on   Nord     Re0    Alpha      Xe            Ye            Ze
    1   N      1    1.8900  1.000      0.278464     -0.381295     -0.006403
    2   N      2    1.8900  1.000      0.473277      0.922809     -0.034486
    3   C      3    1.8500  1.000      1.788949      1.079726     -0.023443
    4   C      4    1.8500  1.000      2.361188     -0.205911      0.012232
    5   N      5    1.8900  1.000      1.384572     -1.106149      0.021770
    6   H      6    1.2000  1.000      2.249572      2.056133     -0.039501
    7   H      7    1.2000  1.000      3.399761     -0.498936      0.029459
    8   C      8    1.8500  1.000     -1.514160      2.178426      0.050655
    9   C      9    1.8500  1.000     -1.087499     -0.919610     -0.011955
   10   O     10    1.5200  1.000     -1.954474     -0.016581     -0.047569
   11   O     11    1.5200  1.000     -1.194489     -2.143602      0.018325
   12   H     12    1.2000  1.000     -1.522710      2.105722      1.129913
   13   H     13    1.2000  1.000     -2.428570      1.999189     -0.493548
   14   H     14    1.2000  1.000     -0.751405      2.776015     -0.423470
 ------------------------------------------------------------------------------
 ------------------------------------------------------------------------------
 Atomic radii for non-electrostatic terms: SMD-CDS.
 ------------------------------------------------------------------------------
 Nuclear repulsion after PCM non-electrostatic terms =      442.1665808991 Hartrees.
 One-electron integrals computed using PRISM.
 NBasis=   196 RedAO= T EigKep=  2.07D-05  NBF=   196
 NBsUse=   196 1.00D-06 EigRej= -1.00D+00 NBFU=   196
 ExpMin= 4.38D-02 ExpMax= 5.48D+03 ExpMxC= 8.25D+02 IAcc=3 IRadAn=         5 AccDes= 0.00D+00
 Harris functional with IExCor= 1009 and IRadAn=       5 diagonalized for initial guess.
 HarFok:  IExCor= 1009 AccDes= 0.00D+00 IRadAn=         5 IDoV= 1 UseB2=F ITyADJ=14
 ICtDFT=  3500011 ScaDFX=  1.000000  1.000000  1.000000  1.000000
 FoFCou: FMM=F IPFlag=           0 FMFlag=      100000 FMFlg1=           0
         NFxFlg=           0 DoJE=T BraDBF=F KetDBF=T FulRan=T
         wScrn=  0.000000 ICntrl=       500 IOpCl=  0 I1Cent=   200000004 NGrid=           0
         NMat0=    1 NMatS0=      1 NMatT0=    0 NMatD0=    1 NMtDS0=    0 NMtDT0=    0
 Petite list used in FoFCou.
 Requested convergence on RMS density matrix=1.00D-08 within 128 cycles.
 Requested convergence on MAX density matrix=1.00D-06.
 Requested convergence on             energy=1.00D-06.
 No special actions if energy rises.
 Inv3:  Mode=1 IEnd=     4414107.
 Iteration    1 A*A^-1 deviation from unit magnitude is 3.00D-15 for   1194.
 Iteration    1 A*A^-1 deviation from orthogonality  is 2.51D-15 for   1210   1103.
 Iteration    1 A^-1*A deviation from unit magnitude is 3.00D-15 for   1194.
 Iteration    1 A^-1*A deviation from orthogonality  is 2.12D-15 for   1199    515.
 Error on total polarization charges =  0.03966
 SCF Done:  E(RM062X) =  -469.853161632     A.U. after   15 cycles
            NFock= 15  Conv=0.37D-08     -V/T= 2.0084
 SMD-CDS (non-electrostatic) energy       (kcal/mol) =       5.92
 (included in total energy above)
 DoSCS=F DFT=T ScalE2(SS,OS)=  1.000000  1.000000
 Range of M.O.s used for correlation:     1   196
 NBasis=   196 NAE=    33 NBE=    33 NFC=     0 NFV=     0
 NROrb=    196 NOA=    33 NOB=    33 NVA=   163 NVB=   163

 **** Warning!!: The largest alpha MO coefficient is  0.71758058D+02

 Symmetrizing basis deriv contribution to polar:
 IMax=3 JMax=2 DiffMx= 0.00D+00
 G2DrvN: will do    15 centers at a time, making    1 passes.
 Calling FoFCou, ICntrl=  3107 FMM=F I1Cent=   0 AccDes= 0.00D+00.
 NEqPCM:  Using equilibrium solvation (IEInf=0, Eps=  78.3553, EpsInf=   1.7778)
 G2PCM: DoFxE=T DoFxN=T DoGrad=T DoDP/DQ/DG/TGxP=FFFF NFrqRd=   0 IEInf=0 SqF1=F DoCFld=F IF1Alg=4.
 End of G2Drv F.D. properties file   721 does not exist.
 End of G2Drv F.D. properties file   722 does not exist.
 End of G2Drv F.D. properties file   788 does not exist.
          IDoAtm=11111111111111
 NEqPCM:  Using equilibrium solvation (IEInf=0, Eps=  78.3553, EpsInf=   1.7778)
          Differentiating once with respect to nuclear coordinates.
 Keep R1 ints in memory in canonical form, NReq=235503750.
          There are    45 degrees of freedom in the 1st order CPHF.  IDoFFX=6 NUNeed=     0.
     39 vectors produced by pass  0 Test12= 1.20D-14 2.22D-09 XBig12= 1.68D-01 1.60D-01.
 AX will form    39 AO Fock derivatives at one time.
     39 vectors produced by pass  1 Test12= 1.20D-14 2.22D-09 XBig12= 3.53D-02 5.95D-02.
     39 vectors produced by pass  2 Test12= 1.20D-14 2.22D-09 XBig12= 9.04D-04 4.19D-03.
     39 vectors produced by pass  3 Test12= 1.20D-14 2.22D-09 XBig12= 7.87D-06 3.58D-04.
     39 vectors produced by pass  4 Test12= 1.20D-14 2.22D-09 XBig12= 6.81D-08 4.53D-05.
     39 vectors produced by pass  5 Test12= 1.20D-14 2.22D-09 XBig12= 3.75D-10 3.32D-06.
     31 vectors produced by pass  6 Test12= 1.20D-14 2.22D-09 XBig12= 1.51D-12 2.31D-07.
     11 vectors produced by pass  7 Test12= 1.20D-14 2.22D-09 XBig12= 5.78D-15 8.98D-09.
 InvSVY:  IOpt=1 It=  1 EMax= 1.33D-15
 Solved reduced A of dimension   276 with    39 vectors.
 End of Minotr F.D. properties file   721 does not exist.
 End of Minotr F.D. properties file   722 does not exist.
 End of Minotr F.D. properties file   788 does not exist.

 **********************************************************************

            Population analysis using the SCF Density.

 **********************************************************************

 Orbital symmetries:
       Occupied  (A) (A) (A) (A) (A) (A) (A) (A) (A) (A) (A) (A)
                 (A) (A) (A) (A) (A) (A) (A) (A) (A) (A) (A) (A)
                 (A) (A) (A) (A) (A) (A) (A) (A) (A)
       Virtual   (A) (A) (A) (A) (A) (A) (A) (A) (A) (A) (A) (A)
                 (A) (A) (A) (A) (A) (A) (A) (A) (A) (A) (A) (A)
                 (A) (A) (A) (A) (A) (A) (A) (A) (A) (A) (A) (A)
                 (A) (A) (A) (A) (A) (A) (A) (A) (A) (A) (A) (A)
                 (A) (A) (A) (A) (A) (A) (A) (A) (A) (A) (A) (A)
                 (A) (A) (A) (A) (A) (A) (A) (A) (A) (A) (A) (A)
                 (A) (A) (A) (A) (A) (A) (A) (A) (A) (A) (A) (A)
                 (A) (A) (A) (A) (A) (A) (A) (A) (A) (A) (A) (A)
                 (A) (A) (A) (A) (A) (A) (A) (A) (A) (A) (A) (A)
                 (A) (A) (A) (A) (A) (A) (A) (A) (A) (A) (A) (A)
                 (A) (A) (A) (A) (A) (A) (A) (A) (A) (A) (A) (A)
                 (A) (A) (A) (A) (A) (A) (A) (A) (A) (A) (A) (A)
                 (A) (A) (A) (A) (A) (A) (A) (A) (A) (A) (A) (A)
                 (A) (A) (A) (A) (A) (A) (A)
 The electronic state is 1-A.
 Alpha  occ. eigenvalues --  -19.64868 -19.63620 -14.89144 -14.83479 -14.82332
 Alpha  occ. eigenvalues --  -10.71808 -10.67921 -10.59793 -10.59306  -1.26547
 Alpha  occ. eigenvalues --   -1.20269  -1.12380  -1.02194  -0.94948  -0.82982
 Alpha  occ. eigenvalues --   -0.75516  -0.73330  -0.65709  -0.60375  -0.59736
 Alpha  occ. eigenvalues --   -0.56473  -0.54453  -0.54118  -0.52959  -0.51194
 Alpha  occ. eigenvalues --   -0.51144  -0.42568  -0.40467  -0.39001  -0.37967
 Alpha  occ. eigenvalues --   -0.36794  -0.35740  -0.34308
 Alpha virt. eigenvalues --   -0.07549  -0.00930   0.01841   0.03655   0.03918
 Alpha virt. eigenvalues --    0.04406   0.05939   0.06209   0.06285   0.07519
 Alpha virt. eigenvalues --    0.08558   0.09140   0.09409   0.10114   0.10812
 Alpha virt. eigenvalues --    0.11005   0.12023   0.13473   0.14974   0.15844
 Alpha virt. eigenvalues --    0.18952   0.19288   0.20804   0.21462   0.22003
 Alpha virt. eigenvalues --    0.22530   0.22667   0.23935   0.25009   0.26047
 Alpha virt. eigenvalues --    0.26480   0.27501   0.27662   0.29008   0.29767
 Alpha virt. eigenvalues --    0.30245   0.30859   0.31885   0.32166   0.32462
 Alpha virt. eigenvalues --    0.33406   0.34043   0.36242   0.37866   0.39019
 Alpha virt. eigenvalues --    0.40578   0.41677   0.45327   0.47376   0.49320
 Alpha virt. eigenvalues --    0.49963   0.55221   0.66991   0.68016   0.70293
 Alpha virt. eigenvalues --    0.71934   0.74991   0.75242   0.77245   0.81748
 Alpha virt. eigenvalues --    0.82241   0.87580   0.90137   0.91559   0.92036
 Alpha virt. eigenvalues --    0.94171   0.95474   0.96448   0.98804   1.00734
 Alpha virt. eigenvalues --    1.01753   1.02817   1.03662   1.05065   1.09975
 Alpha virt. eigenvalues --    1.11163   1.16384   1.18107   1.21613   1.24864
 Alpha virt. eigenvalues --    1.25904   1.27004   1.28783   1.30590   1.33814
 Alpha virt. eigenvalues --    1.34115   1.36545   1.38306   1.39415   1.41283
 Alpha virt. eigenvalues --    1.42305   1.43926   1.46780   1.49219   1.51264
 Alpha virt. eigenvalues --    1.55665   1.57775   1.60781   1.63638   1.67219
 Alpha virt. eigenvalues --    1.75668   1.78723   1.80557   1.85329   1.88839
 Alpha virt. eigenvalues --    1.91127   1.94199   1.95254   1.98890   2.01626
 Alpha virt. eigenvalues --    2.03383   2.04008   2.04552   2.05334   2.07450
 Alpha virt. eigenvalues --    2.08844   2.09902   2.10080   2.22366   2.23973
 Alpha virt. eigenvalues --    2.25642   2.30664   2.31235   2.31932   2.36851
 Alpha virt. eigenvalues --    2.42584   2.45389   2.49991   2.52606   2.54578
 Alpha virt. eigenvalues --    2.56096   2.59395   2.60509   2.61219   2.69109
 Alpha virt. eigenvalues --    2.71444   2.76556   2.76822   2.80636   2.80913
 Alpha virt. eigenvalues --    2.82709   2.90695   2.95833   2.98291   3.11611
 Alpha virt. eigenvalues --    3.13368   3.16540   3.25332   3.27330   3.28178
 Alpha virt. eigenvalues --    3.33055   3.44084   3.44441   3.73709   4.03383
 Alpha virt. eigenvalues --    4.24470   4.25275   4.33760   4.43083   4.46060
 Alpha virt. eigenvalues --    4.58734   4.68171   4.81186
          Condensed to atoms (all electrons):
               1          2          3          4          5          6
     1  N    7.658329  -0.081734   0.102351  -0.129259  -0.298484   0.018305
     2  N   -0.081734   7.391539   0.159265   0.130660  -0.376141  -0.057799
     3  C    0.102351   0.159265   5.394410   0.153643  -0.022863   0.395781
     4  C   -0.129259   0.130660   0.153643   5.401587   0.240407  -0.015313
     5  N   -0.298484  -0.376141  -0.022863   0.240407   7.766276  -0.003863
     6  H    0.018305  -0.057799   0.395781  -0.015313  -0.003863   0.421807
     7  H    0.010038  -0.002733  -0.017044   0.389983  -0.049530   0.000342
     8  C    0.026495  -0.033487  -0.020842   0.004150   0.009612  -0.001273
     9  C    0.018295   0.053740   0.004129  -0.007186  -0.063392   0.000788
    10  O   -0.006388  -0.146787   0.009748  -0.010066   0.047459   0.000100
    11  O   -0.061133   0.028330  -0.009682   0.005980  -0.045135   0.000037
    12  H    0.000606  -0.006904  -0.001569   0.000921  -0.001339  -0.000011
    13  H    0.000422   0.006064  -0.002163   0.000513  -0.000282  -0.000005
    14  H   -0.009408  -0.037463  -0.001814   0.004250  -0.000065   0.000308
               7          8          9         10         11         12
     1  N    0.010038   0.026495   0.018295  -0.006388  -0.061133   0.000606
     2  N   -0.002733  -0.033487   0.053740  -0.146787   0.028330  -0.006904
     3  C   -0.017044  -0.020842   0.004129   0.009748  -0.009682  -0.001569
     4  C    0.389983   0.004150  -0.007186  -0.010066   0.005980   0.000921
     5  N   -0.049530   0.009612  -0.063392   0.047459  -0.045135  -0.001339
     6  H    0.000342  -0.001273   0.000788   0.000100   0.000037  -0.000011
     7  H    0.433063  -0.000147   0.000828   0.000029  -0.000060   0.000000
     8  C   -0.000147   4.964242  -0.023455   0.016100   0.005201   0.378373
     9  C    0.000828  -0.023455   4.457819   0.291627   0.420727   0.000937
    10  O    0.000029   0.016100   0.291627   8.542985  -0.100493  -0.010061
    11  O   -0.000060   0.005201   0.420727  -0.100493   8.399619   0.000035
    12  H    0.000000   0.378373   0.000937  -0.010061   0.000035   0.394448
    13  H   -0.000000   0.384138   0.006554  -0.041353  -0.000418  -0.015913
    14  H    0.000001   0.388774   0.000002   0.005181  -0.000069  -0.017682
              13         14
     1  N    0.000422  -0.009408
     2  N    0.006064  -0.037463
     3  C   -0.002163  -0.001814
     4  C    0.000513   0.004250
     5  N   -0.000282  -0.000065
     6  H   -0.000005   0.000308
     7  H   -0.000000   0.000001
     8  C    0.384138   0.388774
     9  C    0.006554   0.000002
    10  O   -0.041353   0.005181
    11  O   -0.000418  -0.000069
    12  H   -0.015913  -0.017682
    13  H    0.416218  -0.023273
    14  H   -0.023273   0.423365
 Mulliken charges:
               1
     1  N   -0.248434
     2  N   -0.026551
     3  C   -0.143349
     4  C   -0.170269
     5  N   -0.202659
     6  H    0.240796
     7  H    0.235230
     8  C   -0.097882
     9  C    0.838585
    10  O   -0.598082
    11  O   -0.642939
    12  H    0.278159
    13  H    0.269500
    14  H    0.267894
 Sum of Mulliken charges =  -0.00000
 Mulliken charges with hydrogens summed into heavy atoms:
               1
     1  N   -0.248434
     2  N   -0.026551
     3  C    0.097447
     4  C    0.064962
     5  N   -0.202659
     8  C    0.717671
     9  C    0.838585
    10  O   -0.598082
    11  O   -0.642939
 APT charges:
               1
     1  N   -0.645586
     2  N   -0.030294
     3  C   -0.420580
     4  C   -0.471959
     5  N   -0.161857
     6  H    0.718464
     7  H    0.820115
     8  C   -0.904731
     9  C    0.350642
    10  O   -0.359393
    11  O   -0.338529
    12  H    0.417439
    13  H    0.586508
    14  H    0.439760
 Sum of APT charges =  -0.00000
 APT charges with hydrogens summed into heavy atoms:
               1
     1  N   -0.645586
     2  N   -0.030294
     3  C    0.297884
     4  C    0.348156
     5  N   -0.161857
     8  C    0.538976
     9  C    0.350642
    10  O   -0.359393
    11  O   -0.338529
 Electronic spatial extent (au):  <R**2>=           1079.4179
 Charge=             -0.0000 electrons
 Dipole moment (field-independent basis, Debye):
    X=              3.4887    Y=             13.4736    Z=              0.2743  Tot=             13.9207
 Quadrupole moment (field-independent basis, Debye-Ang):
   XX=            -46.0901   YY=            -48.8115   ZZ=            -51.0513
   XY=            -11.5986   XZ=             -0.4980   YZ=              0.5686
 Traceless Quadrupole moment (field-independent basis, Debye-Ang):
   XX=              2.5609   YY=             -0.1606   ZZ=             -2.4003
   XY=            -11.5986   XZ=             -0.4980   YZ=              0.5686
 Octapole moment (field-independent basis, Debye-Ang**2):
  XXX=             34.9995  YYY=             86.9315  ZZZ=              1.8572  XYY=             -8.9286
  XXY=             35.5921  XXZ=             -0.1271  XZZ=             -7.8470  YZZ=              3.2694
  YYZ=             -0.3334  XYZ=             -1.1182
 Hexadecapole moment (field-independent basis, Debye-Ang**3):
 XXXX=           -684.4885 YYYY=           -537.1771 ZZZZ=            -54.9318 XXXY=            -49.1970
 XXXZ=              4.2759 YYYX=            -67.9610 YYYZ=             -0.4837 ZZZX=             -2.7502
 ZZZY=              4.0453 XXYY=           -190.3906 XXZZ=           -142.7529 YYZZ=           -100.3571
 XXYZ=             -0.9124 YYXZ=             -2.2747 ZZXY=             -6.1648
 N-N= 4.421665808991D+02 E-N=-1.981983469242D+03  KE= 4.659217997706D+02
  Exact polarizability:       0.000       0.000       0.000       0.000       0.000       0.000
 Approx polarizability:     107.090       0.437     113.403       0.499      -1.139      55.282
 D2PCM: PCM CHGder 2nd derivatives, FixD1E=F FixD2E=F DoIter=F DoCFld=F I1PDM=0
 Calling FoFJK, ICntrl=    100127 FMM=F ISym2X=0 I1Cent= 0 IOpClX= 0 NMat=1 NMatS=1 NMatT=0.
 ***** Axes restored to original set *****
 -------------------------------------------------------------------
 Center     Atomic                   Forces (Hartrees/Bohr)
 Number     Number              X              Y              Z
 -------------------------------------------------------------------
      1        7           0.000052781   -0.000014794   -0.000062697
      2        7          -0.000061228   -0.000069893    0.000022305
      3        6          -0.000006053   -0.000003331    0.000091046
      4        6          -0.000005283   -0.000014397   -0.000072044
      5        7           0.000009832   -0.000019432   -0.000016932
      6        1           0.000003483   -0.000001788   -0.000039170
      7        1           0.000002237   -0.000000192    0.000023082
      8        6          -0.000133630    0.000248931    0.000207982
      9        6          -0.000072768    0.000033874    0.000007353
     10        8           0.000116809   -0.000004449    0.000167717
     11        8           0.000004397   -0.000062228   -0.000064419
     12        1           0.000096157   -0.000147968    0.000001182
     13        1           0.000065146   -0.000036524   -0.000217777
     14        1          -0.000071880    0.000092191   -0.000047627
 -------------------------------------------------------------------
 Cartesian Forces:  Max     0.000248931 RMS     0.000086213
 FormGI is forming the generalized inverse of G from B-inverse, IUseBI=4.

 GradGradGradGradGradGradGradGradGradGradGradGradGradGradGradGradGradGrad
 Berny optimization.
 Internal  Forces:  Max     0.000164317 RMS     0.000050580
 Search for a saddle point.
 Step number   1 out of a maximum of   81
 All quantities printed in internal units (Hartrees-Bohrs-Radians)
 Swapping is turned off.
 Second derivative matrix not updated -- analytic derivatives used.
 ITU=  0
     Eigenvalues ---   -0.11433   0.00054   0.00092   0.00371   0.00751
     Eigenvalues ---    0.01410   0.01502   0.02062   0.02738   0.03217
     Eigenvalues ---    0.04325   0.05566   0.05751   0.06270   0.06894
     Eigenvalues ---    0.07254   0.09119   0.10366   0.10863   0.15011
     Eigenvalues ---    0.20480   0.22646   0.25630   0.32758   0.35043
     Eigenvalues ---    0.36471   0.38341   0.38530   0.38726   0.39613
     Eigenvalues ---    0.40368   0.44215   0.52898   0.54203   0.58852
     Eigenvalues ---    0.82942
 Eigenvectors required to have negative eigenvalues:
                          R10       A24       A15       A6        A5
   1                    0.51005  -0.40793   0.36208  -0.32685   0.30805
                          A23       R5        D26       A22       D27
   1                   -0.20834  -0.18523   0.14509  -0.14483   0.14296
 RFO step:  Lambda0=8.770272773D-08 Lambda=-1.70721798D-05.
 Linear search not attempted -- option 19 set.
 Iteration  1 RMS(Cart)=  0.01462292 RMS(Int)=  0.00044072
 Iteration  2 RMS(Cart)=  0.00034980 RMS(Int)=  0.00025908
 Iteration  3 RMS(Cart)=  0.00000027 RMS(Int)=  0.00025908
 Variable       Old X    -DE/DX   Delta X   Delta X   Delta X     New X
                                 (Linear)    (Quad)   (Total)
    R1        2.49231   0.00002   0.00000   0.00033   0.00055   2.49286
    R2        2.49964   0.00001   0.00000   0.00011   0.00009   2.49974
    R3        2.77453  -0.00003   0.00000  -0.00011  -0.00001   2.77453
    R4        2.50397   0.00001   0.00000   0.00009   0.00008   2.50404
    R5        4.26154   0.00011   0.00000  -0.00003   0.00019   4.26173
    R6        2.66015   0.00002   0.00000  -0.00001   0.00003   2.66018
    R7        2.04038   0.00000   0.00000  -0.00000  -0.00000   2.04038
    R8        2.51006  -0.00002   0.00000  -0.00009  -0.00006   2.51001
    R9        2.03950   0.00000   0.00000  -0.00000  -0.00000   2.03950
   R10        4.23466   0.00006   0.00000  -0.00239  -0.00292   4.23174
   R11        2.04419  -0.00001   0.00000  -0.00014  -0.00014   2.04404
   R12        2.03918  -0.00000   0.00000   0.00049   0.00114   2.04032
   R13        2.03854  -0.00002   0.00000   0.00001  -0.00016   2.03839
   R14        2.36659  -0.00004   0.00000  -0.00011  -0.00029   2.36630
   R15        2.32253   0.00006   0.00000   0.00020   0.00020   2.32274
   R16        4.00292   0.00001   0.00000   0.01336   0.01332   4.01624
    A1        2.00290   0.00004   0.00000   0.00025   0.00024   2.00314
    A2        2.09426  -0.00004   0.00000   0.00044   0.00037   2.09463
    A3        2.18602  -0.00000   0.00000  -0.00068  -0.00061   2.18541
    A4        1.83754  -0.00004   0.00000  -0.00051  -0.00053   1.83700
    A5        2.39799   0.00007   0.00000   0.00080   0.00071   2.39870
    A6        2.03013  -0.00002   0.00000  -0.00136  -0.00129   2.02884
    A7        1.87097   0.00002   0.00000   0.00041   0.00042   1.87139
    A8        2.13006  -0.00001   0.00000  -0.00013  -0.00013   2.12993
    A9        2.28215  -0.00001   0.00000  -0.00028  -0.00028   2.28187
   A10        1.89682   0.00000   0.00000  -0.00011  -0.00007   1.89675
   A11        2.26472  -0.00000   0.00000   0.00011   0.00009   2.26481
   A12        2.12164  -0.00000   0.00000   0.00000  -0.00002   2.12163
   A13        1.81654  -0.00002   0.00000  -0.00004  -0.00004   1.81650
   A14        1.54714  -0.00016   0.00000  -0.02099  -0.02103   1.52611
   A15        2.29467   0.00004   0.00000   0.01096   0.01064   2.30531
   A16        2.07750   0.00014   0.00000   0.00275   0.00301   2.08051
   A17        2.07296   0.00007   0.00000   0.00085   0.00093   2.07389
   A18        2.05955  -0.00012   0.00000  -0.00089  -0.00112   2.05843
   A19        1.96037  -0.00003   0.00000   0.00033  -0.00020   1.96017
   A20        2.03313   0.00000   0.00000  -0.00000   0.00026   2.03339
   A21        2.28968   0.00003   0.00000  -0.00033  -0.00006   2.28962
   A22        2.17612   0.00005   0.00000   0.00545   0.00580   2.18193
   A23        2.58132  -0.00001   0.00000  -0.01560  -0.01618   2.56514
   A24        1.42320  -0.00007   0.00000   0.00867   0.00821   1.43141
    D1       -0.00082  -0.00000   0.00000   0.00067   0.00064  -0.00018
    D2        2.92140   0.00000   0.00000  -0.00624  -0.00636   2.91504
    D3       -3.13939  -0.00003   0.00000  -0.00214  -0.00207  -3.14147
    D4       -0.21717  -0.00002   0.00000  -0.00904  -0.00908  -0.22625
    D5        0.00088  -0.00000   0.00000  -0.00055  -0.00051   0.00037
    D6        3.13927   0.00002   0.00000   0.00243   0.00237  -3.14154
    D7        0.00242   0.00004   0.00000  -0.00119  -0.00142   0.00101
    D8       -3.13895   0.00002   0.00000  -0.00109  -0.00131  -3.14026
    D9       -3.13581   0.00001   0.00000  -0.00431  -0.00444  -3.14025
   D10        0.00601  -0.00000   0.00000  -0.00421  -0.00433   0.00167
   D11        0.00040   0.00000   0.00000  -0.00049  -0.00049  -0.00009
   D12       -3.14000  -0.00001   0.00000  -0.00172  -0.00173   3.14145
   D13       -2.97609  -0.00001   0.00000   0.00442   0.00450  -2.97159
   D14        0.16669  -0.00003   0.00000   0.00319   0.00326   0.16994
   D15        0.59818  -0.00002   0.00000  -0.01805  -0.01788   0.58030
   D16       -2.77980  -0.00001   0.00000  -0.02538  -0.02532  -2.80513
   D17        0.00011  -0.00001   0.00000   0.00018   0.00021   0.00031
   D18        3.14039   0.00002   0.00000   0.00116   0.00115   3.14154
   D19        3.14037   0.00001   0.00000   0.00156   0.00160  -3.14121
   D20       -0.00253   0.00003   0.00000   0.00254   0.00254   0.00001
   D21       -0.00057   0.00001   0.00000   0.00020   0.00017  -0.00040
   D22       -3.14098  -0.00001   0.00000  -0.00068  -0.00068   3.14153
   D23       -1.50030   0.00007   0.00000  -0.04884  -0.04905  -1.54935
   D24        0.74138   0.00001   0.00000  -0.06350  -0.06398   0.67740
   D25       -0.64258   0.00004   0.00000   0.03763   0.03799  -0.60459
   D26        1.39428  -0.00011   0.00000   0.01455   0.01453   1.40880
   D27       -2.15235   0.00015   0.00000   0.02234   0.02271  -2.12964
   D28       -0.08067  -0.00003   0.00000   0.02191   0.02243  -0.05824
   D29        0.35105   0.00010   0.00000   0.06232   0.06154   0.41258
   D30        3.06066  -0.00002   0.00000   0.02180   0.02231   3.08296
   D31       -2.79081   0.00011   0.00000   0.06221   0.06141  -2.72940
         Item               Value     Threshold  Converged?
 Maximum Force            0.000164     0.000450     YES
 RMS     Force            0.000051     0.000300     YES
 Maximum Displacement     0.066681     0.001800     NO 
 RMS     Displacement     0.014581     0.001200     NO 
 Predicted change in Energy=-8.661914D-06
 GradGradGradGradGradGradGradGradGradGradGradGradGradGradGradGradGradGrad

                          Input orientation:                          
 ---------------------------------------------------------------------
 Center     Atomic      Atomic             Coordinates (Angstroms)
 Number     Number       Type             X           Y           Z
 ---------------------------------------------------------------------
      1          7           0        0.280378   -0.381003   -0.004139
      2          7           0        0.476344    0.923356   -0.024994
      3          6           0        1.792336    1.078257   -0.020930
      4          6           0        2.363365   -0.208196    0.003621
      5          7           0        1.385788   -1.107344    0.013405
      6          1           0        2.254214    2.054099   -0.035070
      7          1           0        3.401667   -0.502506    0.013795
      8          6           0       -1.519992    2.181514    0.047264
      9          6           0       -1.085935   -0.918444   -0.002211
     10          8           0       -1.952298   -0.014580   -0.023025
     11          8           0       -1.193802   -2.142655    0.019224
     12          1           0       -1.557997    2.105212    1.125561
     13          1           0       -2.416369    1.997574   -0.525799
     14          1           0       -0.745225    2.780654   -0.404724
 ---------------------------------------------------------------------
                    Distance matrix (angstroms):
                    1          2          3          4          5
     1  N    0.000000
     2  N    1.319163   0.000000
     3  C    2.101365   1.325083   0.000000
     4  C    2.090157   2.200472   1.407706   0.000000
     5  N    1.322804   2.225377   2.223355   1.328239   0.000000
     6  H    3.134758   2.107013   1.079722   2.265256   3.278907
     7  H    3.123704   3.254551   2.256094   1.079256   2.104661
     8  C    3.132166   2.360834   3.491896   4.559942   4.388768
     9  C    1.468216   2.415256   3.503086   3.521670   2.478980
    10  O    2.262624   2.603465   3.900843   4.320086   3.512589
    11  O    2.297209   3.491670   4.392369   4.049175   2.779602
    12  H    3.291976   2.618989   3.686978   4.689102   4.497029
    13  H    3.633484   3.126106   4.337423   5.290706   4.938386
    14  H    3.347896   2.255212   3.079719   4.331662   4.453378
                    6          7          8          9         10
     6  H    0.000000
     7  H    2.802724   0.000000
     8  C    3.777253   5.606051   0.000000
     9  C    4.471430   4.506865   3.130589   0.000000
    10  O    4.687677   5.376278   2.239343   1.252193   0.000000
    11  O    5.431804   4.879391   4.336544   1.229140   2.259602
    12  H    3.985302   5.712660   1.081661   3.261473   2.442998
    13  H    4.696632   6.355400   1.079688   3.247670   2.125301
    14  H    3.108240   5.305752   1.078669   3.736499   3.068559
                   11         12         13         14
    11  O    0.000000
    12  H    4.404655   0.000000
    13  H    4.351231   1.864237   0.000000
    14  H    4.961847   1.859729   1.849486   0.000000
 Stoichiometry    C4H5N3O2
 Framework group  C1[X(C4H5N3O2)]
 Deg. of freedom    36
 Full point group                 C1      NOp   1
 Largest Abelian subgroup         C1      NOp   1
 Largest concise Abelian subgroup C1      NOp   1
                         Standard orientation:                         
 ---------------------------------------------------------------------
 Center     Atomic      Atomic             Coordinates (Angstroms)
 Number     Number       Type             X           Y           Z
 ---------------------------------------------------------------------
      1          7           0        0.281617   -0.379717   -0.006022
      2          7           0        0.470190    0.925739   -0.026405
      3          6           0        1.785249    1.088172   -0.017366
      4          6           0        2.363535   -0.194985    0.009627
      5          7           0        1.391092   -1.099713    0.015880
      6          1           0        2.241583    2.066640   -0.029953
      7          1           0        3.403459   -0.483344    0.023813
      8          6           0       -1.533576    2.172460    0.037993
      9          6           0       -1.081595   -0.924971   -0.009180
     10          8           0       -1.953033   -0.026086   -0.033480
     11          8           0       -1.182533   -2.149775    0.012101
     12          1           0       -1.575247    2.096144    1.116154
     13          1           0       -2.426698    1.983284   -0.538438
     14          1           0       -0.760536    2.775941   -0.411169
 ---------------------------------------------------------------------
 Rotational constants (GHZ):           2.4324925           1.7404858           1.0218439
 Standard basis: 6-31+G(d,p) (6D, 7F)
 There are   196 symmetry adapted cartesian basis functions of A   symmetry.
 There are   196 symmetry adapted basis functions of A   symmetry.
   196 basis functions,   323 primitive gaussians,   196 cartesian basis functions
    33 alpha electrons       33 beta electrons
       nuclear repulsion energy       442.0349795014 Hartrees.
 NAtoms=   14 NActive=   14 NUniq=   14 SFac= 1.00D+00 NAtFMM=   60 NAOKFM=F Big=F
 Integral buffers will be    131072 words long.
 Raffenetti 2 integral format.
 Two-electron integral symmetry is turned on.
 ------------------------------------------------------------------------------
 Polarizable Continuum Model (PCM)
 =================================
 Model                : PCM.
 Atomic radii         : SMD-Coulomb.
 Polarization charges : Total charges.
 Charge compensation  : None.
 Solution method      : Matrix inversion.
 Cavity type          : VdW (van der Waals Surface) (Alpha=1.000).
 Cavity algorithm     : GePol (No added spheres)
                        Default sphere list used, NSphG=   14.
                        Lebedev-Laikov grids with approx.  5.0 points / Ang**2.
                        Smoothing algorithm: York/Karplus (Gamma=1.0000).
                        Polarization charges: spherical gaussians, with
                                              point-specific exponents (IZeta= 3).
                        Self-potential: point-specific (ISelfS= 7).
                        Self-field    : sphere-specific E.n sum rule (ISelfD= 2).
 1st derivatives      : Analytical E(r).r(x)/FMM algorithm (CHGder, D1EAlg=3).
                        Cavity 1st derivative terms included.
 Solvent              : Water, Eps=  78.355300 Eps(inf)=   1.777849
 ------------------------------------------------------------------------------
 Spheres list:
 ISph  on   Nord     Re0    Alpha      Xe            Ye            Ze
    1   N      1    1.8900  1.000      0.281617     -0.379717     -0.006022
    2   N      2    1.8900  1.000      0.470190      0.925739     -0.026405
    3   C      3    1.8500  1.000      1.785249      1.088172     -0.017366
    4   C      4    1.8500  1.000      2.363535     -0.194985      0.009627
    5   N      5    1.8900  1.000      1.391092     -1.099713      0.015880
    6   H      6    1.2000  1.000      2.241583      2.066640     -0.029953
    7   H      7    1.2000  1.000      3.403459     -0.483344      0.023813
    8   C      8    1.8500  1.000     -1.533576      2.172460      0.037993
    9   C      9    1.8500  1.000     -1.081595     -0.924971     -0.009180
   10   O     10    1.5200  1.000     -1.953033     -0.026086     -0.033480
   11   O     11    1.5200  1.000     -1.182533     -2.149775      0.012101
   12   H     12    1.2000  1.000     -1.575247      2.096144      1.116154
   13   H     13    1.2000  1.000     -2.426698      1.983284     -0.538438
   14   H     14    1.2000  1.000     -0.760536      2.775941     -0.411169
 ------------------------------------------------------------------------------
 ------------------------------------------------------------------------------
 Atomic radii for non-electrostatic terms: SMD-CDS.
 ------------------------------------------------------------------------------
 Nuclear repulsion after PCM non-electrostatic terms =      442.0444186855 Hartrees.
 One-electron integrals computed using PRISM.
 NBasis=   196 RedAO= T EigKep=  2.06D-05  NBF=   196
 NBsUse=   196 1.00D-06 EigRej= -1.00D+00 NBFU=   196
 Initial guess from the checkpoint file:  "/home/gau/soft/scratch/Gau-12337.chk"
 B after Tr=    -0.000000   -0.000000   -0.000000
         Rot=    0.999996   -0.000013    0.000369   -0.002766 Ang=  -0.32 deg.
 ExpMin= 4.38D-02 ExpMax= 5.48D+03 ExpMxC= 8.25D+02 IAcc=3 IRadAn=         5 AccDes= 0.00D+00
 Harris functional with IExCor= 1009 and IRadAn=       5 diagonalized for initial guess.
 HarFok:  IExCor= 1009 AccDes= 0.00D+00 IRadAn=         5 IDoV= 1 UseB2=F ITyADJ=14
 ICtDFT=  3500011 ScaDFX=  1.000000  1.000000  1.000000  1.000000
 FoFCou: FMM=F IPFlag=           0 FMFlag=      100000 FMFlg1=           0
         NFxFlg=           0 DoJE=T BraDBF=F KetDBF=T FulRan=T
         wScrn=  0.000000 ICntrl=       500 IOpCl=  0 I1Cent=   200000004 NGrid=           0
         NMat0=    1 NMatS0=      1 NMatT0=    0 NMatD0=    1 NMtDS0=    0 NMtDT0=    0
 Petite list used in FoFCou.
 Requested convergence on RMS density matrix=1.00D-08 within 128 cycles.
 Requested convergence on MAX density matrix=1.00D-06.
 Requested convergence on             energy=1.00D-06.
 No special actions if energy rises.
 Inv3:  Mode=1 IEnd=     4450572.
 Iteration    1 A*A^-1 deviation from unit magnitude is 3.33D-15 for   1213.
 Iteration    1 A*A^-1 deviation from orthogonality  is 2.07D-15 for    850     12.
 Iteration    1 A^-1*A deviation from unit magnitude is 3.33D-15 for   1213.
 Iteration    1 A^-1*A deviation from orthogonality  is 9.51D-16 for    130    114.
 Error on total polarization charges =  0.03968
 SCF Done:  E(RM062X) =  -469.853169693     A.U. after   11 cycles
            NFock= 11  Conv=0.82D-08     -V/T= 2.0084
 SMD-CDS (non-electrostatic) energy       (kcal/mol) =       5.92
 (included in total energy above)
 D1PCM: PCM CHGder 1st derivatives, ID1Alg=3 FixD1E=F DoIter=F DoCFld=F I1PDM=0.
 Calling FoFJK, ICntrl=      2127 FMM=F ISym2X=0 I1Cent= 0 IOpClX= 0 NMat=1 NMatS=1 NMatT=0.
 ***** Axes restored to original set *****
 -------------------------------------------------------------------
 Center     Atomic                   Forces (Hartrees/Bohr)
 Number     Number              X              Y              Z
 -------------------------------------------------------------------
      1        7           0.000055659    0.000024565   -0.000012302
      2        7           0.000002962   -0.000096140   -0.000004496
      3        6           0.000000446   -0.000030092    0.000004279
      4        6          -0.000005918   -0.000001502   -0.000014728
      5        7           0.000012284    0.000057553   -0.000006098
      6        1           0.000000996    0.000005442    0.000007684
      7        1           0.000008263    0.000000464   -0.000012411
      8        6          -0.000210695   -0.000115681   -0.000118662
      9        6           0.000043094    0.000021798   -0.000006255
     10        8          -0.000135438   -0.000010031    0.000000231
     11        8           0.000021472    0.000006646   -0.000020736
     12        1          -0.000028051    0.000041223    0.000008502
     13        1           0.000181805    0.000043568    0.000164187
     14        1           0.000053122    0.000052189    0.000010804
 -------------------------------------------------------------------
 Cartesian Forces:  Max     0.000210695 RMS     0.000065801

 GradGradGradGradGradGradGradGradGradGradGradGradGradGradGradGradGradGrad
 Berny optimization.
 FormGI is forming the generalized inverse of G from B-inverse, IUseBI=4.
 Internal  Forces:  Max     0.000190071 RMS     0.000034469
 Search for a saddle point.
 Step number   2 out of a maximum of   81
 All quantities printed in internal units (Hartrees-Bohrs-Radians)
 Swapping is turned off.
 Update second derivatives using D2CorX and points    1    2
 ITU=  0  0
     Eigenvalues ---   -0.11428   0.00048   0.00094   0.00371   0.00751
     Eigenvalues ---    0.01410   0.01502   0.02063   0.02738   0.03217
     Eigenvalues ---    0.04325   0.05566   0.05752   0.06269   0.06895
     Eigenvalues ---    0.07253   0.09110   0.10366   0.10863   0.15011
     Eigenvalues ---    0.20477   0.22646   0.25630   0.32755   0.35041
     Eigenvalues ---    0.36463   0.38341   0.38530   0.38725   0.39612
     Eigenvalues ---    0.40368   0.44215   0.52898   0.54202   0.58852
     Eigenvalues ---    0.82942
 Eigenvectors required to have negative eigenvalues:
                          R10       A24       A15       A6        A5
   1                    0.50630  -0.41074   0.36552  -0.32565   0.30648
                          A23       R5        D27       D26       A22
   1                   -0.20848  -0.18363   0.14663   0.14527  -0.14343
 RFO step:  Lambda0=7.018908121D-09 Lambda=-5.23365957D-07.
 Linear search not attempted -- option 19 set.
 Iteration  1 RMS(Cart)=  0.00151823 RMS(Int)=  0.00000346
 Iteration  2 RMS(Cart)=  0.00000274 RMS(Int)=  0.00000160
 Iteration  3 RMS(Cart)=  0.00000000 RMS(Int)=  0.00000160
 Variable       Old X    -DE/DX   Delta X   Delta X   Delta X     New X
                                 (Linear)    (Quad)   (Total)
    R1        2.49286  -0.00006   0.00000  -0.00019  -0.00018   2.49267
    R2        2.49974  -0.00001   0.00000  -0.00001  -0.00001   2.49972
    R3        2.77453   0.00004   0.00000   0.00007   0.00007   2.77460
    R4        2.50404   0.00001   0.00000   0.00002   0.00002   2.50407
    R5        4.26173   0.00004   0.00000  -0.00018  -0.00018   4.26155
    R6        2.66018  -0.00002   0.00000  -0.00005  -0.00005   2.66013
    R7        2.04038   0.00000   0.00000   0.00001   0.00001   2.04039
    R8        2.51001  -0.00003   0.00000  -0.00004  -0.00004   2.50997
    R9        2.03950   0.00001   0.00000   0.00002   0.00002   2.03952
   R10        4.23174  -0.00001   0.00000   0.00050   0.00050   4.23224
   R11        2.04404  -0.00001   0.00000   0.00001   0.00001   2.04406
   R12        2.04032  -0.00019   0.00000  -0.00058  -0.00058   2.03974
   R13        2.03839   0.00007   0.00000   0.00015   0.00015   2.03854
   R14        2.36630   0.00007   0.00000   0.00009   0.00009   2.36640
   R15        2.32274  -0.00001   0.00000  -0.00000  -0.00000   2.32273
   R16        4.01624  -0.00001   0.00000  -0.00015  -0.00015   4.01609
    A1        2.00314  -0.00001   0.00000  -0.00001  -0.00001   2.00313
    A2        2.09463  -0.00001   0.00000   0.00001   0.00000   2.09464
    A3        2.18541   0.00002   0.00000   0.00000   0.00000   2.18542
    A4        1.83700   0.00000   0.00000   0.00003   0.00003   1.83703
    A5        2.39870  -0.00000   0.00000  -0.00065  -0.00066   2.39804
    A6        2.02884  -0.00000   0.00000  -0.00015  -0.00016   2.02868
    A7        1.87139   0.00001   0.00000  -0.00001  -0.00001   1.87138
    A8        2.12993  -0.00000   0.00000   0.00000  -0.00000   2.12993
    A9        2.28187  -0.00000   0.00000   0.00001   0.00001   2.28187
   A10        1.89675  -0.00002   0.00000  -0.00005  -0.00005   1.89671
   A11        2.26481   0.00001   0.00000   0.00004   0.00004   2.26485
   A12        2.12163   0.00001   0.00000   0.00000   0.00000   2.12163
   A13        1.81650   0.00002   0.00000   0.00004   0.00003   1.81653
   A14        1.52611   0.00005   0.00000   0.00077   0.00076   1.52687
   A15        2.30531  -0.00003   0.00000  -0.00022  -0.00022   2.30509
   A16        2.08051  -0.00001   0.00000  -0.00027  -0.00027   2.08024
   A17        2.07389  -0.00002   0.00000  -0.00030  -0.00030   2.07359
   A18        2.05843   0.00001   0.00000   0.00038   0.00038   2.05881
   A19        1.96017   0.00004   0.00000   0.00030   0.00029   1.96046
   A20        2.03339  -0.00004   0.00000  -0.00021  -0.00020   2.03319
   A21        2.28962   0.00000   0.00000  -0.00009  -0.00009   2.28953
   A22        2.18193  -0.00003   0.00000  -0.00008  -0.00008   2.18185
   A23        2.56514  -0.00007   0.00000  -0.00173  -0.00173   2.56341
   A24        1.43141   0.00003   0.00000   0.00041   0.00040   1.43181
    D1       -0.00018  -0.00000   0.00000   0.00008   0.00008  -0.00010
    D2        2.91504  -0.00001   0.00000  -0.00458  -0.00458   2.91046
    D3       -3.14147   0.00000   0.00000   0.00006   0.00006  -3.14141
    D4       -0.22625  -0.00000   0.00000  -0.00459  -0.00459  -0.23084
    D5        0.00037   0.00000   0.00000  -0.00007  -0.00007   0.00030
    D6       -3.14154  -0.00001   0.00000  -0.00005  -0.00005   3.14159
    D7        0.00101  -0.00002   0.00000  -0.00018  -0.00019   0.00082
    D8       -3.14026  -0.00002   0.00000  -0.00023  -0.00023  -3.14049
    D9       -3.14025  -0.00001   0.00000  -0.00020  -0.00020  -3.14045
   D10        0.00167  -0.00002   0.00000  -0.00025  -0.00025   0.00142
   D11       -0.00009   0.00000   0.00000  -0.00005  -0.00005  -0.00013
   D12        3.14145   0.00000   0.00000  -0.00006  -0.00006   3.14138
   D13       -2.97159   0.00001   0.00000   0.00353   0.00353  -2.96806
   D14        0.16994   0.00001   0.00000   0.00351   0.00352   0.17346
   D15        0.58030   0.00001   0.00000   0.00397   0.00397   0.58427
   D16       -2.80513   0.00000   0.00000  -0.00103  -0.00103  -2.80616
   D17        0.00031  -0.00000   0.00000   0.00001   0.00001   0.00032
   D18        3.14154  -0.00000   0.00000   0.00001   0.00001   3.14155
   D19       -3.14121   0.00000   0.00000   0.00003   0.00003  -3.14119
   D20        0.00001   0.00000   0.00000   0.00003   0.00003   0.00004
   D21       -0.00040   0.00000   0.00000   0.00003   0.00003  -0.00037
   D22        3.14153   0.00000   0.00000   0.00003   0.00003   3.14156
   D23       -1.54935  -0.00005   0.00000  -0.00473  -0.00473  -1.55408
   D24        0.67740  -0.00004   0.00000  -0.00447  -0.00448   0.67292
   D25       -0.60459   0.00001   0.00000   0.00041   0.00041  -0.60418
   D26        1.40880   0.00004   0.00000   0.00110   0.00110   1.40991
   D27       -2.12964  -0.00001   0.00000   0.00053   0.00054  -2.12910
   D28       -0.05824   0.00002   0.00000   0.00371   0.00371  -0.05453
   D29        0.41258  -0.00006   0.00000   0.00566   0.00566   0.41824
   D30        3.08296   0.00003   0.00000   0.00376   0.00377   3.08673
   D31       -2.72940  -0.00005   0.00000   0.00572   0.00572  -2.72368
         Item               Value     Threshold  Converged?
 Maximum Force            0.000190     0.000450     YES
 RMS     Force            0.000034     0.000300     YES
 Maximum Displacement     0.005616     0.001800     NO 
 RMS     Displacement     0.001519     0.001200     NO 
 Predicted change in Energy=-2.582149D-07
 GradGradGradGradGradGradGradGradGradGradGradGradGradGradGradGradGradGrad

                          Input orientation:                          
 ---------------------------------------------------------------------
 Center     Atomic      Atomic             Coordinates (Angstroms)
 Number     Number       Type             X           Y           Z
 ---------------------------------------------------------------------
      1          7           0        0.280487   -0.381062   -0.003741
      2          7           0        0.476441    0.923227   -0.022867
      3          6           0        1.792447    1.078138   -0.019613
      4          6           0        2.363491   -0.208319    0.002698
      5          7           0        1.385900   -1.107428    0.011979
      6          1           0        2.254306    2.054009   -0.032767
      7          1           0        3.401797   -0.502686    0.011662
      8          6           0       -1.520248    2.181657    0.046420
      9          6           0       -1.085865   -0.918507   -0.001592
     10          8           0       -1.952533   -0.014821   -0.020265
     11          8           0       -1.193479   -2.142770    0.017912
     12          1           0       -1.559347    2.108183    1.124882
     13          1           0       -2.416003    1.996486   -0.526643
     14          1           0       -0.744922    2.779829   -0.406085
 ---------------------------------------------------------------------
                    Distance matrix (angstroms):
                    1          2          3          4          5
     1  N    0.000000
     2  N    1.319065   0.000000
     3  C    2.101319   1.325096   0.000000
     4  C    2.090164   2.200456   1.407680   0.000000
     5  N    1.322797   2.225283   2.223281   1.328219   0.000000
     6  H    3.134705   2.107029   1.079727   2.265239   3.278843
     7  H    3.123717   3.254555   2.256101   1.079265   2.104651
     8  C    3.132521   2.361189   3.492286   4.560408   4.389186
     9  C    1.468254   2.415210   3.503085   3.521710   2.479012
    10  O    2.262915   2.603815   3.901210   4.320420   3.512828
    11  O    2.297098   3.491508   4.392199   4.048995   2.779418
    12  H    3.294711   2.620284   3.688548   4.691923   4.500354
    13  H    3.632797   3.126005   4.337222   5.290078   4.937495
    14  H    3.347323   2.255118   3.079506   4.331093   4.452633
                    6          7          8          9         10
     6  H    0.000000
     7  H    2.802748   0.000000
     8  C    3.777542   5.606553   0.000000
     9  C    4.471417   4.506906   3.130816   0.000000
    10  O    4.688039   5.376606   2.239605   1.252242   0.000000
    11  O    5.431642   4.879188   4.336849   1.229138   2.259599
    12  H    3.985855   5.715667   1.081669   3.264044   2.443994
    13  H    4.696701   6.354717   1.079383   3.246864   2.125224
    14  H    3.108304   5.305158   1.078750   3.735980   3.068753
                   11         12         13         14
    11  O    0.000000
    12  H    4.407930   0.000000
    13  H    4.350235   1.863833   0.000000
    14  H    4.961144   1.859639   1.849505   0.000000
 Stoichiometry    C4H5N3O2
 Framework group  C1[X(C4H5N3O2)]
 Deg. of freedom    36
 Full point group                 C1      NOp   1
 Largest Abelian subgroup         C1      NOp   1
 Largest concise Abelian subgroup C1      NOp   1
                         Standard orientation:                         
 ---------------------------------------------------------------------
 Center     Atomic      Atomic             Coordinates (Angstroms)
 Number     Number       Type             X           Y           Z
 ---------------------------------------------------------------------
      1          7           0        0.281800   -0.379616   -0.005682
      2          7           0        0.469960    0.925819   -0.024812
      3          6           0        1.784985    1.088669   -0.016378
      4          6           0        2.363682   -0.194307    0.009001
      5          7           0        1.391501   -1.099291    0.014907
      6          1           0        2.240999    2.067301   -0.028271
      7          1           0        3.403700   -0.482399    0.022304
      8          6           0       -1.534543    2.172221    0.035711
      9          6           0       -1.081284   -0.925294   -0.008685
     10          8           0       -1.953304   -0.026863   -0.031378
     11          8           0       -1.181590   -2.150172    0.011128
     12          1           0       -1.577524    2.099139    1.114052
     13          1           0       -2.426859    1.981316   -0.540826
     14          1           0       -0.761030    2.774796   -0.414045
 ---------------------------------------------------------------------
 Rotational constants (GHZ):           2.4323353           1.7403560           1.0217438
 Standard basis: 6-31+G(d,p) (6D, 7F)
 There are   196 symmetry adapted cartesian basis functions of A   symmetry.
 There are   196 symmetry adapted basis functions of A   symmetry.
   196 basis functions,   323 primitive gaussians,   196 cartesian basis functions
    33 alpha electrons       33 beta electrons
       nuclear repulsion energy       442.0252583326 Hartrees.
 NAtoms=   14 NActive=   14 NUniq=   14 SFac= 1.00D+00 NAtFMM=   60 NAOKFM=F Big=F
 Integral buffers will be    131072 words long.
 Raffenetti 2 integral format.
 Two-electron integral symmetry is turned on.
 ------------------------------------------------------------------------------
 Polarizable Continuum Model (PCM)
 =================================
 Model                : PCM.
 Atomic radii         : SMD-Coulomb.
 Polarization charges : Total charges.
 Charge compensation  : None.
 Solution method      : Matrix inversion.
 Cavity type          : VdW (van der Waals Surface) (Alpha=1.000).
 Cavity algorithm     : GePol (No added spheres)
                        Default sphere list used, NSphG=   14.
                        Lebedev-Laikov grids with approx.  5.0 points / Ang**2.
                        Smoothing algorithm: York/Karplus (Gamma=1.0000).
                        Polarization charges: spherical gaussians, with
                                              point-specific exponents (IZeta= 3).
                        Self-potential: point-specific (ISelfS= 7).
                        Self-field    : sphere-specific E.n sum rule (ISelfD= 2).
 1st derivatives      : Analytical E(r).r(x)/FMM algorithm (CHGder, D1EAlg=3).
                        Cavity 1st derivative terms included.
 Solvent              : Water, Eps=  78.355300 Eps(inf)=   1.777849
 ------------------------------------------------------------------------------
 Spheres list:
 ISph  on   Nord     Re0    Alpha      Xe            Ye            Ze
    1   N      1    1.8900  1.000      0.281800     -0.379616     -0.005682
    2   N      2    1.8900  1.000      0.469960      0.925819     -0.024812
    3   C      3    1.8500  1.000      1.784985      1.088669     -0.016378
    4   C      4    1.8500  1.000      2.363682     -0.194307      0.009001
    5   N      5    1.8900  1.000      1.391501     -1.099291      0.014907
    6   H      6    1.2000  1.000      2.240999      2.067301     -0.028271
    7   H      7    1.2000  1.000      3.403700     -0.482399      0.022304
    8   C      8    1.8500  1.000     -1.534543      2.172221      0.035711
    9   C      9    1.8500  1.000     -1.081284     -0.925294     -0.008685
   10   O     10    1.5200  1.000     -1.953304     -0.026863     -0.031378
   11   O     11    1.5200  1.000     -1.181590     -2.150172      0.011128
   12   H     12    1.2000  1.000     -1.577524      2.099139      1.114052
   13   H     13    1.2000  1.000     -2.426859      1.981316     -0.540826
   14   H     14    1.2000  1.000     -0.761030      2.774796     -0.414045
 ------------------------------------------------------------------------------
 ------------------------------------------------------------------------------
 Atomic radii for non-electrostatic terms: SMD-CDS.
 ------------------------------------------------------------------------------
 Nuclear repulsion after PCM non-electrostatic terms =      442.0346973346 Hartrees.
 One-electron integrals computed using PRISM.
 NBasis=   196 RedAO= T EigKep=  2.06D-05  NBF=   196
 NBsUse=   196 1.00D-06 EigRej= -1.00D+00 NBFU=   196
 Initial guess from the checkpoint file:  "/home/gau/soft/scratch/Gau-12337.chk"
 B after Tr=    -0.000000    0.000000    0.000000
         Rot=    1.000000    0.000043    0.000014   -0.000168 Ang=   0.02 deg.
 Requested convergence on RMS density matrix=1.00D-08 within 128 cycles.
 Requested convergence on MAX density matrix=1.00D-06.
 Requested convergence on             energy=1.00D-06.
 No special actions if energy rises.
 Inv3:  Mode=1 IEnd=     4450572.
 Iteration    1 A*A^-1 deviation from unit magnitude is 2.78D-15 for    376.
 Iteration    1 A*A^-1 deviation from orthogonality  is 1.81D-15 for    535    233.
 Iteration    1 A^-1*A deviation from unit magnitude is 2.55D-15 for    376.
 Iteration    1 A^-1*A deviation from orthogonality  is 1.68D-15 for    481    191.
 Error on total polarization charges =  0.03968
 SCF Done:  E(RM062X) =  -469.853169821     A.U. after    9 cycles
            NFock=  9  Conv=0.34D-08     -V/T= 2.0084
 SMD-CDS (non-electrostatic) energy       (kcal/mol) =       5.92
 (included in total energy above)
 D1PCM: PCM CHGder 1st derivatives, ID1Alg=3 FixD1E=F DoIter=F DoCFld=F I1PDM=0.
 Calling FoFJK, ICntrl=      2127 FMM=F ISym2X=0 I1Cent= 0 IOpClX= 0 NMat=1 NMatS=1 NMatT=0.
 ***** Axes restored to original set *****
 -------------------------------------------------------------------
 Center     Atomic                   Forces (Hartrees/Bohr)
 Number     Number              X              Y              Z
 -------------------------------------------------------------------
      1        7           0.000004225    0.000000939   -0.000006522
      2        7           0.000006621   -0.000005019    0.000002208
      3        6          -0.000001097    0.000000686    0.000000384
      4        6           0.000002538    0.000002956   -0.000007431
      5        7           0.000001481    0.000002394   -0.000011791
      6        1          -0.000001449    0.000002259    0.000006180
      7        1           0.000001212    0.000003509   -0.000010864
      8        6          -0.000020284   -0.000008080    0.000004508
      9        6           0.000014187    0.000002319   -0.000011292
     10        8          -0.000022203    0.000002225    0.000004312
     11        8           0.000003174    0.000000088   -0.000011737
     12        1          -0.000000600   -0.000010653    0.000009372
     13        1           0.000013872    0.000004307    0.000019605
     14        1          -0.000001677    0.000002071    0.000013066
 -------------------------------------------------------------------
 Cartesian Forces:  Max     0.000022203 RMS     0.000008454

 GradGradGradGradGradGradGradGradGradGradGradGradGradGradGradGradGradGrad
 Berny optimization.
 FormGI is forming the generalized inverse of G from B-inverse, IUseBI=4.
 Internal  Forces:  Max     0.000013401 RMS     0.000003611
 Search for a saddle point.
 Step number   3 out of a maximum of   81
 All quantities printed in internal units (Hartrees-Bohrs-Radians)
 Swapping is turned off.
 Update second derivatives using D2CorX and points    1    2    3
 ITU=  0  0  0
     Eigenvalues ---   -0.11426   0.00041   0.00102   0.00372   0.00751
     Eigenvalues ---    0.01410   0.01502   0.02063   0.02738   0.03217
     Eigenvalues ---    0.04325   0.05565   0.05752   0.06269   0.06898
     Eigenvalues ---    0.07251   0.09103   0.10366   0.10863   0.15010
     Eigenvalues ---    0.20470   0.22646   0.25630   0.32751   0.35039
     Eigenvalues ---    0.36460   0.38341   0.38530   0.38725   0.39612
     Eigenvalues ---    0.40368   0.44215   0.52897   0.54201   0.58852
     Eigenvalues ---    0.82941
 Eigenvectors required to have negative eigenvalues:
                          R10       A24       A15       A6        A5
   1                   -0.50585   0.41093  -0.36585   0.32534  -0.30640
                          A23       R5        D27       D26       A22
   1                    0.20799   0.18334  -0.14668  -0.14505   0.14339
 RFO step:  Lambda0=6.772385222D-10 Lambda=-1.87211748D-08.
 Linear search not attempted -- option 19 set.
 Iteration  1 RMS(Cart)=  0.00060989 RMS(Int)=  0.00000070
 Iteration  2 RMS(Cart)=  0.00000056 RMS(Int)=  0.00000040
 Variable       Old X    -DE/DX   Delta X   Delta X   Delta X     New X
                                 (Linear)    (Quad)   (Total)
    R1        2.49267  -0.00000   0.00000  -0.00000  -0.00000   2.49267
    R2        2.49972   0.00000   0.00000   0.00000   0.00000   2.49973
    R3        2.77460   0.00000   0.00000   0.00000   0.00000   2.77460
    R4        2.50407   0.00000   0.00000  -0.00000  -0.00000   2.50407
    R5        4.26155   0.00000   0.00000  -0.00027  -0.00027   4.26128
    R6        2.66013  -0.00000   0.00000  -0.00000  -0.00000   2.66013
    R7        2.04039  -0.00000   0.00000  -0.00000  -0.00000   2.04039
    R8        2.50997   0.00000   0.00000   0.00000   0.00000   2.50997
    R9        2.03952   0.00000   0.00000   0.00000   0.00000   2.03952
   R10        4.23224  -0.00001   0.00000  -0.00018  -0.00018   4.23206
   R11        2.04406  -0.00000   0.00000  -0.00001  -0.00001   2.04405
   R12        2.03974  -0.00001   0.00000  -0.00002  -0.00002   2.03972
   R13        2.03854   0.00000   0.00000  -0.00001  -0.00001   2.03853
   R14        2.36640   0.00001   0.00000   0.00002   0.00001   2.36641
   R15        2.32273  -0.00000   0.00000   0.00000   0.00000   2.32274
   R16        4.01609  -0.00000   0.00000   0.00042   0.00042   4.01651
    A1        2.00313  -0.00000   0.00000  -0.00000  -0.00000   2.00313
    A2        2.09464  -0.00000   0.00000   0.00003   0.00003   2.09466
    A3        2.18542   0.00000   0.00000  -0.00003  -0.00003   2.18539
    A4        1.83703   0.00000   0.00000  -0.00000  -0.00000   1.83703
    A5        2.39804  -0.00000   0.00000   0.00002   0.00002   2.39806
    A6        2.02868   0.00000   0.00000  -0.00009  -0.00009   2.02859
    A7        1.87138  -0.00000   0.00000   0.00000   0.00000   1.87139
    A8        2.12993   0.00000   0.00000   0.00000   0.00000   2.12993
    A9        2.28187  -0.00000   0.00000  -0.00000  -0.00000   2.28187
   A10        1.89671  -0.00000   0.00000  -0.00000  -0.00000   1.89670
   A11        2.26485   0.00000   0.00000   0.00000   0.00000   2.26485
   A12        2.12163   0.00000   0.00000  -0.00000  -0.00000   2.12163
   A13        1.81653   0.00000   0.00000   0.00000   0.00000   1.81653
   A14        1.52687  -0.00000   0.00000  -0.00075  -0.00075   1.52612
   A15        2.30509  -0.00000   0.00000   0.00049   0.00049   2.30558
   A16        2.08024   0.00000   0.00000   0.00005   0.00005   2.08029
   A17        2.07359   0.00000   0.00000   0.00001   0.00001   2.07360
   A18        2.05881  -0.00000   0.00000  -0.00002  -0.00002   2.05880
   A19        1.96046   0.00001   0.00000   0.00005   0.00005   1.96051
   A20        2.03319  -0.00000   0.00000  -0.00002  -0.00002   2.03317
   A21        2.28953  -0.00000   0.00000  -0.00003  -0.00003   2.28950
   A22        2.18185  -0.00001   0.00000   0.00006   0.00006   2.18190
   A23        2.56341  -0.00001   0.00000  -0.00081  -0.00081   2.56260
   A24        1.43181   0.00001   0.00000   0.00029   0.00029   1.43211
    D1       -0.00010  -0.00000   0.00000   0.00003   0.00003  -0.00007
    D2        2.91046   0.00000   0.00000  -0.00041  -0.00041   2.91005
    D3       -3.14141  -0.00000   0.00000  -0.00010  -0.00010  -3.14150
    D4       -0.23084   0.00000   0.00000  -0.00054  -0.00054  -0.23138
    D5        0.00030   0.00000   0.00000  -0.00002  -0.00002   0.00028
    D6        3.14159   0.00000   0.00000   0.00011   0.00011  -3.14149
    D7        0.00082  -0.00000   0.00000   0.00013   0.00013   0.00095
    D8       -3.14049   0.00000   0.00000   0.00017   0.00017  -3.14032
    D9       -3.14045  -0.00000   0.00000  -0.00001  -0.00001  -3.14046
   D10        0.00142   0.00000   0.00000   0.00004   0.00004   0.00146
   D11       -0.00013   0.00000   0.00000  -0.00002  -0.00002  -0.00016
   D12        3.14138   0.00000   0.00000  -0.00001  -0.00001   3.14138
   D13       -2.96806   0.00000   0.00000   0.00030   0.00030  -2.96776
   D14        0.17346   0.00000   0.00000   0.00031   0.00031   0.17377
   D15        0.58427  -0.00000   0.00000  -0.00066  -0.00065   0.58362
   D16       -2.80616  -0.00000   0.00000  -0.00112  -0.00112  -2.80728
   D17        0.00032  -0.00000   0.00000   0.00001   0.00001   0.00033
   D18        3.14155  -0.00000   0.00000   0.00000   0.00000   3.14155
   D19       -3.14119   0.00000   0.00000  -0.00001  -0.00001  -3.14119
   D20        0.00004  -0.00000   0.00000  -0.00001  -0.00001   0.00003
   D21       -0.00037  -0.00000   0.00000   0.00001   0.00001  -0.00036
   D22        3.14156  -0.00000   0.00000   0.00001   0.00001   3.14157
   D23       -1.55408  -0.00000   0.00000  -0.00197  -0.00197  -1.55605
[...]
 ! D5    D(2,1,5,4)              0.0161         -DE/DX =    0.0                 !
 ! D6    D(9,1,5,4)           -179.994          -DE/DX =    0.0                 !
 ! D7    D(2,1,9,10)             0.0543         -DE/DX =    0.0                 !
 ! D8    D(2,1,9,11)          -179.927          -DE/DX =    0.0                 !
 ! D9    D(5,1,9,10)          -179.9351         -DE/DX =    0.0                 !
 ! D10   D(5,1,9,11)             0.0835         -DE/DX =    0.0                 !
 ! D11   D(1,2,3,4)             -0.0089         -DE/DX =    0.0                 !
 ! D12   D(1,2,3,6)            179.9877         -DE/DX =    0.0                 !
 ! D13   D(14,2,3,4)          -170.0403         -DE/DX =    0.0                 !
 ! D14   D(14,2,3,6)             9.9563         -DE/DX =    0.0                 !
 ! D15   D(1,2,14,8)            33.4388         -DE/DX =    0.0                 !
 ! D16   D(3,2,14,8)          -160.8454         -DE/DX =    0.0                 !
 ! D17   D(2,3,4,5)              0.0192         -DE/DX =    0.0                 !
 ! D18   D(2,3,4,7)            179.9978         -DE/DX =    0.0                 !
 ! D19   D(6,3,4,5)           -179.977          -DE/DX =    0.0                 !
 ! D20   D(6,3,4,7)              0.0016         -DE/DX =    0.0                 !
 ! D21   D(3,4,5,1)             -0.0206         -DE/DX =    0.0                 !
 ! D22   D(7,4,5,1)            179.9986         -DE/DX =    0.0                 !
 ! D23   D(12,8,10,9)          -89.1553         -DE/DX =    0.0                 !
 ! D24   D(14,8,10,9)           38.4139         -DE/DX =    0.0                 !
 ! D25   D(10,8,14,2)          -34.5329         -DE/DX =    0.0                 !
 ! D26   D(12,8,14,2)           80.8222         -DE/DX =    0.0                 !
 ! D27   D(13,8,14,2)         -121.9412         -DE/DX =    0.0                 !
 ! D28   D(1,9,10,8)            -3.0802         -DE/DX =    0.0                 !
 ! D29   D(1,9,10,13)           24.0808         -DE/DX =    0.0                 !
 ! D30   D(11,9,10,8)          176.8976         -DE/DX =    0.0                 !
 ! D31   D(11,9,10,13)        -155.9414         -DE/DX =    0.0                 !
 --------------------------------------------------------------------------------
 GradGradGradGradGradGradGradGradGradGradGradGradGradGradGradGradGradGrad


 ----------------------------------------------------------------------

 Electric dipole moment (input orientation):
 (Debye = 10**-18 statcoulomb cm , SI units = C m)
                  (au)            (Debye)         (10**-30 SI)
   Tot        0.547871D+01      0.139255D+02      0.464505D+02
   x          0.135147D+01      0.343510D+01      0.114583D+02
   y          0.530885D+01      0.134938D+02      0.450103D+02
   z          0.770486D-01      0.195838D+00      0.653245D+00

 Dipole polarizability, Alpha (input orientation).
 (esu units = cm**3 , SI units = C**2 m**2 J**-1)
 Alpha(0;0):
               (au)            (10**-24 esu)      (10**-40 SI)
   iso        0.108674D+03      0.161038D+02      0.179179D+02
   aniso      0.730891D+02      0.108307D+02      0.120508D+02
   xx         0.131133D+03      0.194319D+02      0.216209D+02
   yx        -0.920823D+00     -0.136452D+00     -0.151823D+00
   yy         0.134869D+03      0.199855D+02      0.222369D+02
   zx         0.149875D+00      0.222092D-01      0.247110D-01
   zy        -0.941943D+00     -0.139582D+00     -0.155305D+00
   zz         0.600196D+02      0.889399D+01      0.989590D+01

 ----------------------------------------------------------------------

 Dipole orientation:
     7          0.66973696         -0.17159376         -0.56702273
     7          0.44568810         -0.04200413          1.91217375
     6          2.71302112         -0.61191851          2.80925764
     6          4.29019137         -1.08617996          0.72026537
     7          2.94975067         -0.79350390         -1.38152233
     1          3.10488285         -0.65733164          4.81114754
     1          6.26168566         -1.60562158          0.66537310
     6         -3.69405229          0.89792191          3.28744720
     6         -1.51914827          0.35728783         -2.18797136
     8         -3.45275123          0.90314566         -0.93772536
     8         -1.17397883          0.19849032         -4.47942257
     1         -4.23575932         -1.06908457          3.16263848
     1         -4.93364565          2.32207701          2.51566570
     1         -2.37193960          1.46293651          4.73257096

 Electric dipole moment (dipole orientation):
 (Debye = 10**-18 statcoulomb cm , SI units = C m)
                  (au)            (Debye)         (10**-30 SI)
   Tot        0.547871D+01      0.139255D+02      0.464505D+02
   x          0.000000D+00      0.000000D+00      0.000000D+00
   y          0.000000D+00      0.000000D+00      0.000000D+00
   z          0.547871D+01      0.139255D+02      0.464505D+02

 Dipole polarizability, Alpha (dipole orientation).
 (esu units = cm**3 , SI units = C**2 m**2 J**-1)
 Alpha(0;0):
               (au)            (10**-24 esu)      (10**-40 SI)
   iso        0.108674D+03      0.161038D+02      0.179179D+02
   aniso      0.730891D+02      0.108307D+02      0.120508D+02
   xx         0.127242D+03      0.188554D+02      0.209794D+02
   yx        -0.175044D+02     -0.259388D+01     -0.288608D+01
   yy         0.646172D+02      0.957528D+01      0.106539D+02
   zx        -0.117061D+01     -0.173467D+00     -0.193008D+00
   zy         0.227784D+01      0.337540D+00      0.375564D+00
   zz         0.134162D+03      0.198807D+02      0.221203D+02

 ----------------------------------------------------------------------
 Unable to Open any file for archive entry.
 1\1\GINC-NODE01\Freq\RM062X\6-31+G(d,p)\C4H5N3O2\GAU\02-Dec-2023\0\\#N
  Geom=AllCheck Guess=TCheck SCRF=Check GenChk RM062X/6-31+G(d,p) Freq\
 \Title Card Required\\0,1\N,0.2805299312,-0.3810174478,-0.0036561299\N
 ,0.4765421076,0.9232672552,-0.0224094103\C,1.7925565601,1.0781129449,-
 0.0194659913\C,2.36354697,-0.2083768969,0.0022980599\N,1.3859149665,-1
 .1074409736,0.0115563656\H,2.2544605373,2.0539643738,-0.0324334388\H,3
 .4018416798,-0.5027969223,0.0108934891\C,-1.5203814641,2.1816757024,0.
 0462429136\C,-1.0858347313,-0.91843304,-0.001186359\O,-1.9525400636,-0
 .0147618612,-0.0193776416\O,-1.1934479738,-2.1427002294,0.0181304947\H
 ,-1.5607780265,2.1081491156,1.1246490608\H,-2.4153706528,1.9963693272,
 -0.5279541606\H,-0.7445678402,2.7799256521,-0.4053082523\\Version=ES64
 L-G16RevC.01\State=1-A\HF=-469.8531698\RMSD=4.727e-09\RMSF=6.015e-06\Z
 eroPoint=0.0988768\Thermal=0.1068533\ETot=-469.7463166\HTot=-469.74537
 24\GTot=-469.7879967\Dipole=1.3514713,5.3088511,0.0770486\DipoleDeriv=
 -1.8956894,-0.6663261,0.011592,-0.824687,-0.318523,-0.0004104,0.009147
 8,0.0010238,0.0738547,-0.4589538,0.3904897,-0.0058401,0.8456033,-0.232
 2,0.0021086,-0.0058363,-0.0165592,-0.2038692,-0.3279394,-0.2819136,0.0
 036576,0.4303919,0.3111926,-0.0090664,-0.0077863,-0.0054534,-0.0414319
 ,-0.0060107,-0.1175242,0.0041345,-0.6196101,-0.0476995,-0.0032947,0.01
 02246,0.0000143,-0.0832048,0.3615283,0.3717172,-0.0017823,0.0203851,-0
 .561163,0.0032231,-0.0006322,0.0089772,-0.2383941,0.1597419,0.0050549,
 -0.0002412,-0.0279842,0.0959417,0.0020468,0.0005317,0.002187,0.2180571
 ,0.0893384,0.0116037,-0.000612,0.0669553,0.1321216,0.0011059,-0.001750
 1,0.0012623,0.2125505,1.2264709,-0.3374994,-0.0119305,-0.4144455,1.781
 886,0.0429618,-0.0392662,0.0887468,0.2537705,3.2439085,-0.3087622,-0.0
 005883,0.3536416,3.7774137,-0.0405806,0.008384,-0.0585997,0.5534464,-1
 .6890837,0.8531722,-0.0083421,0.2849438,-2.3372621,0.006382,-0.0106887
 ,0.0202934,-0.5915806,-1.0338003,-0.1670526,0.0046176,-0.3783341,-2.56
 61537,0.0195478,0.0029399,0.03257,-0.6208599,0.1148593,0.0860641,-0.00
 22272,0.0979387,-0.0506888,-0.0064874,-0.0224223,0.0066905,0.1766486,0
 .1972597,0.1023199,0.0074769,-0.0572501,-0.0425089,-0.0087416,0.000297
 5,-0.0516887,0.1489897,0.0183704,0.0586567,0.0000851,0.2224513,0.05764
 36,-0.0087951,0.0568567,-0.0294643,0.1420231\Polar=131.133093,-0.92082
 31,134.8687923,0.1498748,-0.9419429,60.0196026\Quadrupole=1.9407405,-0
 .122882,-1.8178585,-8.7121157,-0.2671078,0.3143074\PG=C01 [X(C4H5N3O2)
 ]\NImag=1\\0.75130001,0.02260042,0.71804856,0.00228751,-0.00918335,0.1
 1685437,-0.09843326,-0.05208098,0.00058775,0.65175423,0.02615343,-0.31
 546586,0.00374230,-0.00071454,0.56350008,-0.00055312,0.00355661,-0.071
 33742,0.00184104,-0.00761382,0.10707106,-0.09759484,-0.08912175,0.0009
 7335,-0.40375116,-0.02944087,-0.00086796,0.69679793,-0.02322722,-0.050
 33247,0.00072780,-0.02045420,-0.12251760,0.00075955,0.14880993,0.84303
 893,-0.00008627,0.00059588,0.01141385,-0.00118999,0.00072203,-0.070697
 18,0.00010690,-0.01015591,0.14068641,-0.11074111,0.00612204,-0.0006131
 1,-0.05206528,0.01024832,-0.00037273,-0.15120943,0.09447192,-0.0017859
 8,0.90453304,-0.06259867,-0.01749518,0.00035487,0.10710795,0.02466582,
 0.00034994,0.04633371,-0.27747713,0.00333257,-0.06016133,0.61832970,0.
 00048318,0.00048099,0.01145049,-0.00186522,-0.00002345,0.01949882,-0.0
 0105404,0.00347279,-0.07282137,0.00388998,-0.00730604,0.14272024,-0.21
 774213,0.14306405,-0.00265207,-0.06746682,0.03871763,-0.00103013,0.048
 46070,-0.07477286,0.00128527,-0.26272560,-0.14414841,0.00134549,0.5566
 1574,0.06299643,-0.18165362,0.00194401,0.01420186,-0.10440390,0.002002
 55,0.01553262,-0.07204797,0.00141660,-0.14057648,-0.25857669,0.0021164
 5,0.05333187,0.58768848,-0.00145251,0.00225855,-0.07150649,-0.00061473
 ,0.00208166,0.02639695,-0.00016927,0.00113981,0.02160965,0.00131960,0.
 00203350,-0.07278283,0.00091320,-0.00683333,0.10599416,-0.00712122,-0.
 00019651,-0.00005744,-0.00895472,-0.03051554,0.00044323,-0.11026537,-0
 .11283961,0.00138241,0.01255110,0.01004306,-0.00010482,-0.00029633,0.0
 0545011,-0.00010266,0.11368311,0.00302764,0.00200936,0.00012140,0.0008
 5591,0.00528779,-0.00017650,-0.12176318,-0.32141061,0.00398790,-0.0118
 4556,-0.00565640,0.00003138,0.00035248,-0.00364324,0.00014568,0.129905
 01,0.32285699,-0.00012632,0.00012262,0.00921638,-0.00000044,-0.0003110
 5,-0.00645732,0.00147810,0.00399238,-0.03375775,0.00024028,0.00012650,
 0.00013002,-0.00003224,0.00017705,0.00575128,-0.00159550,-0.00407848,0
 .02580176,-0.00120928,-0.00264360,-0.00000394,0.00049254,-0.00057124,-
 0.00000937,0.00132178,-0.00233680,0.00003926,-0.34728727,0.08551693,-0
 .00235963,-0.01515276,0.00666160,-0.00012301,-0.00032514,0.00029122,-0
 .00000044,0.36231643,-0.00679866,-0.00338699,0.00015318,0.00495602,-0.
 00526481,0.00018424,0.02066562,0.00414340,0.00001766,0.09458840,-0.086
 49685,0.00114417,-0.02402404,0.01089720,-0.00035784,-0.00059814,0.0000
 1083,-0.00002259,-0.08766036,0.07782991,0.00006232,0.00015580,0.009173
 90,-0.00008173,0.00018016,0.00599689,-0.00030817,-0.00006266,0.0000025
 1,-0.00248971,0.00110664,-0.03332968,0.00030508,-0.00024455,-0.0071612
 6,0.00001306,-0.00001896,-0.00137805,0.00247856,-0.00110200,0.02553300
 ,0.00173689,0.00687404,-0.00028116,0.02738163,0.00385381,0.00285048,-0
 .00470537,-0.01316959,0.00000965,0.00274734,-0.00396560,-0.00004619,0.
 00780743,-0.00935559,0.00002189,-0.00004468,-0.00003408,0.00002129,-0.
 00002237,-0.00149111,0.00002869,0.51531882,-0.00231410,0.00056005,0.00
 022818,0.00166001,-0.01860436,0.00332827,-0.00243906,0.00451960,-0.000
 19375,-0.00274017,-0.00183518,-0.00010004,-0.00002116,-0.00228494,-0.0
 0025644,-0.00001378,0.00014551,0.00005637,-0.00004040,0.00017845,-0.00
 002178,0.18246461,0.21806656,-0.00157707,0.00058122,-0.00109201,-0.000
 62478,0.00298742,-0.00792091,0.00018977,0.00032933,-0.00063552,-0.0002
 6851,-0.00001425,0.00112489,-0.00010669,0.00044078,0.00056771,0.000003
 89,-0.00009505,-0.00048559,-0.00001064,0.00005010,0.00011831,0.0369347
 8,-0.07557565,0.66723155,-0.10810746,-0.00609587,-0.00023025,-0.034352
 30,-0.04551812,0.00002486,0.03577564,0.00240913,0.00006060,0.01388121,
 0.03375031,-0.00045535,-0.05483382,0.00943397,-0.00017902,0.00172040,-
 0.00034800,0.00000275,0.00080848,0.00117834,-0.00001547,0.03246284,0.0
 3697229,0.00100265,0.48232201,-0.00391334,-0.10131771,0.00082409,-0.02
 757547,-0.01606406,0.00047180,0.01195798,-0.01312639,0.00031307,0.0132
 7782,0.00590234,-0.00001646,0.00214569,0.01697541,-0.00048385,-0.00076
 120,0.00033597,0.00002614,0.00091445,0.00119073,0.00002182,-0.00373367
 ,-0.02904552,0.00015145,-0.13304549,0.97006933,-0.00016740,0.00092024,
 -0.04670447,0.00035853,-0.00022617,-0.01244251,-0.00005254,0.00025569,
 0.00423452,-0.00015575,0.00011662,0.00483980,-0.00020504,-0.00049015,-
 0.01516720,0.00000386,0.00002568,0.00211748,-0.00002269,0.00001798,0.0
 0221595,-0.00029842,0.00122531,-0.00242836,0.00294507,-0.01229190,0.22
 105982,-0.08792200,0.02712545,-0.00080149,-0.00350949,0.00686024,-0.00
 029760,-0.00902584,0.00400370,-0.00011703,-0.00870197,-0.00617863,0.00
 007554,0.00338858,-0.01296789,0.00013382,-0.00016573,-0.00009549,-0.00
 000230,-0.00069023,-0.00080317,0.00001590,-0.01785129,-0.00453492,-0.0
 0167809,-0.28559109,0.18197722,-0.00335165,0.39336196,0.02228293,0.004
 71290,0.00032043,-0.03204206,-0.01112080,-0.00097217,0.00732088,0.0073
 6515,-0.00016634,0.00013239,0.00625689,-0.00005357,-0.00686712,0.00794
 303,-0.00001122,0.00022774,-0.00010004,-0.00001072,0.00010454,0.001121
 49,-0.00000777,0.03205794,0.03826950,0.00350300,0.17236972,-0.27141340
 ,0.00350215,-0.25654414,0.37598463,-0.00086488,0.00031890,0.01647888,0
 .00112127,0.00038131,0.00242856,-0.00023998,-0.00018864,0.00019453,-0.
 00001914,-0.00024003,-0.00060567,0.00022850,-0.00015611,0.00482451,-0.
 00000151,-0.00000003,-0.00016094,0.00000059,-0.00004725,-0.00088281,-0
 .00408460,-0.00135607,-0.00967123,-0.00291579,0.00332366,-0.07778374,0
 .00592408,-0.00602655,0.03455266,-0.02144636,-0.05603027,0.00075331,-0
 .00142849,0.00634271,-0.00000567,-0.00631573,-0.00424732,0.00003868,-0
 .00047353,-0.00612606,0.00008455,0.00290303,-0.00583206,0.00008041,-0.
 00070833,0.00002315,0.00000079,-0.00022768,-0.00013924,0.00000147,-0.0
 0735984,-0.00680099,-0.00050908,-0.08677608,-0.03877285,0.00047652,0.0
 1494592,0.05600280,-0.00091949,0.10732740,-0.04116926,-0.05478905,0.00
 095226,-0.00978988,0.00689863,-0.00041534,-0.00840877,0.00144357,-0.00
 004363,-0.00463006,-0.00745658,0.00012882,0.01128434,-0.00001975,0.000
 06928,-0.00075874,0.00018464,-0.00002389,-0.00024260,0.00003786,-0.000
 01052,0.00683115,0.01897493,0.00091862,-0.06250873,-0.56674624,0.00748
 971,0.05413474,-0.12588488,0.00291268,0.05367714,0.73269712,0.00044422
 ,0.00083577,0.01598202,0.00011123,0.00002011,0.00417001,0.00011373,-0.
 00001827,-0.00024495,0.00006726,0.00007763,-0.00002738,-0.00014198,0.0
 0003514,0.00160692,0.00001576,-0.00001455,-0.00084186,0.00000352,-0.00
 000290,-0.00027049,0.00030586,-0.00045524,0.00171676,0.00091763,0.0075
 8582,-0.08060817,-0.00105039,0.00278189,0.02677576,-0.00043583,-0.0110
 0093,0.03218635,-0.00036347,0.00014249,0.00018630,-0.00211712,0.000220
 94,0.00248814,-0.00000780,0.00044397,0.00014509,-0.00013410,0.00002218
 ,-0.00020811,-0.00018151,0.00002521,-0.00002445,-0.00000052,-0.0000180
 0,0.00008131,-0.00000102,0.00002492,-0.00001234,-0.05543603,-0.0079557
 5,0.00967460,0.00181092,-0.00072666,0.00056588,-0.00052155,0.00373966,
 0.00174377,-0.00044142,0.00101634,-0.00032838,0.04318650,0.00110651,-0
 .00014464,-0.00056899,0.00388468,-0.00110979,-0.00519335,0.00006125,-0
 .00118013,-0.00001876,0.00038995,0.00000157,0.00040956,0.00044931,-0.0
 0043425,0.00027794,0.00000634,0.00000977,-0.00017382,0.00000691,-0.000
 09484,0.00002208,-0.00658312,-0.04097111,0.02764107,-0.00404415,0.0026
 6700,-0.00134683,0.00115798,-0.01091726,-0.00539491,0.00070864,-0.0025
 2634,0.00074847,0.00664439,0.03608862,0.00016592,-0.00067488,-0.000064
 07,-0.00039331,0.00020525,0.00116124,0.00014257,0.00015198,-0.00004196
 ,-0.00002900,0.00006373,-0.00006212,-0.00028020,0.00029970,-0.00008581
 ,-0.00000632,-0.00000674,0.00002888,-0.00000960,0.00002987,-0.00000653
 ,0.01156659,0.02344140,-0.37851040,0.00043827,-0.00124262,0.00019892,-
 0.00048027,0.00104238,0.00110063,-0.00000373,0.00081941,-0.00017070,-0
 .01092727,-0.02754669,0.38304961,-0.00023633,0.00056185,-0.00008749,0.
 00243708,-0.00055886,-0.00051859,-0.00042107,-0.00074655,0.00001659,0.
 00004405,-0.00037656,0.00006990,0.00051094,-0.00075979,0.00007752,0.00
 000226,0.00000688,-0.00002463,-0.00000709,-0.00009713,0.00000170,-0.28
 619988,-0.05644084,-0.14217894,0.00484853,-0.00187941,0.00013674,-0.00
 006361,0.00675876,0.00026372,-0.00094932,0.00125997,-0.00011178,0.0091
 9417,-0.00272529,0.00352579,0.27632190,0.00005696,-0.00108237,0.000330
 58,-0.00502160,0.00391759,0.00122420,0.00109399,0.00098323,0.00006742,
 0.00002556,0.00085702,-0.00016912,-0.00112374,0.00167625,-0.00009935,-
 0.00000727,-0.00005299,0.00006886,0.00000240,0.00016852,-0.00001866,-0
 .04204474,-0.04068724,-0.03311469,-0.01220536,0.00183725,0.00043906,0.
 00949914,-0.03194602,0.00563009,0.00290584,-0.00458519,-0.00037195,-0.
 00134961,0.00824758,0.00326372,0.06109732,0.04999098,0.00050273,-0.000
 35953,0.00009067,-0.00207901,0.00056926,0.00054847,0.00030537,0.000320
 86,0.00002911,0.00005808,0.00035721,-0.00005989,-0.00038756,0.00040180
 ,-0.00004694,-0.00001258,0.00000571,0.00002190,0.00000605,0.00004968,-
 0.00000937,-0.13785137,-0.02446083,-0.15177110,-0.00402052,0.00156705,
 0.00026873,0.00239649,-0.00648156,0.00200238,0.00093840,-0.00210065,-0
 .00017510,-0.02204948,-0.00396279,-0.00441648,0.15166945,0.02888703,0.
 14079514,-0.00211943,-0.00032136,-0.00006128,-0.00998683,0.01492209,-0
 .00399258,0.00094056,0.00165551,0.00009483,-0.00041847,0.00078112,0.00
 014471,-0.00128745,0.00185813,0.00011922,-0.00007484,-0.00035799,-0.00
 004264,-0.00001639,0.00019855,0.00000062,-0.21583548,-0.13779574,0.099
 14812,-0.00396928,0.00013493,-0.00023310,0.00234632,-0.00554405,-0.000
 23655,0.00095043,-0.00069563,0.00008916,0.00501294,-0.00106340,-0.0037
 0944,-0.00548163,-0.01292890,0.01052393,0.22993953,0.00179694,0.000337
 01,0.00005324,0.01501230,-0.00971874,0.00249402,-0.00060236,-0.0034015
 8,0.00012526,0.00069720,-0.00101933,-0.00011548,0.00161197,-0.00211603
 ,0.00003562,0.00005852,0.00002242,0.00005063,-0.00000306,-0.00033491,0
 .00000040,-0.15170405,-0.14728626,0.07219662,0.00765196,-0.00126471,0.
 00036261,-0.00363422,0.00972883,0.00084295,-0.00171149,0.00177128,-0.0
 0022097,-0.00223007,0.01036380,0.00015349,-0.00610035,0.01067540,0.005
 20678,0.13915673,0.13224280,0.00088168,0.00039119,0.00004389,0.0028294
 0,-0.00271500,0.00158334,-0.00061784,-0.00072472,0.00002815,0.00015872
 ,-0.00035888,-0.00007532,0.00075837,-0.00110993,-0.00000065,0.00001862
 ,0.00007255,0.00001383,0.00001136,-0.00011429,-0.00000236,0.09082251,0
 .07414028,-0.11824412,0.00242457,-0.00025008,0.00019924,-0.00076703,0.
 00258005,0.00074646,-0.00050033,0.00030417,-0.00009918,0.01866495,0.01
 510702,-0.00218121,-0.01283997,-0.00613719,0.01272247,-0.10184499,-0.0
 8118517,0.10526548\\-0.00000223,-0.00000108,0.00000562,0.00000271,0.00
 000296,-0.00000040,0.00000061,-0.00000120,-0.00000089,-0.00000064,-0.0
 0000210,0.00000770,-0.00000178,-0.00000273,0.00001093,0.00000169,-0.00
 000258,-0.00000522,-0.00000113,-0.00000365,0.00001065,0.00000777,0.000
 00514,-0.00000716,-0.00000315,0.00000011,0.00000579,0.00000244,0.00000
 450,0.00000199,-0.00000397,0.00000058,0.00001369,0.00000067,0.00000584
 ,-0.00001119,-0.00000309,-0.00000175,-0.00001722,0.00000010,-0.0000040
 5,-0.00001427\\\@
 The archive entry for this job was punched.


 A SUCCESSFUL PURSUIT OF SCIENCE MAKES A MAN THE
 BENEFACTOR OF ALL MANKIND OF EVERY AGE.
   --  JOSEPH PRIESTLEY, "EXPERIMENTS AND
 OBSERVATIONS ON DIFFERENT KINDS OF AIR", 1774
 Job cpu time:       0 days  0 hours 34 minutes 30.9 seconds.
 Elapsed time:       0 days  0 hours  0 minutes 43.6 seconds.
 File lengths (MBytes):  RWF=     92 Int=      0 D2E=      0 Chk=     11 Scr=      1
 Normal termination of Gaussian 16 at Sat Dec  2 06:37:13 2023.
