 Entering Gaussian System, Link 0=/opt/soft/g16/g16
 Initial command:
 /opt/soft/g16/l1.exe "/scratch/gongke2021/sidanzuo-PC/Gau-18068.inp" -scrdir="/scratch/gongke2021/sidanzuo-PC/"
 Entering Link 1 = /opt/soft/g16/l1.exe PID=     18069.
  
 Copyright (c) 1988,1990,1992,1993,1995,1998,2003,2009,2016,
            Gaussian, Inc.  All Rights Reserved.
  
 This is part of the Gaussian(R) 16 program.  It is based on
 the Gaussian(R) 09 system (copyright 2009, Gaussian, Inc.),
 the Gaussian(R) 03 system (copyright 2003, Gaussian, Inc.),
 the Gaussian(R) 98 system (copyright 1998, Gaussian, Inc.),
 the Gaussian(R) 94 system (copyright 1995, Gaussian, Inc.),
 the Gaussian 92(TM) system (copyright 1992, Gaussian, Inc.),
 the Gaussian 90(TM) system (copyright 1990, Gaussian, Inc.),
 the Gaussian 88(TM) system (copyright 1988, Gaussian, Inc.),
 the Gaussian 86(TM) system (copyright 1986, Carnegie Mellon
 University), and the Gaussian 82(TM) system (copyright 1983,
 Carnegie Mellon University). Gaussian is a federally registered
 trademark of Gaussian, Inc.
  
 This software contains proprietary and confidential information,
 including trade secrets, belonging to Gaussian, Inc.
  
 This software is provided under written license and may be
 used, copied, transmitted, or stored only in accord with that
 written license.
  
 The following legend is applicable only to US Government
 contracts under FAR:
  
                    RESTRICTED RIGHTS LEGEND
  
 Use, reproduction and disclosure by the US Government is
 subject to restrictions as set forth in subparagraphs (a)
 and (c) of the Commercial Computer Software - Restricted
 Rights clause in FAR 52.227-19.
  
 Gaussian, Inc.
 340 Quinnipiac St., Bldg. 40, Wallingford CT 06492
  
  
 ---------------------------------------------------------------
 Warning -- This program may not be used in any manner that
 competes with the business of Gaussian, Inc. or will provide
 assistance to any competitor of Gaussian, Inc.  The licensee
 of this program is prohibited from giving any competitor of
 Gaussian, Inc. access to this program.  By using this program,
 the user acknowledges that Gaussian, Inc. is engaged in the
 business of creating and licensing software in the field of
 computational chemistry and represents and warrants to the
 licensee that it is not a competitor of Gaussian, Inc. and that
 it will not use this program in any manner prohibited above.
 ---------------------------------------------------------------
  

 Cite this work as:
 Gaussian 16, Revision A.03,
 M. J. Frisch, G. W. Trucks, H. B. Schlegel, G. E. Scuseria, 
 M. A. Robb, J. R. Cheeseman, G. Scalmani, V. Barone, 
 G. A. Petersson, H. Nakatsuji, X. Li, M. Caricato, A. V. Marenich, 
 J. Bloino, B. G. Janesko, R. Gomperts, B. Mennucci, H. P. Hratchian, 
 J. V. Ortiz, A. F. Izmaylov, J. L. Sonnenberg, D. Williams-Young, 
 F. Ding, F. Lipparini, F. Egidi, J. Goings, B. Peng, A. Petrone, 
 T. Henderson, D. Ranasinghe, V. G. Zakrzewski, J. Gao, N. Rega, 
 G. Zheng, W. Liang, M. Hada, M. Ehara, K. Toyota, R. Fukuda, 
 J. Hasegawa, M. Ishida, T. Nakajima, Y. Honda, O. Kitao, H. Nakai, 
 T. Vreven, K. Throssell, J. A. Montgomery, Jr., J. E. Peralta, 
 F. Ogliaro, M. J. Bearpark, J. J. Heyd, E. N. Brothers, K. N. Kudin, 
 V. N. Staroverov, T. A. Keith, R. Kobayashi, J. Normand, 
 K. Raghavachari, A. P. Rendell, J. C. Burant, S. S. Iyengar, 
 J. Tomasi, M. Cossi, J. M. Millam, M. Klene, C. Adamo, R. Cammi, 
 J. W. Ochterski, R. L. Martin, K. Morokuma, O. Farkas, 
 J. B. Foresman, and D. J. Fox, Gaussian, Inc., Wallingford CT, 2016.
 
 ******************************************
 Gaussian 16:  ES64L-G16RevA.03 25-Dec-2016
                 6-Nov-2023 
 ******************************************
 %mem=10GB
 %nprocshared=24
 Will use up to   24 processors via shared memory.
 -----------------------------------------------------
 # opt freq 6-31+g(d,p) scrf=(smd,solvent=water) m062x
 -----------------------------------------------------
 1/18=20,19=15,26=3,38=1/1,3;
 2/9=110,12=2,17=6,18=5,40=1/2;
 3/5=1,6=6,7=111,11=2,25=1,30=1,70=32201,71=1,72=1,74=-55/1,2,3;
 4//1;
 5/5=2,38=5,53=1/2;
 6/7=2,8=2,9=2,10=2,28=1/1;
 7//1,2,3,16;
 1/18=20,19=15,26=3/3(2);
 2/9=110/2;
 99//99;
 2/9=110/2;
 3/5=1,6=6,7=111,11=2,25=1,30=1,70=32205,71=1,72=1,74=-55/1,2,3;
 4/5=5,16=3,69=1/1;
 5/5=2,38=5,53=1/2;
 7//1,2,3,16;
 1/18=20,19=15,26=3/3(-5);
 2/9=110/2;
 6/7=2,8=2,9=2,10=2,19=2,28=1/1;
 99/9=1/99;
 -------------------
 Title Card Required
 -------------------
 Symbolic Z-matrix:
 Charge = -1 Multiplicity = 2
 N                     0.30736  -1.06029  -0.01227 
 N                     0.50194   0.24994  -0.00044 
 N                     1.77678   0.59969   0.01208 
 N                     2.4535   -0.50262   0.00888 
 C                     1.54148  -1.50997  -0.00599 
 C                    -0.5564    1.2507   -0.0021 
 O                    -0.2353    2.41437   0.01328 
 O                    -1.75566   0.78625  -0.01991 
 H                    -3.22042  -1.68227   0.56358 
 H                     1.80015  -2.55697  -0.01202 
 O                    -2.50793  -1.54873  -0.07946 
 H                    -1.80177  -2.16925   0.15663 
 H                    -1.97446  -0.25806  -0.02859 
 
 Add virtual bond connecting atoms H13        and O11        Dist= 2.64D+00.

 GradGradGradGradGradGradGradGradGradGradGradGradGradGradGradGradGradGrad
 Berny optimization.
 Initialization pass.
                           ----------------------------
                           !    Initial Parameters    !
                           ! (Angstroms and Degrees)  !
 --------------------------                            --------------------------
 ! Name  Definition              Value          Derivative Info.                !
 --------------------------------------------------------------------------------
 ! R1    R(1,2)                  1.3246         estimate D2E/DX2                !
 ! R2    R(1,5)                  1.3135         estimate D2E/DX2                !
 ! R3    R(2,3)                  1.322          estimate D2E/DX2                !
 ! R4    R(2,6)                  1.4566         estimate D2E/DX2                !
 ! R5    R(3,4)                  1.2935         estimate D2E/DX2                !
 ! R6    R(4,5)                  1.359          estimate D2E/DX2                !
 ! R7    R(5,10)                 1.0785         estimate D2E/DX2                !
 ! R8    R(6,7)                  1.2073         estimate D2E/DX2                !
 ! R9    R(6,8)                  1.2862         estimate D2E/DX2                !
 ! R10   R(8,13)                 1.067          estimate D2E/DX2                !
 ! R11   R(9,11)                 0.969          estimate D2E/DX2                !
 ! R12   R(11,12)                0.9692         estimate D2E/DX2                !
 ! R13   R(11,13)                1.3975         estimate D2E/DX2                !
 ! A1    A(2,1,5)              101.5703         estimate D2E/DX2                !
 ! A2    A(1,2,3)              113.7922         estimate D2E/DX2                !
 ! A3    A(1,2,6)              124.9488         estimate D2E/DX2                !
 ! A4    A(3,2,6)              121.2589         estimate D2E/DX2                !
 ! A5    A(2,3,4)              106.2019         estimate D2E/DX2                !
 ! A6    A(3,4,5)              106.2983         estimate D2E/DX2                !
 ! A7    A(1,5,4)              112.1372         estimate D2E/DX2                !
 ! A8    A(1,5,10)             123.8952         estimate D2E/DX2                !
 ! A9    A(4,5,10)             123.9676         estimate D2E/DX2                !
 ! A10   A(2,6,7)              117.9691         estimate D2E/DX2                !
 ! A11   A(2,6,8)              115.4297         estimate D2E/DX2                !
 ! A12   A(7,6,8)              126.6012         estimate D2E/DX2                !
 ! A13   A(6,8,13)             123.0068         estimate D2E/DX2                !
 ! A14   A(9,11,12)            106.6079         estimate D2E/DX2                !
 ! A15   A(9,11,13)            112.5695         estimate D2E/DX2                !
 ! A16   A(12,11,13)           107.7156         estimate D2E/DX2                !
 ! A17   L(8,13,11,1,-1)       190.6314         estimate D2E/DX2                !
 ! A18   L(8,13,11,1,-2)       181.5468         estimate D2E/DX2                !
 ! D1    D(5,1,2,3)              0.0167         estimate D2E/DX2                !
 ! D2    D(5,1,2,6)            179.9472         estimate D2E/DX2                !
 ! D3    D(2,1,5,4)             -0.0131         estimate D2E/DX2                !
 ! D4    D(2,1,5,10)           179.9912         estimate D2E/DX2                !
 ! D5    D(1,2,3,4)             -0.0142         estimate D2E/DX2                !
 ! D6    D(6,2,3,4)           -179.9475         estimate D2E/DX2                !
 ! D7    D(1,2,6,7)            179.8089         estimate D2E/DX2                !
 ! D8    D(1,2,6,8)             -0.1779         estimate D2E/DX2                !
 ! D9    D(3,2,6,7)             -0.2656         estimate D2E/DX2                !
 ! D10   D(3,2,6,8)            179.7477         estimate D2E/DX2                !
 ! D11   D(2,3,4,5)              0.005          estimate D2E/DX2                !
 ! D12   D(3,4,5,1)              0.0055         estimate D2E/DX2                !
 ! D13   D(3,4,5,10)          -179.9989         estimate D2E/DX2                !
 ! D14   D(2,6,8,13)             0.2647         estimate D2E/DX2                !
 ! D15   D(7,6,8,13)          -179.7207         estimate D2E/DX2                !
 ! D16   D(6,8,11,9)           134.482          estimate D2E/DX2                !
 ! D17   D(6,8,11,12)           15.9708         estimate D2E/DX2                !
 ! D18   D(9,11,12,13)        -121.0461         estimate D2E/DX2                !
 --------------------------------------------------------------------------------
 Trust Radius=3.00D-01 FncErr=1.00D-07 GrdErr=1.00D-06 EigMax=2.50D+02 EigMin=1.00D-04
 Number of steps in this run=     59 maximum allowed number of steps=    100.
 GradGradGradGradGradGradGradGradGradGradGradGradGradGradGradGradGradGrad

                          Input orientation:                          
 ---------------------------------------------------------------------
 Center     Atomic      Atomic             Coordinates (Angstroms)
 Number     Number       Type             X           Y           Z
 ---------------------------------------------------------------------
      1          7           0        0.307363   -1.060287   -0.012271
      2          7           0        0.501942    0.249935   -0.000441
      3          7           0        1.776780    0.599694    0.012083
      4          7           0        2.453497   -0.502618    0.008875
      5          6           0        1.541484   -1.509973   -0.005992
      6          6           0       -0.556396    1.250696   -0.002099
      7          8           0       -0.235303    2.414373    0.013278
      8          8           0       -1.755659    0.786245   -0.019913
      9          1           0       -3.220421   -1.682274    0.563583
     10          1           0        1.800153   -2.556973   -0.012017
     11          8           0       -2.507926   -1.548726   -0.079462
     12          1           0       -1.801771   -2.169247    0.156627
     13          1           0       -1.974461   -0.258055   -0.028594
 ---------------------------------------------------------------------
                    Distance matrix (angstroms):
                    1          2          3          4          5
     1  N    0.000000
     2  N    1.324644   0.000000
     3  N    2.217051   1.322006   0.000000
     4  N    2.217506   2.091648   1.293464   0.000000
     5  C    1.313511   2.044005   2.122825   1.358953   0.000000
     6  C    2.467149   1.456573   2.422337   3.483344   3.467335
     7  O    3.516874   2.286594   2.709528   3.967178   4.307881
     8  O    2.768718   2.320511   3.537506   4.402158   4.017955
     9  H    3.628186   4.231730   5.521191   5.821738   4.798942
    10  H    2.113881   3.092607   3.156846   2.155845   1.078497
    11  O    2.858136   3.507240   4.794037   5.071278   4.050262
    12  H    2.388884   3.344280   4.527025   4.572394   3.411516
    13  H    2.418794   2.528125   3.848272   4.434865   3.732248
                    6          7          8          9         10
     6  C    0.000000
     7  O    1.207262   0.000000
     8  O    1.286182   2.227866   0.000000
     9  H    4.002417   5.098655   2.929092   0.000000
    10  H    4.477920   5.371964   4.880673   5.128604   0.000000
    11  O    3.413388   4.569417   2.453883   0.969016   4.425003
    12  H    3.643098   4.846023   2.961119   1.554131   3.626655
    13  H    2.070734   3.188776   1.067011   1.982798   4.419616
                   11         12         13
    11  O    0.000000
    12  H    0.969247   0.000000
    13  H    1.397499   1.927896   0.000000
 Stoichiometry    C2H4N4O3(1-,2)
 Framework group  C1[X(C2H4N4O3)]
 Deg. of freedom    33
 Full point group                 C1      NOp   1
 Largest Abelian subgroup         C1      NOp   1
 Largest concise Abelian subgroup C1      NOp   1
                         Standard orientation:                         
 ---------------------------------------------------------------------
 Center     Atomic      Atomic             Coordinates (Angstroms)
 Number     Number       Type             X           Y           Z
 ---------------------------------------------------------------------
      1          7           0        0.307363   -1.060287   -0.012271
      2          7           0        0.501942    0.249935   -0.000441
      3          7           0        1.776780    0.599694    0.012083
      4          7           0        2.453497   -0.502619    0.008875
      5          6           0        1.541484   -1.509973   -0.005992
      6          6           0       -0.556396    1.250696   -0.002099
      7          8           0       -0.235302    2.414373    0.013278
      8          8           0       -1.755659    0.786246   -0.019913
      9          1           0       -3.220421   -1.682273    0.563583
     10          1           0        1.800152   -2.556973   -0.012017
     11          8           0       -2.507926   -1.548725   -0.079462
     12          1           0       -1.801772   -2.169246    0.156627
     13          1           0       -1.974461   -0.258054   -0.028594
 ---------------------------------------------------------------------
 Rotational constants (GHZ):           2.2272358           1.4960683           0.8963183
 Standard basis: 6-31+G(d,p) (6D, 7F)
 There are   191 symmetry adapted cartesian basis functions of A   symmetry.
 There are   191 symmetry adapted basis functions of A   symmetry.
   191 basis functions,   316 primitive gaussians,   191 cartesian basis functions
    35 alpha electrons       34 beta electrons
       nuclear repulsion energy       460.2319183314 Hartrees.
 NAtoms=   13 NActive=   13 NUniq=   13 SFac= 1.00D+00 NAtFMM=   60 NAOKFM=F Big=F
 Integral buffers will be    131072 words long.
 Raffenetti 2 integral format.
 Two-electron integral symmetry is turned on.
 ------------------------------------------------------------------------------
 Polarizable Continuum Model (PCM)
 =================================
 Model                : PCM.
 Atomic radii         : SMD-Coulomb.
 Polarization charges : Total charges.
 Charge compensation  : None.
 Solution method      : On-the-fly selection.
 Cavity type          : VdW (van der Waals Surface) (Alpha=1.000).
 Cavity algorithm     : GePol (No added spheres)
                        Default sphere list used, NSphG=   13.
                        Lebedev-Laikov grids with approx.  5.0 points / Ang**2.
                        Smoothing algorithm: York/Karplus (Gamma=1.0000).
                        Polarization charges: spherical gaussians, with
                                              point-specific exponents (IZeta= 3).
                        Self-potential: point-specific (ISelfS= 7).
                        Self-field    : sphere-specific E.n sum rule (ISelfD= 2).
 1st derivatives      : Analytical E(r).r(x)/FMM algorithm (CHGder, D1EAlg=3).
                        Cavity 1st derivative terms included.
 Solvent              : Water, Eps=  78.355300 Eps(inf)=   1.777849
 ------------------------------------------------------------------------------
 Spheres list:
 ISph  on   Nord     Re0    Alpha      Xe            Ye            Ze
    1   N      1    1.8900  1.000      0.307363     -1.060287     -0.012271
    2   N      2    1.8900  1.000      0.501942      0.249935     -0.000441
    3   N      3    1.8900  1.000      1.776780      0.599694      0.012083
    4   N      4    1.8900  1.000      2.453497     -0.502619      0.008875
    5   C      5    1.8500  1.000      1.541484     -1.509973     -0.005992
    6   C      6    1.8500  1.000     -0.556396      1.250696     -0.002099
    7   O      7    1.5200  1.000     -0.235302      2.414373      0.013278
    8   O      8    1.5200  1.000     -1.755659      0.786246     -0.019913
    9   H      9    1.2000  1.000     -3.220421     -1.682273      0.563583
   10   H     10    1.2000  1.000      1.800152     -2.556973     -0.012017
   11   O     11    1.5200  1.000     -2.507926     -1.548725     -0.079462
   12   H     12    1.2000  1.000     -1.801772     -2.169246      0.156627
   13   H     13    1.2000  1.000     -1.974461     -0.258054     -0.028594
 ------------------------------------------------------------------------------
 ------------------------------------------------------------------------------
 Atomic radii for non-electrostatic terms: SMD-CDS.
 ------------------------------------------------------------------------------
 Nuclear repulsion after PCM non-electrostatic terms =      460.2384381465 Hartrees.
 One-electron integrals computed using PRISM.
 NBasis=   191 RedAO= T EigKep=  2.50D-05  NBF=   191
 NBsUse=   191 1.00D-06 EigRej= -1.00D+00 NBFU=   191
 ExpMin= 4.38D-02 ExpMax= 5.48D+03 ExpMxC= 8.25D+02 IAcc=3 IRadAn=         5 AccDes= 0.00D+00
 Harris functional with IExCor= 1009 and IRadAn=       5 diagonalized for initial guess.
 HarFok:  IExCor= 1009 AccDes= 0.00D+00 IRadAn=         5 IDoV= 1 UseB2=F ITyADJ=14
 ICtDFT=  3500011 ScaDFX=  1.000000  1.000000  1.000000  1.000000
 FoFCou: FMM=F IPFlag=           0 FMFlag=      100000 FMFlg1=           0
         NFxFlg=           0 DoJE=T BraDBF=F KetDBF=T FulRan=T
         wScrn=  0.000000 ICntrl=       500 IOpCl=  0 I1Cent=   200000004 NGrid=           0
         NMat0=    1 NMatS0=      1 NMatT0=    0 NMatD0=    1 NMtDS0=    0 NMtDT0=    0
 Petite list used in FoFCou.
 Initial guess <Sx>= 0.0000 <Sy>= 0.0000 <Sz>= 0.5000 <S**2>= 0.7500 S= 0.5000
 Requested convergence on RMS density matrix=1.00D-08 within 128 cycles.
 Requested convergence on MAX density matrix=1.00D-06.
 Requested convergence on             energy=1.00D-06.
 No special actions if energy rises.
 Inv3:  Mode=1 IEnd=     3837483.
 Iteration    1 A*A^-1 deviation from unit magnitude is 3.33D-15 for    939.
 Iteration    1 A*A^-1 deviation from orthogonality  is 2.33D-15 for    937    721.
 Iteration    1 A^-1*A deviation from unit magnitude is 3.22D-15 for    388.
 Iteration    1 A^-1*A deviation from orthogonality  is 2.92D-15 for    307     16.
 Error on total polarization charges =  0.05054
 SCF Done:  E(UM062X) =  -523.196209640     A.U. after   19 cycles
            NFock= 19  Conv=0.48D-08     -V/T= 2.0074
 <Sx>= 0.0000 <Sy>= 0.0000 <Sz>= 0.5000 <S**2>= 0.7617 S= 0.5058
 <L.S>=  0.00000000000    
 SMD-CDS (non-electrostatic) energy       (kcal/mol) =       4.09
 (included in total energy above)
 Annihilation of the first spin contaminant:
 S**2 before annihilation     0.7617,   after     0.7501

 **********************************************************************

            Population analysis using the SCF density.

 **********************************************************************

 Orbital symmetries:
 Alpha Orbitals:
       Occupied  (A) (A) (A) (A) (A) (A) (A) (A) (A) (A) (A) (A)
                 (A) (A) (A) (A) (A) (A) (A) (A) (A) (A) (A) (A)
                 (A) (A) (A) (A) (A) (A) (A) (A) (A) (A) (A)
       Virtual   (A) (A) (A) (A) (A) (A) (A) (A) (A) (A) (A) (A)
                 (A) (A) (A) (A) (A) (A) (A) (A) (A) (A) (A) (A)
                 (A) (A) (A) (A) (A) (A) (A) (A) (A) (A) (A) (A)
                 (A) (A) (A) (A) (A) (A) (A) (A) (A) (A) (A) (A)
                 (A) (A) (A) (A) (A) (A) (A) (A) (A) (A) (A) (A)
                 (A) (A) (A) (A) (A) (A) (A) (A) (A) (A) (A) (A)
                 (A) (A) (A) (A) (A) (A) (A) (A) (A) (A) (A) (A)
                 (A) (A) (A) (A) (A) (A) (A) (A) (A) (A) (A) (A)
                 (A) (A) (A) (A) (A) (A) (A) (A) (A) (A) (A) (A)
                 (A) (A) (A) (A) (A) (A) (A) (A) (A) (A) (A) (A)
                 (A) (A) (A) (A) (A) (A) (A) (A) (A) (A) (A) (A)
                 (A) (A) (A) (A) (A) (A) (A) (A) (A) (A) (A) (A)
                 (A) (A) (A) (A) (A) (A) (A) (A) (A) (A) (A) (A)
 Beta  Orbitals:
       Occupied  (A) (A) (A) (A) (A) (A) (A) (A) (A) (A) (A) (A)
                 (A) (A) (A) (A) (A) (A) (A) (A) (A) (A) (A) (A)
                 (A) (A) (A) (A) (A) (A) (A) (A) (A) (A)
       Virtual   (A) (A) (A) (A) (A) (A) (A) (A) (A) (A) (A) (A)
                 (A) (A) (A) (A) (A) (A) (A) (A) (A) (A) (A) (A)
                 (A) (A) (A) (A) (A) (A) (A) (A) (A) (A) (A) (A)
                 (A) (A) (A) (A) (A) (A) (A) (A) (A) (A) (A) (A)
                 (A) (A) (A) (A) (A) (A) (A) (A) (A) (A) (A) (A)
                 (A) (A) (A) (A) (A) (A) (A) (A) (A) (A) (A) (A)
                 (A) (A) (A) (A) (A) (A) (A) (A) (A) (A) (A) (A)
                 (A) (A) (A) (A) (A) (A) (A) (A) (A) (A) (A) (A)
                 (A) (A) (A) (A) (A) (A) (A) (A) (A) (A) (A) (A)
                 (A) (A) (A) (A) (A) (A) (A) (A) (A) (A) (A) (A)
                 (A) (A) (A) (A) (A) (A) (A) (A) (A) (A) (A) (A)
                 (A) (A) (A) (A) (A) (A) (A) (A) (A) (A) (A) (A)
                 (A) (A) (A) (A) (A) (A) (A) (A) (A) (A) (A) (A)
                 (A)
 The electronic state is 2-A.
 Alpha  occ. eigenvalues --  -19.67549 -19.65896 -19.61890 -14.84299 -14.77636
 Alpha  occ. eigenvalues --  -14.76683 -14.76033 -10.69296 -10.57982  -1.25287
 Alpha  occ. eigenvalues --   -1.21198  -1.16474  -1.13053  -1.02916  -0.95866
 Alpha  occ. eigenvalues --   -0.76776  -0.71282  -0.69731  -0.64393  -0.62696
 Alpha  occ. eigenvalues --   -0.58160  -0.55058  -0.51898  -0.51748  -0.51382
 Alpha  occ. eigenvalues --   -0.46365  -0.43683  -0.40935  -0.39379  -0.37677
 Alpha  occ. eigenvalues --   -0.37469  -0.36059  -0.34537  -0.33595  -0.13290
 Alpha virt. eigenvalues --    0.02425   0.04661   0.04843   0.05064   0.06802
 Alpha virt. eigenvalues --    0.07161   0.07326   0.09778   0.10384   0.11063
 Alpha virt. eigenvalues --    0.11132   0.13264   0.15278   0.15898   0.18596
 Alpha virt. eigenvalues --    0.19542   0.20548   0.20824   0.21451   0.22571
 Alpha virt. eigenvalues --    0.22963   0.23759   0.24022   0.25226   0.25801
 Alpha virt. eigenvalues --    0.26639   0.27729   0.28058   0.28697   0.29326
 Alpha virt. eigenvalues --    0.29538   0.30308   0.30587   0.32772   0.32939
 Alpha virt. eigenvalues --    0.33209   0.34334   0.35170   0.36057   0.38165
 Alpha virt. eigenvalues --    0.38577   0.39890   0.42049   0.46217   0.46998
 Alpha virt. eigenvalues --    0.48935   0.50820   0.52277   0.57912   0.67597
 Alpha virt. eigenvalues --    0.74586   0.80430   0.82688   0.86296   0.88965
 Alpha virt. eigenvalues --    0.92762   0.93474   0.97464   0.98253   0.99695
 Alpha virt. eigenvalues --    1.00474   1.00736   1.02483   1.03321   1.03880
 Alpha virt. eigenvalues --    1.05524   1.09630   1.11865   1.14483   1.17392
 Alpha virt. eigenvalues --    1.18164   1.20005   1.23978   1.24934   1.26217
 Alpha virt. eigenvalues --    1.27649   1.29210   1.31403   1.33575   1.34111
 Alpha virt. eigenvalues --    1.38169   1.40145   1.40768   1.40990   1.44006
 Alpha virt. eigenvalues --    1.45140   1.46106   1.49507   1.50669   1.52203
 Alpha virt. eigenvalues --    1.54029   1.57772   1.62356   1.63396   1.65072
 Alpha virt. eigenvalues --    1.66214   1.71802   1.72514   1.78517   1.83143
 Alpha virt. eigenvalues --    1.86108   1.88849   1.96196   1.97444   1.99830
 Alpha virt. eigenvalues --    2.03147   2.04844   2.06373   2.14280   2.19141
 Alpha virt. eigenvalues --    2.22587   2.23676   2.26038   2.27615   2.30010
 Alpha virt. eigenvalues --    2.34291   2.39779   2.40497   2.44480   2.49078
 Alpha virt. eigenvalues --    2.53199   2.55008   2.57470   2.64054   2.65524
 Alpha virt. eigenvalues --    2.67323   2.68102   2.69503   2.74872   2.79082
 Alpha virt. eigenvalues --    2.79667   2.82579   2.86350   2.88208   2.92445
 Alpha virt. eigenvalues --    2.96551   3.03359   3.08574   3.09509   3.10390
 Alpha virt. eigenvalues --    3.20052   3.29005   3.36064   3.44925   3.57677
 Alpha virt. eigenvalues --    3.60416   3.80395   4.04710   4.09744   4.26090
 Alpha virt. eigenvalues --    4.31155   4.39012   4.42227   4.56393   4.59863
 Alpha virt. eigenvalues --    4.91904
  Beta  occ. eigenvalues --  -19.67547 -19.65807 -19.61704 -14.84167 -14.77049
  Beta  occ. eigenvalues --  -14.76348 -14.75930 -10.69180 -10.58024  -1.24501
  Beta  occ. eigenvalues --   -1.20643  -1.16415  -1.12611  -1.01834  -0.94935
  Beta  occ. eigenvalues --   -0.75629  -0.70819  -0.69377  -0.63795  -0.62452
  Beta  occ. eigenvalues --   -0.56212  -0.54607  -0.51648  -0.51485  -0.49918
  Beta  occ. eigenvalues --   -0.46215  -0.43021  -0.40454  -0.37688  -0.36916
  Beta  occ. eigenvalues --   -0.35301  -0.34462  -0.32686  -0.31699
  Beta virt. eigenvalues --    0.02091   0.02730   0.04417   0.04519   0.04709
  Beta virt. eigenvalues --    0.06611   0.06800   0.07928   0.09699   0.10822
  Beta virt. eigenvalues --    0.11440   0.13132   0.13535   0.14633   0.15642
  Beta virt. eigenvalues --    0.18523   0.19520   0.20358   0.20817   0.21035
  Beta virt. eigenvalues --    0.22304   0.22695   0.23663   0.23987   0.24999
  Beta virt. eigenvalues --    0.25871   0.26648   0.27142   0.27889   0.28474
  Beta virt. eigenvalues --    0.29295   0.29373   0.30208   0.30382   0.32799
  Beta virt. eigenvalues --    0.32978   0.33167   0.34269   0.34975   0.36091
  Beta virt. eigenvalues --    0.37808   0.38538   0.39578   0.41766   0.45982
  Beta virt. eigenvalues --    0.46760   0.49264   0.51000   0.52438   0.58281
  Beta virt. eigenvalues --    0.67994   0.74417   0.81145   0.82954   0.86318
  Beta virt. eigenvalues --    0.89086   0.92686   0.93513   0.98270   0.99227
  Beta virt. eigenvalues --    1.00457   1.00710   1.00926   1.03314   1.03998
  Beta virt. eigenvalues --    1.04197   1.06684   1.09617   1.11925   1.14710
  Beta virt. eigenvalues --    1.17731   1.18191   1.20062   1.23978   1.25263
  Beta virt. eigenvalues --    1.26283   1.27601   1.30036   1.31454   1.33659
  Beta virt. eigenvalues --    1.34588   1.38265   1.40256   1.41087   1.41613
  Beta virt. eigenvalues --    1.44068   1.46115   1.46302   1.50224   1.50894
  Beta virt. eigenvalues --    1.52521   1.54231   1.57895   1.62460   1.64691
  Beta virt. eigenvalues --    1.65748   1.66394   1.71977   1.72669   1.78740
  Beta virt. eigenvalues --    1.83567   1.86243   1.88977   1.96456   1.97636
  Beta virt. eigenvalues --    2.00153   2.03840   2.05120   2.06462   2.14301
  Beta virt. eigenvalues --    2.19493   2.22964   2.23885   2.26201   2.27852
  Beta virt. eigenvalues --    2.30620   2.34730   2.40258   2.41054   2.44641
  Beta virt. eigenvalues --    2.49414   2.53579   2.55416   2.57572   2.64559
  Beta virt. eigenvalues --    2.65885   2.68050   2.68308   2.69753   2.75199
  Beta virt. eigenvalues --    2.79608   2.80532   2.82811   2.86502   2.88463
  Beta virt. eigenvalues --    2.92902   2.96880   3.03593   3.08782   3.09666
  Beta virt. eigenvalues --    3.10564   3.20304   3.29445   3.36445   3.45069
  Beta virt. eigenvalues --    3.57615   3.60423   3.80440   4.04838   4.09940
  Beta virt. eigenvalues --    4.26048   4.31303   4.39008   4.42235   4.56421
  Beta virt. eigenvalues --    4.61065   4.91796
          Condensed to atoms (all electrons):
               1          2          3          4          5          6
     1  N    8.108890  -0.289541  -0.269109  -0.088867   0.268738  -0.030641
     2  N   -0.289541   7.857523  -0.879072   0.300893  -0.189696   0.260333
     3  N   -0.269109  -0.879072   8.902541  -0.404441   0.137781  -0.100028
     4  N   -0.088867   0.300893  -0.404441   7.385455   0.270774   0.009756
     5  C    0.268738  -0.189696   0.137781   0.270774   5.118177  -0.007650
     6  C   -0.030641   0.260333  -0.100028   0.009756  -0.007650   4.459852
     7  O    0.032320  -0.095682  -0.050753   0.013751  -0.008873   0.378153
     8  O   -0.073996  -0.078561   0.036299  -0.001513  -0.008804   0.234026
     9  H    0.000685   0.000522   0.000130  -0.000020   0.000072   0.000031
    10  H   -0.062852   0.006562  -0.002698  -0.038749   0.428856   0.000524
    11  O   -0.025245  -0.008261   0.001917  -0.002433  -0.002157   0.004524
    12  H   -0.001551   0.008464   0.000557  -0.000127   0.000304  -0.000969
    13  H    0.017698  -0.001102   0.003548  -0.001454   0.002528  -0.013492
               7          8          9         10         11         12
     1  N    0.032320  -0.073996   0.000685  -0.062852  -0.025245  -0.001551
     2  N   -0.095682  -0.078561   0.000522   0.006562  -0.008261   0.008464
     3  N   -0.050753   0.036299   0.000130  -0.002698   0.001917   0.000557
     4  N    0.013751  -0.001513  -0.000020  -0.038749  -0.002433  -0.000127
     5  C   -0.008873  -0.008804   0.000072   0.428856  -0.002157   0.000304
     6  C    0.378153   0.234026   0.000031   0.000524   0.004524  -0.000969
     7  O    8.484602  -0.074805   0.000013   0.000018  -0.001878   0.000040
     8  O   -0.074805   8.515930   0.000702   0.000006  -0.040200   0.000469
     9  H    0.000013   0.000702   0.270418  -0.000001   0.288263  -0.015599
    10  H    0.000018   0.000006  -0.000001   0.470719  -0.000119  -0.000012
    11  O   -0.001878  -0.040200   0.288263  -0.000119   8.279218   0.282186
    12  H    0.000040   0.000469  -0.015599  -0.000012   0.282186   0.265757
    13  H    0.004799   0.178574  -0.003263  -0.000001   0.032157  -0.003574
              13
     1  N    0.017698
     2  N   -0.001102
     3  N    0.003548
     4  N   -0.001454
     5  C    0.002528
     6  C   -0.013492
     7  O    0.004799
     8  O    0.178574
     9  H   -0.003263
    10  H   -0.000001
    11  O    0.032157
    12  H   -0.003574
    13  H    0.222551
          Atomic-Atomic Spin Densities.
               1          2          3          4          5          6
     1  N    0.555849  -0.241376   0.132551  -0.063363  -0.129286  -0.041488
     2  N   -0.241376   0.389585  -0.349665   0.104075   0.073149   0.143540
     3  N    0.132551  -0.349665   0.955788  -0.297254  -0.050888  -0.048726
     4  N   -0.063363   0.104075  -0.297254   0.276400   0.076986   0.008926
     5  C   -0.129286   0.073149  -0.050888   0.076986  -0.013490   0.003005
     6  C   -0.041488   0.143540  -0.048726   0.008926   0.003005   0.238559
     7  O    0.010974  -0.049265   0.034807  -0.005520  -0.002002  -0.086581
     8  O    0.017962  -0.032726   0.008514  -0.001842  -0.001964  -0.052142
     9  H   -0.000321   0.000054   0.000004  -0.000001   0.000019   0.000017
    10  H   -0.003835   0.002869  -0.000606   0.000873   0.001354   0.000002
    11  O    0.001333   0.001273  -0.000489   0.000144   0.000159  -0.000112
    12  H   -0.001049   0.000257   0.000121  -0.000024  -0.000020  -0.000005
    13  H    0.000664  -0.001617   0.000111  -0.000032  -0.000069   0.000494
               7          8          9         10         11         12
     1  N    0.010974   0.017962  -0.000321  -0.003835   0.001333  -0.001049
     2  N   -0.049265  -0.032726   0.000054   0.002869   0.001273   0.000257
     3  N    0.034807   0.008514   0.000004  -0.000606  -0.000489   0.000121
     4  N   -0.005520  -0.001842  -0.000001   0.000873   0.000144  -0.000024
     5  C   -0.002002  -0.001964   0.000019   0.001354   0.000159  -0.000020
     6  C   -0.086581  -0.052142   0.000017   0.000002  -0.000112  -0.000005
     7  O    0.169022   0.015449  -0.000004   0.000003   0.000019   0.000002
     8  O    0.015449   0.074851  -0.000106  -0.000005  -0.000461   0.000031
     9  H   -0.000004  -0.000106   0.000554   0.000000  -0.000140   0.000025
    10  H    0.000003  -0.000005   0.000000  -0.000224  -0.000007   0.000003
    11  O    0.000019  -0.000461  -0.000140  -0.000007  -0.001488   0.000261
    12  H    0.000002   0.000031   0.000025   0.000003   0.000261   0.000270
    13  H   -0.000103  -0.000403  -0.000077   0.000001   0.000899  -0.000021
              13
     1  N    0.000664
     2  N   -0.001617
     3  N    0.000111
     4  N   -0.000032
     5  C   -0.000069
     6  C    0.000494
     7  O   -0.000103
     8  O   -0.000403
     9  H   -0.000077
    10  H    0.000001
    11  O    0.000899
    12  H   -0.000021
    13  H   -0.000348
 Mulliken charges and spin densities:
               1          2
     1  N   -0.586529   0.238615
     2  N    0.107617   0.040154
     3  N   -0.376673   0.384270
     4  N   -0.443025   0.099369
     5  C   -0.010051  -0.043047
     6  C    0.805581   0.165488
     7  O   -0.681707   0.086801
     8  O   -0.688126   0.027159
     9  H    0.458048   0.000024
    10  H    0.197748   0.000426
    11  O   -0.807970   0.001390
    12  H    0.464055  -0.000148
    13  H    0.561031  -0.000500
 Sum of Mulliken charges =  -1.00000   1.00000
 Mulliken charges and spin densities with hydrogens summed into heavy atoms:
               1          2
     1  N   -0.586529   0.238615
     2  N    0.107617   0.040154
     3  N   -0.376673   0.384270
     4  N   -0.443025   0.099369
     5  C    0.187697  -0.042621
     6  C    0.805581   0.165488
     7  O   -0.681707   0.086801
     8  O   -0.127095   0.026658
    11  O    0.114133   0.001266
 Electronic spatial extent (au):  <R**2>=           1211.3277
 Charge=             -1.0000 electrons
 Dipole moment (field-independent basis, Debye):
    X=             -8.0978    Y=            -10.6758    Z=              1.8869  Tot=             13.5317
 Quadrupole moment (field-independent basis, Debye-Ang):
   XX=            -68.4849   YY=            -65.4854   ZZ=            -54.7380
   XY=              6.6010   XZ=             -6.0017   YZ=             -3.7166
 Traceless Quadrupole moment (field-independent basis, Debye-Ang):
   XX=             -5.5822   YY=             -2.5826   ZZ=              8.1648
   XY=              6.6010   XZ=             -6.0017   YZ=             -3.7166
 Octapole moment (field-independent basis, Debye-Ang**2):
  XXX=           -110.4894  YYY=            -79.4387  ZZZ=              1.4889  XYY=            -13.9029
  XXY=            -31.4648  XXZ=             17.9435  XZZ=            -11.4733  YZZ=             -0.4745
  YYZ=              6.6920  XYZ=             10.4603
 Hexadecapole moment (field-independent basis, Debye-Ang**3):
 XXXX=           -948.7196 YYYY=           -664.2439 ZZZZ=            -56.8516 XXXY=            101.0427
 XXXZ=            -60.0274 YYYX=             34.9595 YYYZ=            -15.1676 ZZZX=             -5.1220
 ZZZY=             -3.0927 XXYY=           -221.6195 XXZZ=           -160.0578 YYZZ=           -114.8811
 XXYZ=            -32.0090 YYXZ=            -20.2550 ZZXY=              9.4309
 N-N= 4.602384381465D+02 E-N=-2.159564434655D+03  KE= 5.193446721772D+02
                          Isotropic Fermi Contact Couplings
        Atom                 a.u.       MegaHertz       Gauss      10(-4) cm-1
     1  N(14)              0.05814      18.78519       6.70302       6.26606
     2  N(14)             -0.00228      -0.73744      -0.26314      -0.24598
     3  N(14)              0.09971      32.21667      11.49571      10.74632
     4  N(14)              0.01473       4.75913       1.69818       1.58747
     5  C(13)             -0.01313     -14.76218      -5.26751      -4.92413
     6  C(13)              0.02371      26.65703       9.51189       8.89183
     7  O(17)              0.02081     -12.61796      -4.50240      -4.20890
     8  O(17)              0.00778      -4.71894      -1.68383      -1.57407
     9  H(1)               0.00003       0.13815       0.04930       0.04608
    10  H(1)              -0.00005      -0.21810      -0.07782      -0.07275
    11  O(17)             -0.00101       0.61117       0.21808       0.20386
    12  H(1)              -0.00000      -0.00825      -0.00295      -0.00275
    13  H(1)              -0.00052      -2.30208      -0.82144      -0.76789
 --------------------------------------------------------
       Center         ----  Spin Dipole Couplings  ----
                      3XX-RR        3YY-RR        3ZZ-RR
 --------------------------------------------------------
     1   Atom       -0.262047     -0.258388      0.520435
     2   Atom       -0.123094     -0.130283      0.253377
     3   Atom       -0.445636     -0.448505      0.894141
     4   Atom       -0.101134     -0.096648      0.197782
     5   Atom        0.021726      0.019876     -0.041601
     6   Atom       -0.098641     -0.097462      0.196103
     7   Atom       -0.175839     -0.185711      0.361550
     8   Atom       -0.094104     -0.086070      0.180174
     9   Atom        0.002156     -0.000464     -0.001692
    10   Atom       -0.000737      0.005654     -0.004917
    11   Atom        0.000067     -0.003110      0.003043
    12   Atom        0.002781      0.000594     -0.003375
    13   Atom        0.003037      0.003281     -0.006317
 --------------------------------------------------------
                        XY            XZ            YZ
 --------------------------------------------------------
     1   Atom        0.003287     -0.005542     -0.005115
     2   Atom       -0.001989     -0.003083     -0.002503
     3   Atom        0.000801     -0.009473     -0.010082
     4   Atom        0.001692     -0.002158     -0.002307
     5   Atom        0.000093      0.000432      0.000430
     6   Atom       -0.008126     -0.003202     -0.002689
     7   Atom       -0.005879     -0.005714     -0.005786
     8   Atom       -0.001501     -0.002888     -0.002240
     9   Atom        0.001841     -0.000724     -0.000355
    10   Atom        0.000024      0.000028      0.000082
    11   Atom        0.002445      0.001735      0.000268
    12   Atom        0.004506     -0.000294     -0.000286
    13   Atom        0.004253      0.000085      0.000136
 --------------------------------------------------------


 ---------------------------------------------------------------------------------
              Anisotropic Spin Dipole Couplings in Principal Axis System
 ---------------------------------------------------------------------------------

       Atom             a.u.   MegaHertz   Gauss  10(-4) cm-1        Axes

              Baa    -0.2640   -10.181    -3.633    -3.396  0.8634 -0.5045  0.0028
     1 N(14)  Bbb    -0.2565    -9.894    -3.530    -3.300  0.5044  0.8634  0.0093
              Bcc     0.5205    20.075     7.163     6.696 -0.0071 -0.0066  1.0000
 
              Baa    -0.1308    -5.046    -1.800    -1.683  0.2523  0.9676  0.0083
     2 N(14)  Bbb    -0.1226    -4.728    -1.687    -1.577  0.9676 -0.2524  0.0063
              Bcc     0.2534     9.774     3.488     3.260 -0.0082 -0.0065  0.9999
 
              Baa    -0.4488   -17.307    -6.176    -5.773 -0.2326  0.9725  0.0057
     3 N(14)  Bbb    -0.4455   -17.183    -6.131    -5.732  0.9725  0.2326  0.0086
              Bcc     0.8943    34.491    12.307    11.505 -0.0071 -0.0075  0.9999
 
              Baa    -0.1017    -3.923    -1.400    -1.308  0.9489 -0.3154  0.0044
     4 N(14)  Bbb    -0.0961    -3.707    -1.323    -1.236  0.3154  0.9489  0.0098
              Bcc     0.1978     7.629     2.722     2.545 -0.0073 -0.0079  0.9999
 
              Baa    -0.0416    -5.583    -1.992    -1.862 -0.0068 -0.0070  1.0000
     5 C(13)  Bbb     0.0199     2.667     0.952     0.890 -0.0518  0.9986  0.0066
              Bcc     0.0217     2.916     1.041     0.973  0.9986  0.0518  0.0072
 
              Baa    -0.1063   -14.259    -5.088    -4.756  0.7323  0.6809  0.0138
     6 C(13)  Bbb    -0.0899   -12.064    -4.305    -4.024 -0.6809  0.7324 -0.0007
              Bcc     0.1962    26.323     9.393     8.780 -0.0106 -0.0089  0.9999
 
              Baa    -0.1886    13.644     4.868     4.551  0.4247  0.9052  0.0139
     7 O(17)  Bbb    -0.1731    12.526     4.470     4.178  0.9053 -0.4248  0.0051
              Bcc     0.3617   -26.170    -9.338    -8.729 -0.0105 -0.0105  0.9999
 
              Baa    -0.0944     6.832     2.438     2.279  0.9836  0.1802  0.0118
     8 O(17)  Bbb    -0.0858     6.209     2.216     2.071 -0.1803  0.9836  0.0063
              Bcc     0.1802   -13.041    -4.653    -4.350 -0.0105 -0.0084  0.9999
 
              Baa    -0.0018    -0.974    -0.347    -0.325  0.1614  0.0390  0.9861
     9 H(1)   Bbb    -0.0014    -0.754    -0.269    -0.251 -0.4519  0.8912  0.0387
              Bcc     0.0032     1.727     0.616     0.576  0.8774  0.4519 -0.1614
 
              Baa    -0.0049    -2.624    -0.936    -0.875 -0.0067 -0.0077  0.9999
    10 H(1)   Bbb    -0.0007    -0.393    -0.140    -0.131  1.0000 -0.0039  0.0067
              Bcc     0.0057     3.017     1.077     1.006  0.0038  1.0000  0.0077
 
              Baa    -0.0045     0.325     0.116     0.108 -0.4959  0.8643  0.0835
    11 O(17)  Bbb     0.0004    -0.028    -0.010    -0.009  0.7196  0.4629 -0.5177
              Bcc     0.0041    -0.296    -0.106    -0.099  0.4861  0.1967  0.8515
 
              Baa    -0.0034    -1.812    -0.647    -0.604 -0.0263  0.1010  0.9945
    12 H(1)   Bbb    -0.0029    -1.571    -0.561    -0.524 -0.6186  0.7799 -0.0956
              Bcc     0.0063     3.384     1.207     1.129  0.7853  0.6177 -0.0419
 
              Baa    -0.0063    -3.372    -1.203    -1.125 -0.0034 -0.0127  0.9999
    13 H(1)   Bbb    -0.0011    -0.585    -0.209    -0.195  0.7172 -0.6968 -0.0064
              Bcc     0.0074     3.956     1.412     1.320  0.6968  0.7172  0.0114
 

 ---------------------------------------------------------------------------------

 D1PCM: PCM CHGder 1st derivatives, ID1Alg=3 FixD1E=F DoIter=F DoCFld=F I1PDM=0.
 Calling FoFJK, ICntrl=      2127 FMM=F ISym2X=0 I1Cent= 0 IOpClX= 1 NMat=1 NMatS=1 NMatT=0.
 ***** Axes restored to original set *****
 -------------------------------------------------------------------
 Center     Atomic                   Forces (Hartrees/Bohr)
 Number     Number              X              Y              Z
 -------------------------------------------------------------------
      1        7          -0.028261291   -0.038175024   -0.000489842
      2        7          -0.077606934    0.060331159   -0.000116045
      3        7           0.021908412    0.061724716    0.000682955
      4        7           0.017515206   -0.065695481   -0.000315993
      5        6           0.032165218    0.012571840    0.000286666
      6        6           0.063765743   -0.078490222   -0.000009842
      7        8           0.004528400    0.052960162    0.000541003
      8        8          -0.038625389   -0.011908410   -0.000519939
      9        1           0.000195266   -0.000239992   -0.000479335
     10        1           0.000382897   -0.000628174   -0.000004557
     11        8          -0.004703435   -0.004929325    0.000406800
     12        1           0.002276940    0.001804875   -0.000150759
     13        1           0.006458969    0.010673876    0.000168889
 -------------------------------------------------------------------
 Cartesian Forces:  Max     0.078490222 RMS     0.030769128

 GradGradGradGradGradGradGradGradGradGradGradGradGradGradGradGradGradGrad
 Berny optimization.
 FormGI is forming the generalized inverse of G from B-inverse, IUseBI=4.
 Internal  Forces:  Max     0.056267433 RMS     0.017317465
 Search for a local minimum.
 Step number   1 out of a maximum of   59
 All quantities printed in internal units (Hartrees-Bohrs-Radians)
 Mixed Optimization -- RFO/linear search
 Second derivative matrix not updated -- first step.
 ITU=  0
     Eigenvalues ---    0.00230   0.00230   0.00230   0.00943   0.01642
     Eigenvalues ---    0.01793   0.02362   0.02489   0.02563   0.03194
     Eigenvalues ---    0.04907   0.13031   0.14460   0.16000   0.16000
     Eigenvalues ---    0.16000   0.23493   0.25000   0.25000   0.25000
     Eigenvalues ---    0.25000   0.36177   0.37397   0.37610   0.48391
     Eigenvalues ---    0.53531   0.53579   0.56889   0.57914   0.62331
     Eigenvalues ---    0.67211   0.71182   1.01257
 RFO step:  Lambda=-2.47041207D-02 EMin= 2.30000000D-03
 Linear search not attempted -- first point.
 Iteration  1 RMS(Cart)=  0.12839101 RMS(Int)=  0.00507746
 Iteration  2 RMS(Cart)=  0.00939020 RMS(Int)=  0.00024400
 Iteration  3 RMS(Cart)=  0.00004650 RMS(Int)=  0.00024320
 Iteration  4 RMS(Cart)=  0.00000003 RMS(Int)=  0.00024320
 Variable       Old X    -DE/DX   Delta X   Delta X   Delta X     New X
                                 (Linear)    (Quad)   (Total)
    R1        2.50322   0.03977   0.00000   0.06608   0.06625   2.56946
    R2        2.48218   0.02608   0.00000   0.03447   0.03433   2.51651
    R3        2.49823   0.04588   0.00000   0.07851   0.07874   2.57697
    R4        2.75252  -0.04531   0.00000  -0.11366  -0.11366   2.63886
    R5        2.44429   0.05627   0.00000   0.07991   0.07989   2.52418
    R6        2.56805  -0.01388   0.00000  -0.03178  -0.03202   2.53603
    R7        2.03806   0.00071   0.00000   0.00183   0.00183   2.03989
    R8        2.28139   0.05226   0.00000   0.05038   0.05038   2.33178
    R9        2.43053   0.03374   0.00000   0.04581   0.04581   2.47634
   R10        2.01636  -0.00804   0.00000  -0.02006  -0.02006   1.99630
   R11        1.83117  -0.00043   0.00000  -0.00076  -0.00076   1.83041
   R12        1.83161   0.00046   0.00000   0.00082   0.00082   1.83244
   R13        2.64089   0.00395   0.00000   0.02334   0.02334   2.66423
    A1        1.77274   0.00106   0.00000  -0.00430  -0.00426   1.76848
    A2        1.98605  -0.00950   0.00000  -0.01697  -0.01664   1.96941
    A3        2.18077   0.00123   0.00000  -0.00432  -0.00449   2.17628
    A4        2.11637   0.00827   0.00000   0.02129   0.02113   2.13749
    A5        1.85357  -0.01170   0.00000  -0.01921  -0.01894   1.83464
    A6        1.85525   0.00683   0.00000   0.01078   0.01044   1.86570
    A7        1.95716   0.01331   0.00000   0.02970   0.02939   1.98655
    A8        2.16238  -0.00644   0.00000  -0.01367  -0.01351   2.14887
    A9        2.16364  -0.00688   0.00000  -0.01603  -0.01588   2.14777
   A10        2.05895   0.01104   0.00000   0.04017   0.04017   2.09912
   A11        2.01463   0.00009   0.00000   0.00033   0.00033   2.01496
   A12        2.20961  -0.01113   0.00000  -0.04051  -0.04051   2.16910
   A13        2.14687  -0.00860   0.00000  -0.04657  -0.04657   2.10031
   A14        1.86066   0.00121   0.00000   0.00537   0.00612   1.86678
   A15        1.96471   0.00138   0.00000   0.00669   0.00662   1.97132
   A16        1.87999  -0.00448   0.00000  -0.02490  -0.02464   1.85535
   A17        3.32715  -0.00323   0.00000  -0.12003  -0.11995   3.20720
   A18        3.16859   0.00020   0.00000   0.00558   0.00579   3.17438
    D1        0.00029  -0.00003   0.00000  -0.00065  -0.00063  -0.00034
    D2        3.14067   0.00004   0.00000   0.00084   0.00083   3.14150
    D3       -0.00023   0.00003   0.00000   0.00074   0.00075   0.00052
    D4        3.14144  -0.00001   0.00000  -0.00007  -0.00007   3.14137
    D5       -0.00025   0.00001   0.00000   0.00031   0.00031   0.00006
    D6       -3.14068  -0.00005   0.00000  -0.00110  -0.00110   3.14140
    D7        3.13826  -0.00010   0.00000  -0.00229  -0.00234   3.13592
    D8       -0.00310   0.00008   0.00000   0.00186   0.00190  -0.00121
    D9       -0.00464  -0.00004   0.00000  -0.00072  -0.00076  -0.00539
   D10        3.13719   0.00014   0.00000   0.00343   0.00347   3.14066
   D11        0.00009   0.00001   0.00000   0.00018   0.00017   0.00026
   D12        0.00010  -0.00003   0.00000  -0.00061  -0.00061  -0.00051
   D13       -3.14157   0.00001   0.00000   0.00021   0.00021  -3.14136
   D14        0.00462  -0.00043   0.00000  -0.00812  -0.00805  -0.00343
   D15       -3.13672  -0.00024   0.00000  -0.00356  -0.00364  -3.14036
   D16        2.34715  -0.00073   0.00000  -0.02081  -0.02163   2.32552
   D17        0.27874  -0.00013   0.00000  -0.01056  -0.00975   0.26899
   D18       -2.11265   0.00013   0.00000   0.00259   0.00213  -2.11052
         Item               Value     Threshold  Converged?
 Maximum Force            0.056267     0.000450     NO 
 RMS     Force            0.017317     0.000300     NO 
 Maximum Displacement     0.480731     0.001800     NO 
 RMS     Displacement     0.134723     0.001200     NO 
 Predicted change in Energy=-1.310000D-02
 GradGradGradGradGradGradGradGradGradGradGradGradGradGradGradGradGradGrad

                          Input orientation:                          
 ---------------------------------------------------------------------
 Center     Atomic      Atomic             Coordinates (Angstroms)
 Number     Number       Type             X           Y           Z
 ---------------------------------------------------------------------
      1          7           0        0.185636   -1.052071   -0.005480
      2          7           0        0.431595    0.285189   -0.000390
      3          7           0        1.763312    0.578378    0.012967
      4          7           0        2.380756   -0.606085    0.016385
      5          6           0        1.422473   -1.545525    0.004914
      6          6           0       -0.553819    1.274590   -0.007516
      7          8           0       -0.237799    2.467304    0.003968
      8          8           0       -1.789487    0.838541   -0.021385
      9          1           0       -3.027022   -1.801738    0.557133
     10          1           0        1.635317   -2.603797    0.004856
     11          8           0       -2.345080   -1.561738   -0.087511
     12          1           0       -1.547379   -2.061489    0.145312
     13          1           0       -1.989221   -0.198770   -0.029596
 ---------------------------------------------------------------------
                    Distance matrix (angstroms):
                    1          2          3          4          5
     1  N    0.000000
     2  N    1.359701   0.000000
     3  N    2.268869   1.363675   0.000000
     4  N    2.240074   2.143334   1.335740   0.000000
     5  C    1.331679   2.081678   2.151093   1.342009   0.000000
     6  C    2.441342   1.396426   2.419550   3.485576   3.443680
     7  O    3.544769   2.282484   2.751830   4.037661   4.342730
     8  O    2.734187   2.289070   3.562477   4.413535   4.000143
     9  H    3.346596   4.077760   5.376650   5.564716   4.490946
    10  H    2.123566   3.129731   3.184758   2.132291   1.079463
    11  O    2.582830   3.335963   4.633473   4.822612   3.768721
    12  H    2.011219   3.073185   4.236400   4.191070   3.017606
    13  H    2.336388   2.468890   3.832398   4.389159   3.668051
                    6          7          8          9         10
     6  C    0.000000
     7  O    1.233923   0.000000
     8  O    1.310422   2.249722   0.000000
     9  H    3.987400   5.129374   2.972751   0.000000
    10  H    4.453577   5.405981   4.855889   4.762952   0.000000
    11  O    3.355558   4.547767   2.464628   0.968613   4.115577
    12  H    3.484242   4.716455   2.914889   1.557694   3.231621
    13  H    2.057099   3.190072   1.056397   1.997696   4.350013
                   11         12         13
    11  O    0.000000
    12  H    0.969683   0.000000
    13  H    1.409848   1.922379   0.000000
 Stoichiometry    C2H4N4O3(1-,2)
 Framework group  C1[X(C2H4N4O3)]
 Deg. of freedom    33
 Full point group                 C1      NOp   1
 Largest Abelian subgroup         C1      NOp   1
 Largest concise Abelian subgroup C1      NOp   1
                         Standard orientation:                         
 ---------------------------------------------------------------------
 Center     Atomic      Atomic             Coordinates (Angstroms)
 Number     Number       Type             X           Y           Z
 ---------------------------------------------------------------------
      1          7           0        0.296932   -1.031519   -0.008959
      2          7           0        0.425176    0.322097   -0.000988
      3          7           0        1.726239    0.730452    0.008522
      4          7           0        2.444780   -0.395557    0.006461
      5          6           0        1.572170   -1.415078   -0.004281
      6          6           0       -0.642903    1.221658   -0.001892
      7          8           0       -0.432218    2.437385    0.011824
      8          8           0       -1.835809    0.679380   -0.012650
      9          1           0       -2.835852   -2.060330    0.562808
     10          1           0        1.876625   -2.450710   -0.008047
     11          8           0       -2.179889   -1.760082   -0.083548
     12          1           0       -1.340725   -2.188823    0.145079
     13          1           0       -1.944214   -0.371388   -0.023065
 ---------------------------------------------------------------------
 Rotational constants (GHZ):           2.1509360           1.6063016           0.9210388
 Standard basis: 6-31+G(d,p) (6D, 7F)
 There are   191 symmetry adapted cartesian basis functions of A   symmetry.
 There are   191 symmetry adapted basis functions of A   symmetry.
   191 basis functions,   316 primitive gaussians,   191 cartesian basis functions
    35 alpha electrons       34 beta electrons
       nuclear repulsion energy       460.9196206415 Hartrees.
 NAtoms=   13 NActive=   13 NUniq=   13 SFac= 1.00D+00 NAtFMM=   60 NAOKFM=F Big=F
 Integral buffers will be    131072 words long.
 Raffenetti 2 integral format.
 Two-electron integral symmetry is turned on.
 ------------------------------------------------------------------------------
 Polarizable Continuum Model (PCM)
 =================================
 Model                : PCM.
 Atomic radii         : SMD-Coulomb.
 Polarization charges : Total charges.
 Charge compensation  : None.
 Solution method      : On-the-fly selection.
 Cavity type          : VdW (van der Waals Surface) (Alpha=1.000).
 Cavity algorithm     : GePol (No added spheres)
                        Default sphere list used, NSphG=   13.
                        Lebedev-Laikov grids with approx.  5.0 points / Ang**2.
                        Smoothing algorithm: York/Karplus (Gamma=1.0000).
                        Polarization charges: spherical gaussians, with
                                              point-specific exponents (IZeta= 3).
                        Self-potential: point-specific (ISelfS= 7).
                        Self-field    : sphere-specific E.n sum rule (ISelfD= 2).
 1st derivatives      : Analytical E(r).r(x)/FMM algorithm (CHGder, D1EAlg=3).
                        Cavity 1st derivative terms included.
 Solvent              : Water, Eps=  78.355300 Eps(inf)=   1.777849
 ------------------------------------------------------------------------------
 Spheres list:
 ISph  on   Nord     Re0    Alpha      Xe            Ye            Ze
    1   N      1    1.8900  1.000      0.296932     -1.031519     -0.008959
    2   N      2    1.8900  1.000      0.425176      0.322097     -0.000988
    3   N      3    1.8900  1.000      1.726239      0.730452      0.008522
    4   N      4    1.8900  1.000      2.444780     -0.395557      0.006461
    5   C      5    1.8500  1.000      1.572170     -1.415078     -0.004281
    6   C      6    1.8500  1.000     -0.642903      1.221658     -0.001892
    7   O      7    1.5200  1.000     -0.432218      2.437385      0.011824
    8   O      8    1.5200  1.000     -1.835809      0.679380     -0.012650
    9   H      9    1.2000  1.000     -2.835852     -2.060330      0.562808
   10   H     10    1.2000  1.000      1.876625     -2.450710     -0.008047
   11   O     11    1.5200  1.000     -2.179889     -1.760082     -0.083548
   12   H     12    1.2000  1.000     -1.340725     -2.188823      0.145079
   13   H     13    1.2000  1.000     -1.944214     -0.371388     -0.023065
 ------------------------------------------------------------------------------
 ------------------------------------------------------------------------------
 Atomic radii for non-electrostatic terms: SMD-CDS.
 ------------------------------------------------------------------------------
 Nuclear repulsion after PCM non-electrostatic terms =      460.9261896409 Hartrees.
 One-electron integrals computed using PRISM.
 NBasis=   191 RedAO= T EigKep=  2.86D-05  NBF=   191
 NBsUse=   191 1.00D-06 EigRej= -1.00D+00 NBFU=   191
 Initial guess from the checkpoint file:  "/scratch/gongke2021/sidanzuo-PC/Gau-18069.chk"
 B after Tr=     0.000000    0.000000    0.000000
         Rot=    0.999203   -0.000352   -0.000380   -0.039916 Ang=  -4.58 deg.
 Initial guess <Sx>= 0.0000 <Sy>= 0.0000 <Sz>= 0.5000 <S**2>= 0.7618 S= 0.5059
 ExpMin= 4.38D-02 ExpMax= 5.48D+03 ExpMxC= 8.25D+02 IAcc=2 IRadAn=         4 AccDes= 0.00D+00
 Harris functional with IExCor= 1009 and IRadAn=       4 diagonalized for initial guess.
 HarFok:  IExCor= 1009 AccDes= 0.00D+00 IRadAn=         4 IDoV= 1 UseB2=F ITyADJ=14
 ICtDFT=  3500011 ScaDFX=  1.000000  1.000000  1.000000  1.000000
 FoFCou: FMM=F IPFlag=           0 FMFlag=      100000 FMFlg1=           0
         NFxFlg=           0 DoJE=T BraDBF=F KetDBF=T FulRan=T
         wScrn=  0.000000 ICntrl=       500 IOpCl=  0 I1Cent=   200000004 NGrid=           0
         NMat0=    1 NMatS0=      1 NMatT0=    0 NMatD0=    1 NMtDS0=    0 NMtDT0=    0
 Petite list used in FoFCou.
 Requested convergence on RMS density matrix=1.00D-08 within 128 cycles.
 Requested convergence on MAX density matrix=1.00D-06.
 Requested convergence on             energy=1.00D-06.
 No special actions if energy rises.
 Inv3:  Mode=1 IEnd=     3803628.
 Iteration    1 A*A^-1 deviation from unit magnitude is 2.89D-15 for    191.
 Iteration    1 A*A^-1 deviation from orthogonality  is 1.55D-15 for   1015    106.
 Iteration    1 A^-1*A deviation from unit magnitude is 2.89D-15 for    191.
 Iteration    1 A^-1*A deviation from orthogonality  is 1.35D-15 for    519    244.
 Error on total polarization charges =  0.04995
 SCF Done:  E(UM062X) =  -523.210222232     A.U. after   17 cycles
            NFock= 17  Conv=0.60D-08     -V/T= 2.0080
 <Sx>= 0.0000 <Sy>= 0.0000 <Sz>= 0.5000 <S**2>= 0.7636 S= 0.5068
 <L.S>=  0.00000000000    
 SMD-CDS (non-electrostatic) energy       (kcal/mol) =       4.12
 (included in total energy above)
 Annihilation of the first spin contaminant:
 S**2 before annihilation     0.7636,   after     0.7501
 D1PCM: PCM CHGder 1st derivatives, ID1Alg=3 FixD1E=F DoIter=F DoCFld=F I1PDM=0.
 Calling FoFJK, ICntrl=      2127 FMM=F ISym2X=0 I1Cent= 0 IOpClX= 1 NMat=1 NMatS=1 NMatT=0.
 ***** Axes restored to original set *****
 -------------------------------------------------------------------
 Center     Atomic                   Forces (Hartrees/Bohr)
 Number     Number              X              Y              Z
 -------------------------------------------------------------------
      1        7           0.003786337   -0.014602769   -0.000130638
      2        7          -0.023722954    0.021991419    0.000002962
      3        7           0.010631911    0.017501596    0.000158184
      4        7          -0.002029158   -0.020171197   -0.000134409
      5        6           0.010807154    0.012320134    0.000159516
      6        6           0.029468933   -0.030798256    0.000624757
      7        8          -0.002428640    0.011566044   -0.000139899
      8        8          -0.018166825    0.000169025   -0.000177055
      9        1          -0.001032965   -0.000083496   -0.001309398
     10        1          -0.000902567   -0.000799006   -0.000005297
     11        8          -0.016878476   -0.008486352    0.001600889
     12        1           0.003015131    0.004586703   -0.000536859
     13        1           0.007452118    0.006806155   -0.000112751
 -------------------------------------------------------------------
 Cartesian Forces:  Max     0.030798256 RMS     0.011498161

 GradGradGradGradGradGradGradGradGradGradGradGradGradGradGradGradGradGrad
 Berny optimization.
 Using GEDIIS/GDIIS optimizer.
 FormGI is forming the generalized inverse of G from B-inverse, IUseBI=4.
 Internal  Forces:  Max     0.042698137 RMS     0.012300401
 Search for a local minimum.
 Step number   2 out of a maximum of   59
 All quantities printed in internal units (Hartrees-Bohrs-Radians)
 Mixed Optimization -- RFO/linear search
 Update second derivatives using D2CorX and points    1    2
 DE= -1.40D-02 DEPred=-1.31D-02 R= 1.07D+00
 TightC=F SS=  1.41D+00  RLast= 2.48D-01 DXNew= 5.0454D-01 7.4345D-01
 Trust test= 1.07D+00 RLast= 2.48D-01 DXMaxT set to 5.05D-01
 ITU=  1  0
 Use linear search instead of GDIIS.
     Eigenvalues ---    0.00229   0.00230   0.00292   0.00943   0.01635
     Eigenvalues ---    0.01740   0.02363   0.02491   0.02564   0.03199
     Eigenvalues ---    0.05054   0.10977   0.12720   0.14804   0.16000
     Eigenvalues ---    0.16449   0.19543   0.23513   0.25000   0.25000
     Eigenvalues ---    0.26091   0.36176   0.37601   0.42165   0.49382
     Eigenvalues ---    0.53532   0.53579   0.57019   0.59277   0.62843
     Eigenvalues ---    0.67448   0.76862   1.02376
 RFO step:  Lambda=-4.81294089D-02 EMin= 2.29392460D-03
 Quartic linear search produced a step of  0.08496.
 Maximum step size (   0.505) exceeded in Quadratic search.
    -- Step size scaled by   0.677
 Iteration  1 RMS(Cart)=  0.29794420 RMS(Int)=  0.03257708
 Iteration  2 RMS(Cart)=  0.14505922 RMS(Int)=  0.00791011
 Iteration  3 RMS(Cart)=  0.01228811 RMS(Int)=  0.00061911
 Iteration  4 RMS(Cart)=  0.00003754 RMS(Int)=  0.00061878
 Iteration  5 RMS(Cart)=  0.00000004 RMS(Int)=  0.00061878
 Variable       Old X    -DE/DX   Delta X   Delta X   Delta X     New X
                                 (Linear)    (Quad)   (Total)
    R1        2.56946   0.01059   0.00563   0.09363   0.09965   2.66911
    R2        2.51651   0.00284   0.00292   0.04454   0.04715   2.56366
    R3        2.57697   0.01552   0.00669   0.11470   0.12189   2.69886
    R4        2.63886  -0.01250  -0.00966  -0.15421  -0.16386   2.47500
    R5        2.52418   0.01160   0.00679   0.11038   0.11707   2.64126
    R6        2.53603  -0.01057  -0.00272  -0.05313  -0.05639   2.47964
    R7        2.03989   0.00061   0.00016   0.00318   0.00334   2.04323
    R8        2.33178   0.01056   0.00428   0.07104   0.07532   2.40709
    R9        2.47634   0.02316   0.00389   0.07852   0.08241   2.55875
   R10        1.99630  -0.00138  -0.00170  -0.02585  -0.02754   1.96877
   R11        1.83041  -0.00012  -0.00006  -0.00108  -0.00114   1.82927
   R12        1.83244  -0.00002   0.00007   0.00098   0.00105   1.83348
   R13        2.66423   0.00761   0.00198   0.05070   0.05267   2.71690
    A1        1.76848   0.00076  -0.00036  -0.00344  -0.00365   1.76483
    A2        1.96941  -0.00630  -0.00141  -0.02994  -0.03056   1.93884
    A3        2.17628   0.01833  -0.00038   0.03672   0.03594   2.21222
    A4        2.13749  -0.01203   0.00179  -0.00678  -0.00538   2.13212
    A5        1.83464  -0.00241  -0.00161  -0.02309  -0.02411   1.81052
    A6        1.86570   0.00191   0.00089   0.01289   0.01294   1.87864
    A7        1.98655   0.00603   0.00250   0.04357   0.04539   2.03194
    A8        2.14887  -0.00409  -0.00115  -0.02423  -0.02504   2.12383
    A9        2.14777  -0.00194  -0.00135  -0.01934  -0.02035   2.12741
   A10        2.09912  -0.01517   0.00341   0.00855   0.01197   2.11108
   A11        2.01496   0.04270   0.00003   0.10136   0.10138   2.11634
   A12        2.16910  -0.02753  -0.00344  -0.10989  -0.11334   2.05576
   A13        2.10031   0.04204  -0.00396   0.09556   0.09160   2.19191
   A14        1.86678   0.00243   0.00052   0.01367   0.01617   1.88295
   A15        1.97132   0.00237   0.00056   0.01410   0.01466   1.98599
   A16        1.85535  -0.00850  -0.00209  -0.05403  -0.05553   1.79983
   A17        3.20720   0.02623  -0.01019   0.36906   0.35898   3.56618
   A18        3.17438  -0.00151   0.00049  -0.02182  -0.02067   3.15370
    D1       -0.00034   0.00007  -0.00005   0.00056   0.00048   0.00014
    D2        3.14150  -0.00014   0.00007  -0.00138  -0.00130   3.14021
    D3        0.00052  -0.00005   0.00006  -0.00033  -0.00026   0.00025
    D4        3.14137  -0.00001  -0.00001  -0.00017  -0.00017   3.14119
    D5        0.00006  -0.00005   0.00003  -0.00055  -0.00050  -0.00044
    D6        3.14140   0.00016  -0.00009   0.00134   0.00119  -3.14059
    D7        3.13592   0.00050  -0.00020   0.00489   0.00467   3.14059
    D8       -0.00121   0.00008   0.00016   0.00156   0.00167   0.00046
    D9       -0.00539   0.00026  -0.00006   0.00278   0.00271  -0.00268
   D10        3.14066  -0.00016   0.00030  -0.00055  -0.00029   3.14037
   D11        0.00026   0.00002   0.00001   0.00031   0.00031   0.00057
   D12       -0.00051   0.00003  -0.00005   0.00001  -0.00004  -0.00055
   D13       -3.14136  -0.00002   0.00002  -0.00014  -0.00012  -3.14149
   D14       -0.00343   0.00078  -0.00068   0.00386   0.00293  -0.00050
   D15       -3.14036   0.00029  -0.00031   0.00001  -0.00032  -3.14068
   D16        2.32552   0.00090  -0.00184   0.01523   0.01115   2.33667
   D17        0.26899  -0.00029  -0.00083  -0.00592  -0.00474   0.26426
   D18       -2.11052   0.00047   0.00018   0.00503   0.00403  -2.10649
         Item               Value     Threshold  Converged?
 Maximum Force            0.042698     0.000450     NO 
 RMS     Force            0.012300     0.000300     NO 
 Maximum Displacement     1.521988     0.001800     NO 
 RMS     Displacement     0.427255     0.001200     NO 
 Predicted change in Energy=-2.785384D-02
 GradGradGradGradGradGradGradGradGradGradGradGradGradGradGradGradGradGrad

                          Input orientation:                          
 ---------------------------------------------------------------------
 Center     Atomic      Atomic             Coordinates (Angstroms)
 Number     Number       Type             X           Y           Z
 ---------------------------------------------------------------------
      1          7           0        0.525700   -1.137538   -0.025828
      2          7           0        0.563174    0.274192   -0.001802
      3          7           0        1.908858    0.752343    0.011962
      4          7           0        2.676268   -0.415721   -0.003949
      5          6           0        1.849450   -1.434401   -0.025071
      6          6           0       -0.465046    1.085394    0.005969
      7          8           0       -0.302870    2.348592    0.029299
      8          8           0       -1.733552    0.612017   -0.008775
      9          1           0       -3.618538   -1.456977    0.599835
     10          1           0        2.202332   -2.456309   -0.040438
     11          8           0       -2.918489   -1.503280   -0.067122
     12          1           0       -2.352780   -2.261928    0.146858
     13          1           0       -2.005224   -0.393594   -0.027281
 ---------------------------------------------------------------------
                    Distance matrix (angstroms):
                    1          2          3          4          5
     1  N    0.000000
     2  N    1.412432   0.000000
     3  N    2.342266   1.428175   0.000000
     4  N    2.268578   2.222871   1.397693   0.000000
     5  C    1.356629   2.138770   2.187864   1.312167   0.000000
     6  C    2.433931   1.309712   2.397161   3.481567   3.421582
     7  O    3.583668   2.248140   2.727646   4.064210   4.352755
     8  O    2.857525   2.321448   3.645171   4.528000   4.126256
     9  H    4.203355   4.565701   5.981538   6.408849   5.503626
    10  H    2.133182   3.184960   3.222471   2.095220   1.081230
    11  O    3.463800   3.909687   5.328919   5.699833   4.768622
    12  H    3.095112   3.867402   5.221646   5.359342   4.286385
    13  H    2.637998   2.653913   4.078573   4.681603   3.992718
                    6          7          8          9         10
     6  C    0.000000
     7  O    1.273780   0.000000
     8  O    1.354034   2.250332   0.000000
     9  H    4.093999   5.079519   2.864317   0.000000
    10  H    4.434041   5.419223   4.990672   5.940634   0.000000
    11  O    3.567346   4.657004   2.425276   0.968009   5.208818
    12  H    3.845511   5.047064   2.944015   1.566932   4.563103
    13  H    2.135570   3.228126   1.041826   2.031462   4.685990
                   11         12         13
    11  O    0.000000
    12  H    0.970238   0.000000
    13  H    1.437722   1.908349   0.000000
 Stoichiometry    C2H4N4O3(1-,2)
 Framework group  C1[X(C2H4N4O3)]
 Deg. of freedom    33
 Full point group                 C1      NOp   1
 Largest Abelian subgroup         C1      NOp   1
 Largest concise Abelian subgroup C1      NOp   1
                         Standard orientation:                         
 ---------------------------------------------------------------------
 Center     Atomic      Atomic             Coordinates (Angstroms)
 Number     Number       Type             X           Y           Z
 ---------------------------------------------------------------------
      1          7           0        0.413233   -1.156776   -0.015825
      2          7           0        0.542136    0.249689   -0.001534
      3          7           0        1.915926    0.639627    0.016731
      4          7           0        2.605972   -0.575846    0.013547
      5          6           0        1.714898   -1.538872   -0.005230
      6          6           0       -0.431287    1.125919   -0.005499
      7          8           0       -0.187584    2.376074    0.009872
      8          8           0       -1.727747    0.735732   -0.024327
      9          1           0       -3.746306   -1.202053    0.587816
     10          1           0        2.000780   -2.581605   -0.011325
     11          8           0       -3.047161   -1.298617   -0.074690
     12          1           0       -2.533049   -2.090757    0.147940
     13          1           0       -2.064018   -0.250247   -0.037332
 ---------------------------------------------------------------------
 Rotational constants (GHZ):           2.3812599           1.2130877           0.8048465
 Standard basis: 6-31+G(d,p) (6D, 7F)
 There are   191 symmetry adapted cartesian basis functions of A   symmetry.
 There are   191 symmetry adapted basis functions of A   symmetry.
   191 basis functions,   316 primitive gaussians,   191 cartesian basis functions
    35 alpha electrons       34 beta electrons
       nuclear repulsion energy       445.0572774748 Hartrees.
 NAtoms=   13 NActive=   13 NUniq=   13 SFac= 1.00D+00 NAtFMM=   60 NAOKFM=F Big=F
 Integral buffers will be    131072 words long.
 Raffenetti 2 integral format.
 Two-electron integral symmetry is turned on.
 ------------------------------------------------------------------------------
 Polarizable Continuum Model (PCM)
 =================================
 Model                : PCM.
 Atomic radii         : SMD-Coulomb.
 Polarization charges : Total charges.
 Charge compensation  : None.
 Solution method      : On-the-fly selection.
 Cavity type          : VdW (van der Waals Surface) (Alpha=1.000).
 Cavity algorithm     : GePol (No added spheres)
                        Default sphere list used, NSphG=   13.
                        Lebedev-Laikov grids with approx.  5.0 points / Ang**2.
                        Smoothing algorithm: York/Karplus (Gamma=1.0000).
                        Polarization charges: spherical gaussians, with
                                              point-specific exponents (IZeta= 3).
                        Self-potential: point-specific (ISelfS= 7).
                        Self-field    : sphere-specific E.n sum rule (ISelfD= 2).
 1st derivatives      : Analytical E(r).r(x)/FMM algorithm (CHGder, D1EAlg=3).
                        Cavity 1st derivative terms included.
 Solvent              : Water, Eps=  78.355300 Eps(inf)=   1.777849
 ------------------------------------------------------------------------------
 Spheres list:
 ISph  on   Nord     Re0    Alpha      Xe            Ye            Ze
    1   N      1    1.8900  1.000      0.413233     -1.156776     -0.015825
    2   N      2    1.8900  1.000      0.542136      0.249689     -0.001534
    3   N      3    1.8900  1.000      1.915926      0.639627      0.016731
    4   N      4    1.8900  1.000      2.605972     -0.575846      0.013547
    5   C      5    1.8500  1.000      1.714898     -1.538872     -0.005230
    6   C      6    1.8500  1.000     -0.431287      1.125919     -0.005499
    7   O      7    1.5200  1.000     -0.187584      2.376074      0.009872
    8   O      8    1.5200  1.000     -1.727747      0.735732     -0.024327
    9   H      9    1.2000  1.000     -3.746306     -1.202053      0.587816
   10   H     10    1.2000  1.000      2.000780     -2.581605     -0.011325
   11   O     11    1.5200  1.000     -3.047161     -1.298617     -0.074690
   12   H     12    1.2000  1.000     -2.533049     -2.090757      0.147940
   13   H     13    1.2000  1.000     -2.064018     -0.250247     -0.037332
 ------------------------------------------------------------------------------
 ------------------------------------------------------------------------------
 Atomic radii for non-electrostatic terms: SMD-CDS.
 ------------------------------------------------------------------------------
 Nuclear repulsion after PCM non-electrostatic terms =      445.0629742717 Hartrees.
 One-electron integrals computed using PRISM.
 NBasis=   191 RedAO= T EigKep=  5.11D-05  NBF=   191
 NBsUse=   191 1.00D-06 EigRej= -1.00D+00 NBFU=   191
 Initial guess from the checkpoint file:  "/scratch/gongke2021/sidanzuo-PC/Gau-18069.chk"
 B after Tr=     0.000000   -0.000000    0.000000
         Rot=    0.997967    0.001690    0.000714    0.063700 Ang=   7.31 deg.
 Initial guess <Sx>= 0.0000 <Sy>= 0.0000 <Sz>= 0.5000 <S**2>= 0.7638 S= 0.5069
 ExpMin= 4.38D-02 ExpMax= 5.48D+03 ExpMxC= 8.25D+02 IAcc=2 IRadAn=         4 AccDes= 0.00D+00
 Harris functional with IExCor= 1009 and IRadAn=       4 diagonalized for initial guess.
 HarFok:  IExCor= 1009 AccDes= 0.00D+00 IRadAn=         4 IDoV= 1 UseB2=F ITyADJ=14
 ICtDFT=  3500011 ScaDFX=  1.000000  1.000000  1.000000  1.000000
 FoFCou: FMM=F IPFlag=           0 FMFlag=      100000 FMFlg1=           0
         NFxFlg=           0 DoJE=T BraDBF=F KetDBF=T FulRan=T
         wScrn=  0.000000 ICntrl=       500 IOpCl=  0 I1Cent=   200000004 NGrid=           0
         NMat0=    1 NMatS0=      1 NMatT0=    0 NMatD0=    1 NMtDS0=    0 NMtDT0=    0
 Petite list used in FoFCou.
 Requested convergence on RMS density matrix=1.00D-08 within 128 cycles.
 Requested convergence on MAX density matrix=1.00D-06.
 Requested convergence on             energy=1.00D-06.
 No special actions if energy rises.
 Inv3:  Mode=1 IEnd=     4284075.
 Iteration    1 A*A^-1 deviation from unit magnitude is 3.22D-15 for    377.
 Iteration    1 A*A^-1 deviation from orthogonality  is 3.16D-15 for    550    270.
 Iteration    1 A^-1*A deviation from unit magnitude is 3.77D-15 for    248.
 Iteration    1 A^-1*A deviation from orthogonality  is 1.40D-15 for    330     18.
 Error on total polarization charges =  0.04942
 SCF Done:  E(UM062X) =  -523.201549339     A.U. after   17 cycles
            NFock= 17  Conv=0.85D-08     -V/T= 2.0088
 <Sx>= 0.0000 <Sy>= 0.0000 <Sz>= 0.5000 <S**2>= 0.7665 S= 0.5082
 <L.S>=  0.00000000000    
 SMD-CDS (non-electrostatic) energy       (kcal/mol) =       3.57
 (included in total energy above)
 Annihilation of the first spin contaminant:
 S**2 before annihilation     0.7665,   after     0.7501
 D1PCM: PCM CHGder 1st derivatives, ID1Alg=3 FixD1E=F DoIter=F DoCFld=F I1PDM=0.
 Calling FoFJK, ICntrl=      2127 FMM=F ISym2X=0 I1Cent= 0 IOpClX= 1 NMat=1 NMatS=1 NMatT=0.
 ***** Axes restored to original set *****
 -------------------------------------------------------------------
 Center     Atomic                   Forces (Hartrees/Bohr)
 Number     Number              X              Y              Z
 -------------------------------------------------------------------
      1        7           0.009685959    0.012091978    0.000202226
      2        7           0.059490401   -0.050876468   -0.000628674
      3        7           0.000209908   -0.029765603   -0.000459105
      4        7          -0.013099978    0.039815517    0.000574061
      5        6          -0.029693604    0.001723157   -0.000037839
      6        6          -0.045064083    0.051176626    0.000773093
      7        8          -0.003750102   -0.027794636   -0.000499235
      8        8           0.019915453    0.004942764   -0.000197126
      9        1           0.001918100   -0.001432046    0.001572192
     10        1          -0.002544606   -0.001017919   -0.000046037
     11        8           0.003418569   -0.009841540   -0.003825600
     12        1          -0.005564422   -0.001733648    0.001798427
     13        1           0.005078403    0.012711817    0.000773618
 -------------------------------------------------------------------
 Cartesian Forces:  Max     0.059490401 RMS     0.020329701

 GradGradGradGradGradGradGradGradGradGradGradGradGradGradGradGradGradGrad
 Berny optimization.
 Using GEDIIS/GDIIS optimizer.
 FormGI is forming the generalized inverse of G from B-inverse, IUseBI=4.
 Internal  Forces:  Max     0.036326455 RMS     0.012856369
 Search for a local minimum.
 Step number   3 out of a maximum of   59
 All quantities printed in internal units (Hartrees-Bohrs-Radians)
 Mixed Optimization -- RFO/linear search
 Update second derivatives using D2CorX and points    1    3    2
 DE=  8.67D-03 DEPred=-2.79D-02 R=-3.11D-01
 Trust test=-3.11D-01 RLast= 5.08D-01 DXMaxT set to 2.52D-01
 ITU= -1  1  0
 Use linear search instead of GDIIS.
     Eigenvalues ---    0.00230   0.00230   0.00685   0.00943   0.01623
     Eigenvalues ---    0.01665   0.02364   0.02495   0.02564   0.03185
     Eigenvalues ---    0.05239   0.12879   0.13876   0.15956   0.16048
     Eigenvalues ---    0.19269   0.22284   0.23921   0.25000   0.25148
     Eigenvalues ---    0.36145   0.36513   0.38284   0.44103   0.50276
     Eigenvalues ---    0.53537   0.53582   0.57584   0.60470   0.62804
     Eigenvalues ---    0.68063   0.74352   1.02111
 RFO step:  Lambda=-1.09228854D-02 EMin= 2.29948980D-03
 Quartic linear search produced a step of -0.68348.
 Maximum step size (   0.252) exceeded in Quadratic search.
    -- Step size scaled by   0.353
 Iteration  1 RMS(Cart)=  0.12796008 RMS(Int)=  0.04045302
 Iteration  2 RMS(Cart)=  0.12654808 RMS(Int)=  0.01333714
 Iteration  3 RMS(Cart)=  0.05495621 RMS(Int)=  0.00140559
 Iteration  4 RMS(Cart)=  0.00157412 RMS(Int)=  0.00072577
 Iteration  5 RMS(Cart)=  0.00000131 RMS(Int)=  0.00072577
 Iteration  6 RMS(Cart)=  0.00000000 RMS(Int)=  0.00072577
 Variable       Old X    -DE/DX   Delta X   Delta X   Delta X     New X
[...]
 ! R1    R(1,2)                  1.3773         -DE/DX =    0.0                 !
 ! R2    R(1,5)                  1.3341         -DE/DX =    0.0                 !
 ! R3    R(2,3)                  1.3881         -DE/DX =    0.0                 !
 ! R4    R(2,6)                  1.3566         -DE/DX =    0.0                 !
 ! R5    R(3,4)                  1.3487         -DE/DX =    0.0                 !
 ! R6    R(4,5)                  1.3277         -DE/DX =    0.0                 !
 ! R7    R(5,10)                 1.0808         -DE/DX =    0.0                 !
 ! R8    R(6,7)                  1.2386         -DE/DX =    0.0                 !
 ! R9    R(6,8)                  1.3445         -DE/DX =   -0.0001              !
 ! R10   R(8,13)                 0.9881         -DE/DX =   -0.0001              !
 ! R11   R(9,11)                 0.9665         -DE/DX =    0.0                 !
 ! R12   R(11,12)                0.9755         -DE/DX =    0.0                 !
 ! R13   R(11,13)                1.7689         -DE/DX =    0.0                 !
 ! A1    A(2,1,5)              100.7334         -DE/DX =    0.0                 !
 ! A2    A(1,2,3)              112.5836         -DE/DX =    0.0                 !
 ! A3    A(1,2,6)              125.2974         -DE/DX =    0.0                 !
 ! A4    A(3,2,6)              122.1148         -DE/DX =    0.0                 !
 ! A5    A(2,3,4)              104.0845         -DE/DX =    0.0                 !
 ! A6    A(3,4,5)              107.5491         -DE/DX =    0.0                 !
 ! A7    A(1,5,4)              115.0494         -DE/DX =    0.0                 !
 ! A8    A(1,5,10)             121.7425         -DE/DX =    0.0                 !
 ! A9    A(4,5,10)             123.2081         -DE/DX =    0.0                 !
 ! A10   A(2,6,7)              122.5178         -DE/DX =    0.0                 !
 ! A11   A(2,6,8)              117.3623         -DE/DX =    0.0                 !
 ! A12   A(7,6,8)              120.1197         -DE/DX =    0.0                 !
 ! A13   A(6,8,13)             116.052          -DE/DX =    0.0                 !
 ! A14   A(9,11,12)            106.0232         -DE/DX =    0.0                 !
 ! A15   A(9,11,13)            111.0489         -DE/DX =    0.0                 !
 ! A16   A(12,11,13)            82.1114         -DE/DX =    0.0                 !
 ! A17   L(8,13,11,1,-1)       190.1208         -DE/DX =    0.0                 !
 ! A18   L(8,13,11,1,-2)       180.2151         -DE/DX =    0.0                 !
 ! D1    D(5,1,2,3)              0.0766         -DE/DX =    0.0                 !
 ! D2    D(5,1,2,6)            179.3394         -DE/DX =    0.0                 !
 ! D3    D(2,1,5,4)             -0.0463         -DE/DX =    0.0                 !
 ! D4    D(2,1,5,10)           179.9683         -DE/DX =    0.0                 !
 ! D5    D(1,2,3,4)             -0.0796         -DE/DX =    0.0                 !
 ! D6    D(6,2,3,4)           -179.3693         -DE/DX =    0.0                 !
 ! D7    D(1,2,6,7)           -179.3092         -DE/DX =    0.0                 !
 ! D8    D(1,2,6,8)              0.5059         -DE/DX =    0.0                 !
 ! D9    D(3,2,6,7)             -0.1128         -DE/DX =    0.0                 !
 ! D10   D(3,2,6,8)            179.7024         -DE/DX =    0.0                 !
 ! D11   D(2,3,4,5)              0.0467         -DE/DX =    0.0                 !
 ! D12   D(3,4,5,1)             -0.0001         -DE/DX =    0.0                 !
 ! D13   D(3,4,5,10)           179.9851         -DE/DX =    0.0                 !
 ! D14   D(2,6,8,13)             2.1185         -DE/DX =    0.0                 !
 ! D15   D(7,6,8,13)          -178.0617         -DE/DX =    0.0                 !
 ! D16   D(6,8,11,9)           108.3914         -DE/DX =    0.0                 !
 ! D17   D(6,8,11,12)            2.8875         -DE/DX =    0.0                 !
 ! D18   D(9,11,12,13)        -109.7223         -DE/DX =    0.0                 !
 --------------------------------------------------------------------------------
 GradGradGradGradGradGradGradGradGradGradGradGradGradGradGradGradGradGrad


 ----------------------------------------------------------------------

 Electric dipole moment (input orientation):
 (Debye = 10**-18 statcoulomb cm , SI units = C m)
                  (au)            (Debye)         (10**-30 SI)
   Tot        0.412245D+01      0.104782D+02      0.349516D+02
   x         -0.184041D+01     -0.467786D+01     -0.156037D+02
   y         -0.360794D+01     -0.917048D+01     -0.305894D+02
   z          0.768284D+00      0.195278D+01      0.651378D+01

 Dipole polarizability, Alpha (input orientation).
 (esu units = cm**3 , SI units = C**2 m**2 J**-1)
 Alpha(0;0):
               (au)            (10**-24 esu)      (10**-40 SI)
   iso        0.106919D+03      0.158437D+02      0.176285D+02
   aniso      0.745346D+02      0.110449D+02      0.122891D+02
   xx         0.126702D+03      0.187752D+02      0.208903D+02
   yx        -0.140346D+02     -0.207971D+01     -0.231399D+01
   yy         0.133879D+03      0.198389D+02      0.220737D+02
   zx         0.178540D+01      0.264568D+00      0.294372D+00
   zy         0.183921D+00      0.272542D-01      0.303244D-01
   zz         0.601749D+02      0.891700D+01      0.992150D+01

 ----------------------------------------------------------------------

 Dipole orientation:
     7          0.91772272         -0.88025196          1.56053011
     7          0.50941495         -0.05951349         -0.87541125
     7          2.51868549         -0.60282159         -2.47172713
     7          4.20284470         -1.78564028         -0.96854720
     6          3.20925818         -1.90608051          1.33223407
     6         -1.60624108          1.12817205         -1.70293071
     8         -1.88080088          1.80653042         -3.92618567
     8         -3.44628087          1.55444149         -0.00318646
     1         -2.79421272          1.76746217          6.02211880
     1          4.16440068         -2.76601745          2.91950176
     8         -2.98075953          0.26080528          5.00656861
     1         -1.27145019         -0.27188637          4.56818086
     1         -3.08685539          1.01183415          1.74679625

 Electric dipole moment (dipole orientation):
 (Debye = 10**-18 statcoulomb cm , SI units = C m)
                  (au)            (Debye)         (10**-30 SI)
   Tot        0.412245D+01      0.104782D+02      0.349516D+02
   x          0.000000D+00      0.000000D+00      0.000000D+00
   y          0.000000D+00      0.000000D+00      0.000000D+00
   z          0.412245D+01      0.104782D+02      0.349516D+02

 Dipole polarizability, Alpha (dipole orientation).
 (esu units = cm**3 , SI units = C**2 m**2 J**-1)
 Alpha(0;0):
               (au)            (10**-24 esu)      (10**-40 SI)
   iso        0.106919D+03      0.158437D+02      0.176285D+02
   aniso      0.745346D+02      0.110449D+02      0.122891D+02
   xx         0.123185D+03      0.182541D+02      0.203104D+02
   yx        -0.314773D+02     -0.466445D+01     -0.518990D+01
   yy         0.790066D+02      0.117076D+02      0.130264D+02
   zx         0.452767D+01      0.670932D+00      0.746512D+00
   zy        -0.158379D+02     -0.234693D+01     -0.261131D+01
   zz         0.118565D+03      0.175695D+02      0.195487D+02

 ----------------------------------------------------------------------
 1\1\GINC-NODE7\Freq\UM062X\6-31+G(d,p)\C2H4N4O3(1-,2)\GONGKE2021\06-No
 v-2023\0\\#N Geom=AllCheck Guess=TCheck SCRF=Check GenChk UM062X/6-31+
 G(d,p) Freq\\Title Card Required\\-1,2\N,0.1887968466,-1.0477367787,-0
 .0369666649\N,0.4414662297,0.3054907722,0.0064499673\N,1.7979095116,0.
 5927408609,0.0720744707\N,2.3904307491,-0.61874649,0.0703892603\C,1.43
 04222597,-1.5337359971,0.0067851299\C,-0.50150202,1.2801715159,-0.0249
 152593\O,-0.215378352,2.484888504,0.0051329005\O,-1.7874737152,0.89357
 99037,-0.0945642958\H,-2.9609480246,-1.9706293316,0.7523578481\H,1.625
 837122,-2.5965678205,-0.009295939\O,-2.5405841931,-1.7503127386,-0.089
 6480479\H,-1.5916104659,-1.9450686963,0.024224764\H,-1.9480839479,-0.0
 812837039,-0.088367134\\Version=ES64L-G16RevA.03\State=2-A\HF=-523.217
 6748\S2=0.764656\S2-1=0.\S2A=0.750098\RMSD=3.187e-09\RMSF=2.330e-05\Ze
 roPoint=0.0839138\Thermal=0.0932183\Dipole=-1.840411,-3.607943,0.76828
 39\DipoleDeriv=-1.1726117,-0.6319082,-0.0426434,0.1863645,-0.7937812,0
 .0085051,-0.0035934,-0.0289979,-0.3395467,-0.6700981,0.4516554,-0.0190
 023,0.5743811,-0.5719022,0.0153723,-0.031824,0.0284024,0.0180404,-0.09
 11127,0.2813323,0.013027,-0.9503749,-0.0195519,-0.0377307,-0.0093871,0
 .0181134,-0.3211081,-0.9826472,-0.1857224,-0.0303135,0.5768055,-0.7073
 869,0.0203833,-0.0157552,-0.0194504,-0.3739753,1.0786719,0.4542091,0.0
 558939,-0.0546811,0.4804174,0.0101812,0.0443298,0.0308411,0.0378296,2.
 9358217,-0.1723608,0.101905,-0.8359353,3.8011164,0.0111244,0.1137762,0
 .0292082,0.5518895,-0.7415746,-0.3857979,-0.0059316,0.8223064,-2.95943
 66,0.0051711,0.0099562,-0.0490863,-0.6635521,-2.1876507,-0.0865901,-0.
 061812,-0.7573765,-1.0460096,-0.0240384,-0.0899227,0.0056721,-0.584586
 1,0.4275365,0.0156159,-0.0233281,-0.0029288,0.4403348,0.0406204,-0.011
 3133,0.0208411,0.3392804,0.1368113,0.0270834,-0.0021854,0.0338661,0.01
 95153,-0.0025394,-0.0013535,-0.0012987,0.2028035,-1.1725048,-0.2935385
 ,0.0415865,-0.2360824,-1.1495609,-0.0744491,0.0467084,-0.0498882,-0.68
 74917,0.8421906,0.2608082,-0.0239813,0.195961,0.5349218,0.0427689,-0.0
 448473,0.0337633,0.3671745,0.5971677,0.2652137,-0.0032149,0.4476945,0.
 9713236,-0.015369,-0.006774,-0.0181202,0.4532421\Polar=126.7015921,-14
 .034575,133.8793351,1.7853955,0.1839207,60.1749029\Quadrupole=-7.11676
 59,-2.3420172,9.4587831,0.6755267,-5.372572,-3.2561036\PG=C01 [X(C2H4N
 4O3)]\NImag=0\\0.58813473,-0.04373890,0.40977711,0.02054615,0.00565013
 ,0.06836670,-0.11268811,-0.06632238,-0.00476996,0.66256457,0.00075168,
 -0.22107701,-0.00454470,-0.15156630,0.72939244,-0.00302815,-0.00637870
 ,-0.04042174,0.02518572,0.00534027,0.07279857,-0.02855672,-0.04570290,
 -0.00222973,-0.15186439,-0.07441598,-0.00724154,0.32435933,-0.02474482
 ,-0.02434233,-0.00152791,-0.01753013,-0.12334701,-0.00279523,0.0027188
 1,0.50540305,-0.00182334,-0.00259005,0.00055323,-0.00542507,-0.0049696
 8,-0.03319015,0.01187835,0.01012663,0.05885404,-0.12774352,0.02508928,
 -0.00659040,-0.08272840,0.02782742,-0.00338184,-0.11323629,0.00801039,
 -0.00233782,0.54319092,-0.04518284,0.00460912,-0.00271489,0.08187550,-
 0.03249191,0.00287299,0.09313948,-0.24769436,-0.00015958,0.07611799,0.
 50949643,-0.00845690,0.00018362,0.03859804,-0.00193145,0.00034278,0.00
 550590,-0.00040945,-0.00387447,-0.05355300,0.02223257,0.01299748,0.085
 17898,-0.31561442,0.10225780,-0.00889970,-0.01847379,0.05224817,0.0000
 9109,0.00640449,-0.00484261,-0.00073080,-0.22752558,-0.17455174,-0.011
 10553,0.63201989,0.07675826,-0.13641974,0.00185320,0.01543569,-0.05064
 232,-0.00063594,0.01544497,-0.12185630,-0.00261956,-0.13967283,-0.2266
 1859,-0.00972782,-0.01797915,0.89870260,-0.00937392,0.00281934,-0.0622
 4776,-0.00075034,0.00084558,0.00740263,-0.00021084,-0.00348503,0.02045
 864,-0.01026039,-0.01119562,-0.07451463,0.02116431,0.01672199,0.144461
 29,0.01315316,0.00189512,0.00108916,-0.23578426,0.11974033,-0.00710447
 ,-0.03446042,0.03430766,-0.00106263,-0.00241575,-0.01477024,-0.0004245
 0,0.00126005,-0.00823108,-0.00010956,0.62939472,0.03314267,-0.01207470
 ,0.00152662,0.10292025,-0.23210372,0.00078806,0.01030712,-0.00847767,0
 .00038031,-0.01393346,0.02553220,0.00008459,-0.01226992,-0.00971538,-0
 .00077194,0.02828219,0.88614446,0.00153018,-0.00049977,-0.00502139,-0.
 00826654,0.00296063,-0.04236906,-0.00109469,0.00167432,-0.00091779,-0.
 00013223,-0.00048794,-0.00030594,-0.00021563,-0.00055746,-0.00073042,0
 .02281057,0.01147180,0.16043206,-0.00696974,-0.00784793,-0.00085510,0.
 00931226,0.03238386,0.00057962,0.00582195,0.01059405,0.00055750,0.0025
 9017,-0.00297117,-0.00001235,0.00082347,0.00447246,0.00007530,-0.11475
 633,-0.09763184,-0.00439551,0.13550923,0.00022991,-0.02146329,-0.00054
 188,0.00101992,-0.07813690,-0.00033939,0.00841717,0.02820241,0.0006198
 4,0.00649854,-0.02073361,-0.00022528,0.00050343,0.00076023,0.00002510,
 -0.10367514,-0.52219617,-0.01100793,0.13237362,0.65045728,-0.00067353,
 -0.00082669,0.00502793,-0.00008989,0.00036488,0.01326301,0.00046150,0.
 00072764,-0.00282602,0.00018904,-0.00042842,0.00010544,0.00001259,0.00
 021560,0.00137679,-0.00438671,-0.01047677,-0.06414759,0.00722351,0.014
 52419,0.03176617,0.00832753,0.00817254,0.00055226,-0.06346202,-0.00848
 643,-0.00408180,-0.00422585,-0.00432736,-0.00046820,-0.00598377,0.0117
 0402,-0.00003960,-0.00448564,-0.00286810,-0.00026283,-0.25281576,-0.00
 826204,-0.01081871,-0.02701003,-0.04635860,-0.00223630,0.40245193,0.00
 481840,0.00638721,0.00047593,0.03033482,0.00682765,0.00114348,-0.00837
 932,-0.00952986,-0.00058432,0.00239714,0.00406464,0.00015407,-0.000912
 77,0.00091958,0.00000936,-0.04411067,-0.11849949,-0.00261438,-0.075278
 06,-0.04257140,-0.00445337,0.11927661,0.59184308,0.00094474,0.00053908
 ,-0.00200863,-0.00304169,-0.00048755,0.00929893,-0.00056316,-0.0005426
 0,0.00321381,-0.00036308,0.00071297,0.00188876,-0.00023665,-0.00014241
 ,-0.00018857,-0.01069925,-0.00066050,-0.04044064,-0.00237621,-0.002662
 17,0.01074248,0.01838516,0.00028921,0.02387174,-0.00136229,-0.00048936
 ,-0.00052760,-0.00019247,0.00013062,-0.00013212,-0.00007782,-0.0000343
 1,0.00000997,-0.00016510,-0.00015076,0.00004488,0.00007077,-0.00022923
 ,-0.00008851,-0.00059220,0.00008499,0.00000011,0.00013549,0.00000326,-
 0.00000131,0.00072478,0.00101654,0.00004067,0.14555408,-0.00021098,0.0
 0049125,-0.00004166,0.00009373,-0.00001716,0.00006179,0.00000832,0.000
 01516,-0.00001351,-0.00001584,0.00005842,0.00002147,-0.00011806,-0.000
 05654,-0.00006906,0.00045458,-0.00004809,-0.00006342,-0.00015093,-0.00
 009612,0.00000749,-0.00053007,-0.00180840,-0.00069702,0.04472653,0.034
 45064,-0.00101570,-0.00019020,-0.00019371,-0.00009669,0.00014528,0.000
 04344,-0.00010436,-0.00012972,-0.00001259,-0.00025908,-0.00003250,0.00
 000745,0.00021867,-0.00018167,0.00000959,0.00056839,0.00032752,0.00002
 320,-0.00020581,-0.00032463,-0.00000533,-0.00059422,-0.00193961,-0.000
 10637,-0.19907063,-0.10793087,0.40795979,0.00077715,0.02840582,0.00083
 643,-0.00750122,0.00360333,-0.00058419,-0.00345280,-0.00418435,-0.0006
 0343,0.01082435,-0.02588000,0.00001964,-0.07066126,0.05575135,-0.00022
 586,0.00213156,0.00011942,0.00007765,-0.00031167,0.00110936,0.00000930
 ,-0.00025833,0.00001529,-0.00000784,-0.00000684,0.00000105,-0.00000621
 ,0.06833668,0.00011470,-0.00402483,-0.00002978,-0.00055701,0.00147347,
 -0.00015016,-0.00214936,0.00085965,-0.00027189,0.00577589,-0.01477923,
 -0.00001699,0.05572021,-0.35593184,-0.00493681,-0.00046412,0.00059709,
 -0.00005405,0.00013682,-0.00072393,0.00000745,0.00042856,0.00008825,0.
 00002690,0.00001300,-0.00000003,0.00001014,-0.05907487,0.37256345,0.00
 014663,0.00126340,-0.00267515,-0.00065425,0.00006605,0.00711254,-0.000
 57551,-0.00030440,0.00785726,0.00074679,-0.00143743,-0.00318125,-0.000
 17374,-0.00500650,-0.03556745,0.00002762,-0.00003017,0.00119618,0.0000
 1393,0.00003262,-0.00037439,-0.00000442,0.00000398,-0.00009478,-0.0000
 1035,-0.00000248,-0.00000054,0.00047805,0.00542137,0.02581574,-0.01427
 041,-0.00441736,0.00092038,-0.00254177,0.00213246,0.00021933,-0.001147
 00,-0.00119159,-0.00007796,-0.00335549,-0.00123201,-0.00035720,0.00291
 110,-0.00340888,0.00027869,0.00257762,0.00332811,0.00005840,-0.0013340
 4,-0.00329894,-0.00009546,-0.00200838,-0.01082938,-0.00017417,-0.12811
 041,-0.04858033,0.20684615,-0.00011353,0.00015012,0.00004156,0.5982823
 2,-0.00515421,0.00197462,0.00024209,-0.00075842,0.00014339,-0.00025603
 ,-0.00056794,-0.00051544,-0.00002784,-0.00116115,0.00064927,-0.0000862
 4,0.00007203,-0.00101633,0.00009920,0.01224811,-0.00011531,0.00078877,
 -0.00386859,-0.00327972,-0.00029020,-0.01771684,-0.02619305,0.00084265
 ,-0.03223034,-0.03593195,0.10674351,-0.00006019,0.00006861,0.00000738,
 -0.05071791,0.07246224,0.00150398,0.00043162,0.00256409,0.00024295,-0.
 00010739,0.00012149,0.00015577,0.00015897,0.00001856,0.00028482,0.0000
 4605,-0.00027403,-0.00010356,0.00022147,0.00035625,-0.00063095,-0.0002
 3573,0.00028580,0.00025498,0.00035651,-0.00006406,0.00073855,0.0024280
 6,0.00281977,0.15967201,0.11381283,-0.41066931,0.00000879,-0.00001943,
 0.00005523,-0.12949816,-0.13390071,0.46281201,-0.00231478,0.00364384,-
 0.00046740,0.00400033,-0.00311540,-0.00035213,0.00120515,0.00182407,0.
 00011187,0.00396479,0.00226443,0.00035078,-0.00547523,0.00313535,-0.00
 022795,0.00385634,-0.00469455,0.00020096,-0.00018968,0.00340994,0.0000
 2925,-0.00394223,-0.00238628,-0.00001967,-0.01476719,0.00498654,-0.006
 94644,0.00010588,-0.00000979,-0.00004491,-0.44957673,0.08812217,-0.032
 66687,0.45937775,0.00389952,-0.00250380,-0.00040917,-0.00030631,-0.002
 17955,-0.00007183,0.00071645,0.00054649,0.00009344,0.00279983,0.000901
 70,0.00024807,-0.00200609,0.00253401,-0.00016206,-0.00155441,-0.002986
 93,-0.00008278,0.00069689,0.00216364,0.00005043,0.00032199,0.00300556,
 -0.00005137,-0.01076168,0.00107681,0.00016981,0.00009765,-0.00013496,-
 0.00002256,0.10575468,-0.02969442,0.02047830,-0.10300329,0.04067563,-0
 .00016587,-0.00032913,-0.00217816,-0.00033863,0.00013454,-0.00077075,-
 0.00012074,-0.00010684,0.00010010,-0.00018018,-0.00012941,0.00042237,-
 0.00001851,-0.00017450,-0.00032150,-0.00018552,0.00013298,0.00015731,0
 .00004049,-0.00006696,-0.00002062,0.00022461,0.00028934,-0.00020725,0.
 03958786,-0.00853288,0.00293218,-0.00000568,0.00001670,-0.00011675,-0.
 07877147,0.03021744,-0.05034054,0.04048162,-0.02110019,0.04849228,-0.0
 0087258,-0.00094557,0.00039551,-0.00064074,-0.00123375,-0.00016954,-0.
 00076962,-0.00059980,-0.00002844,0.00258366,-0.00036266,0.00008910,-0.
 00125384,0.00139118,-0.00000809,-0.01154874,-0.04139293,0.00024544,-0.
 00362109,-0.00023246,-0.00044199,-0.04731223,-0.01596233,-0.00188885,-
 0.00121080,-0.00066455,0.00066594,0.00013001,-0.00008414,0.00000859,-0
 .00131328,0.01179326,0.00003769,0.00375561,0.00334478,-0.00054798,0.06
 207364,-0.00068338,-0.00133360,0.00006200,0.00536062,0.00215864,0.0004
 2068,0.00046319,0.00073620,0.00001618,0.00026681,-0.00299407,-0.000101
 28,0.00187870,-0.00065936,0.00009998,-0.02412234,-0.00605629,-0.001527
 79,0.00709081,0.00761759,0.00057777,-0.05135428,-0.41453377,0.00283281
 ,-0.00207928,0.00186602,0.00333293,0.00009616,-0.00005569,0.00000873,0
 .01231104,0.02144809,-0.00367054,0.00582297,-0.01340417,-0.00035108,0.
 04494897,0.40521042,-0.00013427,-0.00007266,-0.00036345,-0.00006416,-0
 .00009068,0.00120520,0.00005440,0.00007865,-0.00055609,0.00005179,-0.0
 0004371,0.00012193,-0.00000254,0.00003361,-0.00049487,0.00010785,-0.00
 253676,-0.00816171,-0.00090036,-0.00039003,0.00515619,-0.00139449,0.00
 479824,-0.00878924,0.00047502,0.00344733,0.00001221,0.00000335,-0.0000
 0346,-0.00002664,0.00060990,-0.00438003,-0.00768525,-0.00044912,0.0008
 5991,0.00185135,0.00164264,-0.00170040,0.01773037\\-0.00000361,-0.0000
 0174,-0.00000003,0.00002712,-0.00000834,-0.00000062,-0.00001183,-0.000
 05323,-0.00001180,0.00001047,0.00002914,-0.00001316,-0.00001027,0.0000
 3368,-0.00001100,0.00005781,0.00006574,0.00000580,-0.00000535,-0.00003
 665,-0.00000535,-0.00004370,0.00003211,0.00002560,-0.00000020,-0.00000
 488,0.00001799,-0.00000700,-0.00000201,-0.00001269,0.00000568,-0.00001
 415,0.00000887,-0.00001539,-0.00002151,0.00000613,-0.00000373,-0.00001
 818,-0.00000973\\\@


 Make no judgements where you have no compassion.
                               -- Anne McCaffrey
 Job cpu time:       0 days  0 hours 53 minutes 59.2 seconds.
 Elapsed time:       0 days  0 hours  2 minutes 15.7 seconds.
 File lengths (MBytes):  RWF=    139 Int=      0 D2E=      0 Chk=      8 Scr=      1
 Normal termination of Gaussian 16 at Mon Nov  6 19:21:25 2023.
