 Entering Gaussian System, Link 0=/opt/soft/g16b/g16/g16
 Initial command:
 /opt/soft/g16b/g16/l1.exe "/scratch/gongke2021/1-H-Tz-PC/Gau-6626.inp" -scrdir="/scratch/gongke2021/1-H-Tz-PC/"
 Entering Link 1 = /opt/soft/g16b/g16/l1.exe PID=      6627.
  
 Copyright (c) 1988,1990,1992,1993,1995,1998,2003,2009,2016,
            Gaussian, Inc.  All Rights Reserved.
  
 This is part of the Gaussian(R) 16 program.  It is based on
 the Gaussian(R) 09 system (copyright 2009, Gaussian, Inc.),
 the Gaussian(R) 03 system (copyright 2003, Gaussian, Inc.),
 the Gaussian(R) 98 system (copyright 1998, Gaussian, Inc.),
 the Gaussian(R) 94 system (copyright 1995, Gaussian, Inc.),
 the Gaussian 92(TM) system (copyright 1992, Gaussian, Inc.),
 the Gaussian 90(TM) system (copyright 1990, Gaussian, Inc.),
 the Gaussian 88(TM) system (copyright 1988, Gaussian, Inc.),
 the Gaussian 86(TM) system (copyright 1986, Carnegie Mellon
 University), and the Gaussian 82(TM) system (copyright 1983,
 Carnegie Mellon University). Gaussian is a federally registered
 trademark of Gaussian, Inc.
  
 This software contains proprietary and confidential information,
 including trade secrets, belonging to Gaussian, Inc.
  
 This software is provided under written license and may be
 used, copied, transmitted, or stored only in accord with that
 written license.
  
 The following legend is applicable only to US Government
 contracts under FAR:
  
                    RESTRICTED RIGHTS LEGEND
  
 Use, reproduction and disclosure by the US Government is
 subject to restrictions as set forth in subparagraphs (a)
 and (c) of the Commercial Computer Software - Restricted
 Rights clause in FAR 52.227-19.
  
 Gaussian, Inc.
 340 Quinnipiac St., Bldg. 40, Wallingford CT 06492
  
  
 ---------------------------------------------------------------
 Warning -- This program may not be used in any manner that
 competes with the business of Gaussian, Inc. or will provide
 assistance to any competitor of Gaussian, Inc.  The licensee
 of this program is prohibited from giving any competitor of
 Gaussian, Inc. access to this program.  By using this program,
 the user acknowledges that Gaussian, Inc. is engaged in the
 business of creating and licensing software in the field of
 computational chemistry and represents and warrants to the
 licensee that it is not a competitor of Gaussian, Inc. and that
 it will not use this program in any manner prohibited above.
 ---------------------------------------------------------------
  

 Cite this work as:
 Gaussian 16, Revision A.03,
 M. J. Frisch, G. W. Trucks, H. B. Schlegel, G. E. Scuseria, 
 M. A. Robb, J. R. Cheeseman, G. Scalmani, V. Barone, 
 G. A. Petersson, H. Nakatsuji, X. Li, M. Caricato, A. V. Marenich, 
 J. Bloino, B. G. Janesko, R. Gomperts, B. Mennucci, H. P. Hratchian, 
 J. V. Ortiz, A. F. Izmaylov, J. L. Sonnenberg, D. Williams-Young, 
 F. Ding, F. Lipparini, F. Egidi, J. Goings, B. Peng, A. Petrone, 
 T. Henderson, D. Ranasinghe, V. G. Zakrzewski, J. Gao, N. Rega, 
 G. Zheng, W. Liang, M. Hada, M. Ehara, K. Toyota, R. Fukuda, 
 J. Hasegawa, M. Ishida, T. Nakajima, Y. Honda, O. Kitao, H. Nakai, 
 T. Vreven, K. Throssell, J. A. Montgomery, Jr., J. E. Peralta, 
 F. Ogliaro, M. J. Bearpark, J. J. Heyd, E. N. Brothers, K. N. Kudin, 
 V. N. Staroverov, T. A. Keith, R. Kobayashi, J. Normand, 
 K. Raghavachari, A. P. Rendell, J. C. Burant, S. S. Iyengar, 
 J. Tomasi, M. Cossi, J. M. Millam, M. Klene, C. Adamo, R. Cammi, 
 J. W. Ochterski, R. L. Martin, K. Morokuma, O. Farkas, 
 J. B. Foresman, and D. J. Fox, Gaussian, Inc., Wallingford CT, 2016.
 
 ******************************************
 Gaussian 16:  ES64L-G16RevA.03 25-Dec-2016
                 1-Jul-2023 
 ******************************************
 %mem=10GB
 %nprocshared=20
 Will use up to   20 processors via shared memory.
 -----------------------------------------------------
 # opt freq 6-31+g(d,p) m062x scrf=(SMD,solvent=water)
 -----------------------------------------------------
 1/18=20,19=15,26=3,38=1/1,3;
 2/9=110,12=2,17=6,18=5,40=1/2;
 3/5=1,6=6,7=111,11=2,25=1,30=1,70=32201,71=1,72=1,74=-55/1,2,3;
 4//1;
 5/5=2,38=5,53=1/2;
 6/7=2,8=2,9=2,10=2,28=1/1;
 7//1,2,3,16;
 1/18=20,19=15,26=3/3(2);
 2/9=110/2;
 99//99;
 2/9=110/2;
 3/5=1,6=6,7=111,11=2,25=1,30=1,70=32205,71=1,72=1,74=-55/1,2,3;
 4/5=5,16=3,69=1/1;
 5/5=2,38=5,53=1/2;
 7//1,2,3,16;
 1/18=20,19=15,26=3/3(-5);
 2/9=110/2;
 6/7=2,8=2,9=2,10=2,19=2,28=1/1;
 99/9=1/99;
 ----------
 "Sketch 2"
 ----------
 Symbolic Z-matrix:
 Charge =  0 Multiplicity = 1
 N                    -0.03294  -0.21268  -0.00039 
 N                    -0.61813   0.96836  -0.00049 
 C                    -1.92709   0.75152   0.00015 
 C                    -2.07067  -0.64556   0.00037 
 N                    -0.85864  -1.21633  -0.00009 
 H                    -2.65338   1.54756   0.00051 
 H                    -2.97278  -1.23631   0.00008 
 H                     0.93918   1.86533  -0.06281 
 C                     1.49077  -0.05996   0.00002 
 O                     1.69561   1.18647   0.00024 
 O                     2.15987  -1.05645   0.00009 
 

 GradGradGradGradGradGradGradGradGradGradGradGradGradGradGradGradGradGrad
 Berny optimization.
 Initialization pass.
                           ----------------------------
                           !    Initial Parameters    !
                           ! (Angstroms and Degrees)  !
 --------------------------                            --------------------------
 ! Name  Definition              Value          Derivative Info.                !
 --------------------------------------------------------------------------------
 ! R1    R(1,2)                  1.3181         estimate D2E/DX2                !
 ! R2    R(1,5)                  1.2997         estimate D2E/DX2                !
 ! R3    R(1,9)                  1.5313         estimate D2E/DX2                !
 ! R4    R(2,3)                  1.3268         estimate D2E/DX2                !
 ! R5    R(3,4)                  1.4044         estimate D2E/DX2                !
 ! R6    R(3,6)                  1.0776         estimate D2E/DX2                !
 ! R7    R(4,5)                  1.3397         estimate D2E/DX2                !
 ! R8    R(4,7)                  1.0783         estimate D2E/DX2                !
 ! R9    R(8,10)                 1.0183         estimate D2E/DX2                !
 ! R10   R(9,10)                 1.2631         estimate D2E/DX2                !
 ! R11   R(9,11)                 1.2003         estimate D2E/DX2                !
 ! A1    A(2,1,5)              114.1978         estimate D2E/DX2                !
 ! A2    A(2,1,9)              110.6347         estimate D2E/DX2                !
 ! A3    A(5,1,9)              135.1675         estimate D2E/DX2                !
 ! A4    A(1,2,3)              106.9517         estimate D2E/DX2                !
 ! A5    A(2,3,4)              105.2743         estimate D2E/DX2                !
 ! A6    A(2,3,6)              122.9697         estimate D2E/DX2                !
 ! A7    A(4,3,6)              131.756          estimate D2E/DX2                !
 ! A8    A(3,4,5)              109.349          estimate D2E/DX2                !
 ! A9    A(3,4,7)              129.0868         estimate D2E/DX2                !
 ! A10   A(5,4,7)              121.5642         estimate D2E/DX2                !
 ! A11   A(1,5,4)              104.2271         estimate D2E/DX2                !
 ! A12   A(1,9,10)             105.0564         estimate D2E/DX2                !
 ! A13   A(1,9,11)             118.1562         estimate D2E/DX2                !
 ! A14   A(10,9,11)            136.7873         estimate D2E/DX2                !
 ! A15   A(8,10,9)             122.5023         estimate D2E/DX2                !
 ! D1    D(5,1,2,3)              0.0175         estimate D2E/DX2                !
 ! D2    D(9,1,2,3)           -179.955          estimate D2E/DX2                !
 ! D3    D(2,1,5,4)             -0.0157         estimate D2E/DX2                !
 ! D4    D(9,1,5,4)            179.9477         estimate D2E/DX2                !
 ! D5    D(2,1,9,10)             0.0049         estimate D2E/DX2                !
 ! D6    D(2,1,9,11)          -179.9965         estimate D2E/DX2                !
 ! D7    D(5,1,9,10)          -179.9594         estimate D2E/DX2                !
 ! D8    D(5,1,9,11)             0.0392         estimate D2E/DX2                !
 ! D9    D(1,2,3,4)             -0.011          estimate D2E/DX2                !
 ! D10   D(1,2,3,6)            179.9825         estimate D2E/DX2                !
 ! D11   D(2,3,4,5)              0.002          estimate D2E/DX2                !
 ! D12   D(2,3,4,7)           -179.9464         estimate D2E/DX2                !
 ! D13   D(6,3,4,5)           -179.9906         estimate D2E/DX2                !
 ! D14   D(6,3,4,7)              0.0609         estimate D2E/DX2                !
 ! D15   D(3,4,5,1)              0.0078         estimate D2E/DX2                !
 ! D16   D(7,4,5,1)            179.9609         estimate D2E/DX2                !
 ! D17   D(1,9,10,8)            -4.2035         estimate D2E/DX2                !
 ! D18   D(11,9,10,8)          175.7982         estimate D2E/DX2                !
 --------------------------------------------------------------------------------
 Trust Radius=3.00D-01 FncErr=1.00D-07 GrdErr=1.00D-06 EigMax=2.50D+02 EigMin=1.00D-04
 Number of steps in this run=     54 maximum allowed number of steps=    100.
 GradGradGradGradGradGradGradGradGradGradGradGradGradGradGradGradGradGrad

                          Input orientation:                          
 ---------------------------------------------------------------------
 Center     Atomic      Atomic             Coordinates (Angstroms)
 Number     Number       Type             X           Y           Z
 ---------------------------------------------------------------------
      1          7           0       -0.032936   -0.212676   -0.000391
      2          7           0       -0.618134    0.968363   -0.000489
      3          6           0       -1.927089    0.751515    0.000149
      4          6           0       -2.070670   -0.645561    0.000371
      5          7           0       -0.858642   -1.216334   -0.000090
      6          1           0       -2.653375    1.547564    0.000505
      7          1           0       -2.972779   -1.236311    0.000077
      8          1           0        0.939176    1.865329   -0.062814
      9          6           0        1.490766   -0.059960    0.000023
     10          8           0        1.695613    1.186469    0.000243
     11          8           0        2.159867   -1.056450    0.000088
 ---------------------------------------------------------------------
                    Distance matrix (angstroms):
                    1          2          3          4          5
     1  N    0.000000
     2  N    1.318070   0.000000
     3  C    2.125436   1.326796   0.000000
     4  C    2.083207   2.171316   1.404435   0.000000
     5  N    1.299661   2.197896   2.239198   1.339699   0.000000
     6  H    3.156762   2.116053   1.077583   2.269216   3.295482
     7  H    3.112958   3.225669   2.246090   1.078326   2.114231
     8  H    2.294996   1.798235   3.075715   3.920171   3.568296
     9  C    1.531336   2.346254   3.512866   3.609260   2.618572
    10  O    2.223845   2.324004   3.648720   4.188224   3.506805
    11  O    2.349540   3.437609   4.468998   4.250444   3.022740
                    6          7          8          9         10
     6  H    0.000000
     7  H    2.802138   0.000000
     8  H    3.607133   4.992747   0.000000
     9  C    4.445001   4.615954   2.003731   0.000000
    10  O    4.363953   5.259634   1.018344   1.263150   0.000000
    11  O    5.472494   5.135796   3.167149   1.200287   2.290462
                   11
    11  O    0.000000
 Stoichiometry    C3H3N3O2
 Framework group  C1[X(C3H3N3O2)]
 Deg. of freedom    27
 Full point group                 C1      NOp   1
 Largest Abelian subgroup         C1      NOp   1
 Largest concise Abelian subgroup C1      NOp   1
                         Standard orientation:                         
 ---------------------------------------------------------------------
 Center     Atomic      Atomic             Coordinates (Angstroms)
 Number     Number       Type             X           Y           Z
 ---------------------------------------------------------------------
      1          7           0        0.044917   -0.216788   -0.000180
      2          7           0        0.616194    0.971045   -0.002580
      3          6           0        1.927607    0.769597   -0.002218
      4          6           0        2.087598   -0.625692    0.000835
      5          7           0        0.882362   -1.210669    0.002148
      6          1           0        2.644487    1.574124   -0.004131
      7          1           0        2.996588   -1.205796    0.002836
      8          1           0       -0.951576    1.849786    0.057082
      9          6           0       -1.480474   -0.081993   -0.001529
     10          8           0       -1.699956    1.161938   -0.004700
     11          8           0       -2.137817   -1.086276    0.000447
 ---------------------------------------------------------------------
 Rotational constants (GHZ):           5.3702920           1.8338128           1.3670417
 Standard basis: 6-31+G(d,p) (6D, 7F)
 There are   167 symmetry adapted cartesian basis functions of A   symmetry.
 There are   167 symmetry adapted basis functions of A   symmetry.
   167 basis functions,   277 primitive gaussians,   167 cartesian basis functions
    29 alpha electrons       29 beta electrons
       nuclear repulsion energy       364.7875895867 Hartrees.
 NAtoms=   11 NActive=   11 NUniq=   11 SFac= 1.00D+00 NAtFMM=   60 NAOKFM=F Big=F
 Integral buffers will be    131072 words long.
 Raffenetti 2 integral format.
 Two-electron integral symmetry is turned on.
 ------------------------------------------------------------------------------
 Polarizable Continuum Model (PCM)
 =================================
 Model                : PCM.
 Atomic radii         : SMD-Coulomb.
 Polarization charges : Total charges.
 Charge compensation  : None.
 Solution method      : On-the-fly selection.
 Cavity type          : VdW (van der Waals Surface) (Alpha=1.000).
 Cavity algorithm     : GePol (No added spheres)
                        Default sphere list used, NSphG=   11.
                        Lebedev-Laikov grids with approx.  5.0 points / Ang**2.
                        Smoothing algorithm: York/Karplus (Gamma=1.0000).
                        Polarization charges: spherical gaussians, with
                                              point-specific exponents (IZeta= 3).
                        Self-potential: point-specific (ISelfS= 7).
                        Self-field    : sphere-specific E.n sum rule (ISelfD= 2).
 1st derivatives      : Analytical E(r).r(x)/FMM algorithm (CHGder, D1EAlg=3).
                        Cavity 1st derivative terms included.
 Solvent              : Water, Eps=  78.355300 Eps(inf)=   1.777849
 ------------------------------------------------------------------------------
 Spheres list:
 ISph  on   Nord     Re0    Alpha      Xe            Ye            Ze
    1   N      1    1.8900  1.000      0.044917     -0.216788     -0.000180
    2   N      2    1.8900  1.000      0.616194      0.971045     -0.002580
    3   C      3    1.8500  1.000      1.927607      0.769597     -0.002218
    4   C      4    1.8500  1.000      2.087598     -0.625692      0.000835
    5   N      5    1.8900  1.000      0.882362     -1.210669      0.002148
    6   H      6    1.2000  1.000      2.644487      1.574124     -0.004131
    7   H      7    1.2000  1.000      2.996588     -1.205796      0.002836
    8   H      8    1.2000  1.000     -0.951576      1.849786      0.057082
    9   C      9    1.8500  1.000     -1.480474     -0.081993     -0.001529
   10   O     10    1.5200  1.000     -1.699956      1.161938     -0.004700
   11   O     11    1.5200  1.000     -2.137817     -1.086276      0.000447
 ------------------------------------------------------------------------------
 ------------------------------------------------------------------------------
 Atomic radii for non-electrostatic terms: SMD-CDS.
 ------------------------------------------------------------------------------
 Nuclear repulsion after PCM non-electrostatic terms =      364.7942879215 Hartrees.
 One-electron integrals computed using PRISM.
 NBasis=   167 RedAO= T EigKep=  2.37D-05  NBF=   167
 NBsUse=   167 1.00D-06 EigRej= -1.00D+00 NBFU=   167
 ExpMin= 4.38D-02 ExpMax= 5.48D+03 ExpMxC= 8.25D+02 IAcc=3 IRadAn=         5 AccDes= 0.00D+00
 Harris functional with IExCor= 1009 and IRadAn=       5 diagonalized for initial guess.
 HarFok:  IExCor= 1009 AccDes= 0.00D+00 IRadAn=         5 IDoV= 1 UseB2=F ITyADJ=14
 ICtDFT=  3500011 ScaDFX=  1.000000  1.000000  1.000000  1.000000
 FoFCou: FMM=F IPFlag=           0 FMFlag=      100000 FMFlg1=           0
         NFxFlg=           0 DoJE=T BraDBF=F KetDBF=T FulRan=T
         wScrn=  0.000000 ICntrl=       500 IOpCl=  0 I1Cent=   200000004 NGrid=           0
         NMat0=    1 NMatS0=      1 NMatT0=    0 NMatD0=    1 NMtDS0=    0 NMtDT0=    0
 Petite list used in FoFCou.
 Keep R1 ints in memory in canonical form, NReq=118249495.
 Requested convergence on RMS density matrix=1.00D-08 within 128 cycles.
 Requested convergence on MAX density matrix=1.00D-06.
 Requested convergence on             energy=1.00D-06.
 No special actions if energy rises.
 Inv3:  Mode=1 IEnd=     3060300.
 Iteration    1 A*A^-1 deviation from unit magnitude is 2.22D-15 for    972.
 Iteration    1 A*A^-1 deviation from orthogonality  is 1.89D-15 for    657     67.
 Iteration    1 A^-1*A deviation from unit magnitude is 2.22D-15 for    980.
 Iteration    1 A^-1*A deviation from orthogonality  is 4.96D-15 for    582    554.
 Error on total polarization charges =  0.03425
 SCF Done:  E(RM062X) =  -430.642363563     A.U. after   14 cycles
            NFock= 14  Conv=0.41D-08     -V/T= 2.0082
 SMD-CDS (non-electrostatic) energy       (kcal/mol) =       4.20
 (included in total energy above)

 **********************************************************************

            Population analysis using the SCF density.

 **********************************************************************

 Orbital symmetries:
       Occupied  (A) (A) (A) (A) (A) (A) (A) (A) (A) (A) (A) (A)
                 (A) (A) (A) (A) (A) (A) (A) (A) (A) (A) (A) (A)
                 (A) (A) (A) (A) (A)
       Virtual   (A) (A) (A) (A) (A) (A) (A) (A) (A) (A) (A) (A)
                 (A) (A) (A) (A) (A) (A) (A) (A) (A) (A) (A) (A)
                 (A) (A) (A) (A) (A) (A) (A) (A) (A) (A) (A) (A)
                 (A) (A) (A) (A) (A) (A) (A) (A) (A) (A) (A) (A)
                 (A) (A) (A) (A) (A) (A) (A) (A) (A) (A) (A) (A)
                 (A) (A) (A) (A) (A) (A) (A) (A) (A) (A) (A) (A)
                 (A) (A) (A) (A) (A) (A) (A) (A) (A) (A) (A) (A)
                 (A) (A) (A) (A) (A) (A) (A) (A) (A) (A) (A) (A)
                 (A) (A) (A) (A) (A) (A) (A) (A) (A) (A) (A) (A)
                 (A) (A) (A) (A) (A) (A) (A) (A) (A) (A) (A) (A)
                 (A) (A) (A) (A) (A) (A) (A) (A) (A) (A) (A) (A)
                 (A) (A) (A) (A) (A) (A)
 The electronic state is 1-A.
 Alpha  occ. eigenvalues --  -19.72193 -19.68271 -14.89659 -14.82568 -14.82064
 Alpha  occ. eigenvalues --  -10.76958 -10.59501 -10.59325  -1.30087  -1.24285
 Alpha  occ. eigenvalues --   -1.20107  -1.02134  -0.94890  -0.78197  -0.74309
 Alpha  occ. eigenvalues --   -0.72766  -0.65372  -0.61301  -0.59454  -0.55960
 Alpha  occ. eigenvalues --   -0.54842  -0.53111  -0.49882  -0.43425  -0.42298
 Alpha  occ. eigenvalues --   -0.40693  -0.38779  -0.37279  -0.34561
 Alpha virt. eigenvalues --   -0.01531   0.01426   0.03598   0.03836   0.04748
 Alpha virt. eigenvalues --    0.06006   0.06220   0.06330   0.07996   0.08720
 Alpha virt. eigenvalues --    0.09338   0.10417   0.10760   0.11886   0.14008
 Alpha virt. eigenvalues --    0.15662   0.17856   0.18424   0.19044   0.19901
 Alpha virt. eigenvalues --    0.20679   0.21314   0.22496   0.23242   0.24183
 Alpha virt. eigenvalues --    0.25481   0.26745   0.26837   0.27495   0.28211
 Alpha virt. eigenvalues --    0.28838   0.29966   0.30439   0.31742   0.32044
 Alpha virt. eigenvalues --    0.33797   0.34460   0.34825   0.38869   0.40292
 Alpha virt. eigenvalues --    0.42159   0.44998   0.46669   0.48501   0.55584
 Alpha virt. eigenvalues --    0.66641   0.71104   0.72156   0.75235   0.77021
 Alpha virt. eigenvalues --    0.79983   0.85200   0.88705   0.90753   0.93770
 Alpha virt. eigenvalues --    0.94064   0.95332   0.95454   0.99159   1.00040
 Alpha virt. eigenvalues --    1.01821   1.01954   1.07095   1.13315   1.14618
 Alpha virt. eigenvalues --    1.17766   1.20076   1.20888   1.23483   1.26133
 Alpha virt. eigenvalues --    1.28016   1.29220   1.30288   1.34736   1.36199
 Alpha virt. eigenvalues --    1.37435   1.38484   1.41304   1.42310   1.44588
 Alpha virt. eigenvalues --    1.45365   1.48658   1.54516   1.56902   1.57949
 Alpha virt. eigenvalues --    1.64111   1.68310   1.71968   1.76632   1.82384
 Alpha virt. eigenvalues --    1.89392   1.91663   1.95592   1.98423   1.98871
 Alpha virt. eigenvalues --    2.04030   2.05463   2.09104   2.12672   2.22454
 Alpha virt. eigenvalues --    2.24335   2.25865   2.28097   2.30783   2.32852
 Alpha virt. eigenvalues --    2.38470   2.39320   2.46685   2.49718   2.51978
 Alpha virt. eigenvalues --    2.54294   2.60770   2.62060   2.66358   2.69516
 Alpha virt. eigenvalues --    2.72074   2.79887   2.80287   2.81106   2.87595
 Alpha virt. eigenvalues --    2.90596   2.99456   3.10260   3.15126   3.16485
 Alpha virt. eigenvalues --    3.24730   3.25447   3.32938   3.56589   3.72862
 Alpha virt. eigenvalues --    4.03483   4.16961   4.23458   4.29792   4.40677
 Alpha virt. eigenvalues --    4.56137   4.66325   4.78950
          Condensed to atoms (all electrons):
               1          2          3          4          5          6
     1  N    7.031159   0.103723   0.024849  -0.170094   0.168618  -0.000095
     2  N    0.103723   6.956561   0.306130   0.045050  -0.180019  -0.045814
     3  C    0.024849   0.306130   5.392055   0.113622  -0.051123   0.398718
     4  C   -0.170094   0.045050   0.113622   5.410359   0.389583  -0.023133
     5  N    0.168618  -0.180019  -0.051123   0.389583   6.993181   0.007133
     6  H   -0.000095  -0.045814   0.398718  -0.023133   0.007133   0.421823
     7  H    0.000899  -0.001706  -0.012621   0.384813  -0.040129   0.000398
     8  H    0.005915   0.040116   0.014541  -0.008032   0.002757  -0.000075
     9  C    0.112489   0.011693  -0.006883  -0.008638  -0.001922  -0.000762
    10  O   -0.103665  -0.067346  -0.007174   0.000597  -0.019519  -0.000171
    11  O   -0.049874   0.029135  -0.002011  -0.002666  -0.049765   0.000012
               7          8          9         10         11
     1  N    0.000899   0.005915   0.112489  -0.103665  -0.049874
     2  N   -0.001706   0.040116   0.011693  -0.067346   0.029135
     3  C   -0.012621   0.014541  -0.006883  -0.007174  -0.002011
     4  C    0.384813  -0.008032  -0.008638   0.000597  -0.002666
     5  N   -0.040129   0.002757  -0.001922  -0.019519  -0.049765
     6  H    0.000398  -0.000075  -0.000762  -0.000171   0.000012
     7  H    0.436789  -0.000004   0.000113   0.000038  -0.000031
     8  H   -0.000004   0.213776  -0.012796   0.231230   0.004348
     9  C    0.000113  -0.012796   4.294382   0.308888   0.459457
    10  O    0.000038   0.231230   0.308888   8.196185  -0.077426
    11  O   -0.000031   0.004348   0.459457  -0.077426   8.210998
 Mulliken charges:
               1
     1  N   -0.123923
     2  N   -0.197521
     3  C   -0.170103
     4  C   -0.131461
     5  N   -0.218792
     6  H    0.241967
     7  H    0.231442
     8  H    0.508225
     9  C    0.843979
    10  O   -0.461638
    11  O   -0.522176
 Sum of Mulliken charges =  -0.00000
 Mulliken charges with hydrogens summed into heavy atoms:
               1
     1  N   -0.123923
     2  N   -0.197521
     3  C    0.071864
     4  C    0.099981
     5  N   -0.218792
     9  C    0.843979
    10  O    0.046588
    11  O   -0.522176
 Electronic spatial extent (au):  <R**2>=            804.0043
 Charge=             -0.0000 electrons
 Dipole moment (field-independent basis, Debye):
    X=              4.9863    Y=              4.7846    Z=              0.1376  Tot=              6.9119
 Quadrupole moment (field-independent basis, Debye-Ang):
   XX=            -43.3781   YY=            -46.3513   ZZ=            -45.4297
   XY=             -2.9974   XZ=             -0.1358   YZ=              0.2903
 Traceless Quadrupole moment (field-independent basis, Debye-Ang):
   XX=              1.6750   YY=             -1.2983   ZZ=             -0.3767
   XY=             -2.9974   XZ=             -0.1358   YZ=              0.2903
 Octapole moment (field-independent basis, Debye-Ang**2):
  XXX=             46.0615  YYY=             25.6486  ZZZ=              0.0699  XYY=              5.3938
  XXY=              9.8472  XXZ=              0.1172  XZZ=             -7.2973  YZZ=              0.9859
  YYZ=              0.5838  XYZ=             -0.3085
 Hexadecapole moment (field-independent basis, Debye-Ang**3):
 XXXX=           -677.0718 YYYY=           -259.9528 ZZZZ=            -43.6979 XXXY=            -15.5157
 XXXZ=             -0.0947 YYYX=             -7.4392 YYYZ=              1.1978 ZZZX=             -0.0622
 ZZZY=              0.1668 XXYY=           -155.0228 XXZZ=           -130.8355 YYZZ=            -54.8944
 XXYZ=              0.2161 YYXZ=             -0.6111 ZZXY=             -0.1931
 N-N= 3.647942879215D+02 E-N=-1.735196212210D+03  KE= 4.271459409747D+02
 D1PCM: PCM CHGder 1st derivatives, ID1Alg=3 FixD1E=F DoIter=F DoCFld=F I1PDM=0.
 Calling FoFJK, ICntrl=      2127 FMM=F ISym2X=0 I1Cent= 0 IOpClX= 0 NMat=1 NMatS=1 NMatT=0.
 ***** Axes restored to original set *****
 -------------------------------------------------------------------
 Center     Atomic                   Forces (Hartrees/Bohr)
 Number     Number              X              Y              Z
 -------------------------------------------------------------------
      1        7           0.018588097    0.034672192   -0.000061356
      2        7          -0.025214824    0.023267043   -0.000563521
      3        6           0.014061432   -0.014428718   -0.000096025
      4        6           0.000115791   -0.006850763    0.000050367
      5        7          -0.010208311   -0.019341678    0.000038880
      6        1          -0.000323856    0.000652958   -0.000055975
      7        1           0.000560824   -0.002289041    0.000061658
      8        1           0.005845059   -0.033912663    0.003140069
      9        6          -0.070860025   -0.041124040   -0.001704691
     10        8           0.056301681    0.042036227   -0.001674895
     11        8           0.011134131    0.017318483    0.000865488
 -------------------------------------------------------------------
 Cartesian Forces:  Max     0.070860025 RMS     0.022654267

 GradGradGradGradGradGradGradGradGradGradGradGradGradGradGradGradGradGrad
 Berny optimization.
 FormGI is forming the generalized inverse of G from B-inverse, IUseBI=4.
 Internal  Forces:  Max     0.053905184 RMS     0.018566582
 Search for a local minimum.
 Step number   1 out of a maximum of   54
 All quantities printed in internal units (Hartrees-Bohrs-Radians)
 Mixed Optimization -- RFO/linear search
 Second derivative matrix not updated -- first step.
 ITU=  0
     Eigenvalues ---    0.00230   0.01380   0.01713   0.02137   0.02253
     Eigenvalues ---    0.02330   0.02518   0.03502   0.16000   0.16000
     Eigenvalues ---    0.16000   0.22633   0.24757   0.25000   0.25000
     Eigenvalues ---    0.25000   0.29300   0.36197   0.36288   0.41888
     Eigenvalues ---    0.44603   0.52776   0.57657   0.59829   0.65011
     Eigenvalues ---    0.78561   1.04679
 RFO step:  Lambda=-4.95394334D-02 EMin= 2.30000000D-03
 Linear search not attempted -- first point.
 Maximum step size (   0.300) exceeded in Quadratic search.
    -- Step size scaled by   0.725
 Iteration  1 RMS(Cart)=  0.13408707 RMS(Int)=  0.00742444
 Iteration  2 RMS(Cart)=  0.01004616 RMS(Int)=  0.00007816
 Iteration  3 RMS(Cart)=  0.00004435 RMS(Int)=  0.00007377
 Iteration  4 RMS(Cart)=  0.00000000 RMS(Int)=  0.00007377
 Variable       Old X    -DE/DX   Delta X   Delta X   Delta X     New X
                                 (Linear)    (Quad)   (Total)
    R1        2.49079   0.01759   0.00000   0.02125   0.02127   2.51206
    R2        2.45600   0.02000   0.00000   0.02192   0.02187   2.47787
    R3        2.89381   0.00085   0.00000   0.00179   0.00179   2.89560
    R4        2.50728   0.00000   0.00000  -0.00040  -0.00034   2.50694
    R5        2.65400   0.00229   0.00000  -0.00012  -0.00009   2.65390
    R6        2.03634   0.00070   0.00000   0.00124   0.00124   2.03757
    R7        2.53166  -0.01421   0.00000  -0.01777  -0.01783   2.51384
    R8        2.03774   0.00078   0.00000   0.00138   0.00138   2.03912
    R9        1.92439  -0.02715   0.00000  -0.03974  -0.03974   1.88465
   R10        2.38701   0.01809   0.00000   0.01571   0.01571   2.40272
   R11        2.26821  -0.00817   0.00000  -0.00540  -0.00540   2.26281
    A1        1.99313  -0.00211   0.00000   0.00191   0.00187   1.99500
    A2        1.93094   0.05373   0.00000   0.12662   0.12664   2.05758
    A3        2.35912  -0.05163   0.00000  -0.12853  -0.12851   2.23060
    A4        1.86666  -0.01432   0.00000  -0.03043  -0.03031   1.83635
    A5        1.83738   0.01556   0.00000   0.03445   0.03453   1.87191
    A6        2.14623  -0.00799   0.00000  -0.01796  -0.01800   2.12823
    A7        2.29958  -0.00757   0.00000  -0.01649  -0.01653   2.28304
    A8        1.90850  -0.00272   0.00000  -0.01602  -0.01604   1.89246
    A9        2.25299   0.00361   0.00000   0.01582   0.01583   2.26882
   A10        2.12169  -0.00090   0.00000   0.00020   0.00021   2.12191
   A11        1.81911   0.00359   0.00000   0.01009   0.00995   1.82906
   A12        1.83358   0.05391   0.00000   0.13055   0.13055   1.96413
   A13        2.06222  -0.00553   0.00000  -0.01339  -0.01339   2.04883
   A14        2.38739  -0.04838   0.00000  -0.11716  -0.11716   2.27023
   A15        2.13807  -0.04091   0.00000  -0.14164  -0.14164   1.99642
    D1        0.00030   0.00009   0.00000   0.00107   0.00110   0.00141
    D2       -3.14081  -0.00015   0.00000  -0.00180  -0.00211   3.14027
    D3       -0.00027  -0.00015   0.00000  -0.00170  -0.00172  -0.00199
    D4        3.14068   0.00020   0.00000   0.00223   0.00198  -3.14053
    D5        0.00009   0.00071   0.00000   0.00935   0.00937   0.00946
    D6       -3.14153   0.00057   0.00000   0.00774   0.00769  -3.13384
    D7       -3.14088   0.00038   0.00000   0.00554   0.00559  -3.13529
    D8        0.00068   0.00023   0.00000   0.00393   0.00391   0.00459
    D9       -0.00019   0.00001   0.00000   0.00003  -0.00003  -0.00022
   D10        3.14129  -0.00001   0.00000  -0.00012  -0.00013   3.14115
   D11        0.00004  -0.00011   0.00000  -0.00106  -0.00099  -0.00096
   D12       -3.14066  -0.00003   0.00000  -0.00028  -0.00026  -3.14092
   D13       -3.14143  -0.00008   0.00000  -0.00089  -0.00088   3.14088
   D14        0.00106  -0.00001   0.00000  -0.00012  -0.00015   0.00092
   D15        0.00014   0.00015   0.00000   0.00164   0.00159   0.00172
   D16        3.14091   0.00009   0.00000   0.00094   0.00094  -3.14134
   D17       -0.07337   0.00176   0.00000   0.01492   0.01498  -0.05839
   D18        3.06826   0.00195   0.00000   0.01699   0.01693   3.08518
         Item               Value     Threshold  Converged?
 Maximum Force            0.053905     0.000450     NO 
 RMS     Force            0.018567     0.000300     NO 
 Maximum Displacement     0.498787     0.001800     NO 
 RMS     Displacement     0.133820     0.001200     NO 
 Predicted change in Energy=-2.514928D-02
 GradGradGradGradGradGradGradGradGradGradGradGradGradGradGradGradGradGrad

                          Input orientation:                          
 ---------------------------------------------------------------------
 Center     Atomic      Atomic             Coordinates (Angstroms)
 Number     Number       Type             X           Y           Z
 ---------------------------------------------------------------------
      1          7           0       -0.069960   -0.090784   -0.000666
      2          7           0       -0.732122    1.061873   -0.005851
      3          6           0       -2.015545    0.726122   -0.003056
      4          6           0       -2.079057   -0.676810    0.003713
      5          7           0       -0.837330   -1.154012    0.003634
      6          1           0       -2.798953    1.466973   -0.005675
      7          1           0       -2.936256   -1.332220    0.007085
      8          1           0        1.203123    1.856914   -0.049278
      9          6           0        1.461402   -0.037720   -0.004060
     10          8           0        1.907757    1.152815   -0.000595
     11          8           0        2.048738   -1.081202   -0.007579
 ---------------------------------------------------------------------
                    Distance matrix (angstroms):
                    1          2          3          4          5
     1  N    0.000000
     2  N    1.329324   0.000000
     3  C    2.110129   1.326616   0.000000
     4  C    2.092825   2.199395   1.404385   0.000000
     5  N    1.311232   2.218401   2.218815   1.330266   0.000000
     6  H    3.142298   2.106157   1.078237   2.261447   3.273777
     7  H    3.123600   3.254236   2.254902   1.079057   2.106480
     8  H    2.327366   2.092642   3.411839   4.146717   3.637571
     9  C    1.532284   2.453702   3.559861   3.597685   2.555452
    10  O    2.336215   2.641450   3.946438   4.386596   3.585662
    11  O    2.338772   3.510834   4.448015   4.147571   2.887008
                    6          7          8          9         10
     6  H    0.000000
     7  H    2.802587   0.000000
     8  H    4.021264   5.225725   0.000000
     9  C    4.518266   4.584239   1.912691   0.000000
    10  O    4.717186   5.444255   0.997314   1.271463   0.000000
    11  O    5.476614   4.991331   3.057667   1.197427   2.238472
                   11
    11  O    0.000000
 Stoichiometry    C3H3N3O2
 Framework group  C1[X(C3H3N3O2)]
 Deg. of freedom    27
 Full point group                 C1      NOp   1
 Largest Abelian subgroup         C1      NOp   1
 Largest concise Abelian subgroup C1      NOp   1
                         Standard orientation:                         
 ---------------------------------------------------------------------
 Center     Atomic      Atomic             Coordinates (Angstroms)
 Number     Number       Type             X           Y           Z
 ---------------------------------------------------------------------
      1          7           0        0.070190   -0.112366   -0.001567
      2          7           0        0.702579    1.056899    0.001371
      3          6           0        1.994189    0.754157    0.001425
      4          6           0        2.093653   -0.646698   -0.001317
      5          7           0        0.864569   -1.155578   -0.001745
      6          1           0        2.758344    1.514855    0.003131
      7          1           0        2.967376   -1.279923   -0.001578
      8          1           0       -1.252476    1.802179    0.039693
      9          6           0       -1.462032   -0.098571   -0.000598
     10          8           0       -1.938753    1.080114   -0.008064
     11          8           0       -2.022431   -1.156755    0.004974
 ---------------------------------------------------------------------
 Rotational constants (GHZ):           5.3919354           1.7613014           1.3276477
 Standard basis: 6-31+G(d,p) (6D, 7F)
 There are   167 symmetry adapted cartesian basis functions of A   symmetry.
 There are   167 symmetry adapted basis functions of A   symmetry.
   167 basis functions,   277 primitive gaussians,   167 cartesian basis functions
    29 alpha electrons       29 beta electrons
       nuclear repulsion energy       361.4314863368 Hartrees.
 NAtoms=   11 NActive=   11 NUniq=   11 SFac= 1.00D+00 NAtFMM=   60 NAOKFM=F Big=F
 Integral buffers will be    131072 words long.
 Raffenetti 2 integral format.
 Two-electron integral symmetry is turned on.
 ------------------------------------------------------------------------------
 Polarizable Continuum Model (PCM)
 =================================
 Model                : PCM.
 Atomic radii         : SMD-Coulomb.
 Polarization charges : Total charges.
 Charge compensation  : None.
 Solution method      : On-the-fly selection.
 Cavity type          : VdW (van der Waals Surface) (Alpha=1.000).
 Cavity algorithm     : GePol (No added spheres)
                        Default sphere list used, NSphG=   11.
                        Lebedev-Laikov grids with approx.  5.0 points / Ang**2.
                        Smoothing algorithm: York/Karplus (Gamma=1.0000).
                        Polarization charges: spherical gaussians, with
                                              point-specific exponents (IZeta= 3).
                        Self-potential: point-specific (ISelfS= 7).
                        Self-field    : sphere-specific E.n sum rule (ISelfD= 2).
 1st derivatives      : Analytical E(r).r(x)/FMM algorithm (CHGder, D1EAlg=3).
                        Cavity 1st derivative terms included.
 Solvent              : Water, Eps=  78.355300 Eps(inf)=   1.777849
 ------------------------------------------------------------------------------
 Spheres list:
 ISph  on   Nord     Re0    Alpha      Xe            Ye            Ze
    1   N      1    1.8900  1.000      0.070190     -0.112366     -0.001567
    2   N      2    1.8900  1.000      0.702579      1.056899      0.001371
    3   C      3    1.8500  1.000      1.994189      0.754157      0.001425
    4   C      4    1.8500  1.000      2.093653     -0.646698     -0.001317
    5   N      5    1.8900  1.000      0.864569     -1.155578     -0.001745
    6   H      6    1.2000  1.000      2.758344      1.514855      0.003131
    7   H      7    1.2000  1.000      2.967376     -1.279923     -0.001578
    8   H      8    1.2000  1.000     -1.252476      1.802179      0.039693
    9   C      9    1.8500  1.000     -1.462032     -0.098571     -0.000598
   10   O     10    1.5200  1.000     -1.938753      1.080114     -0.008064
   11   O     11    1.5200  1.000     -2.022431     -1.156755      0.004974
 ------------------------------------------------------------------------------
 ------------------------------------------------------------------------------
 Atomic radii for non-electrostatic terms: SMD-CDS.
 ------------------------------------------------------------------------------
 Nuclear repulsion after PCM non-electrostatic terms =      361.4379503477 Hartrees.
 One-electron integrals computed using PRISM.
 NBasis=   167 RedAO= T EigKep=  2.36D-05  NBF=   167
 NBsUse=   167 1.00D-06 EigRej= -1.00D+00 NBFU=   167
 Initial guess from the checkpoint file:  "/scratch/gongke2021/1-H-Tz-PC/Gau-6627.chk"
 B after Tr=     0.000000   -0.000000   -0.000000
         Rot=    0.999921   -0.000006    0.000005   -0.012588 Ang=  -1.44 deg.
 ExpMin= 4.38D-02 ExpMax= 5.48D+03 ExpMxC= 8.25D+02 IAcc=2 IRadAn=         4 AccDes= 0.00D+00
 Harris functional with IExCor= 1009 and IRadAn=       4 diagonalized for initial guess.
 HarFok:  IExCor= 1009 AccDes= 0.00D+00 IRadAn=         4 IDoV= 1 UseB2=F ITyADJ=14
 ICtDFT=  3500011 ScaDFX=  1.000000  1.000000  1.000000  1.000000
 FoFCou: FMM=F IPFlag=           0 FMFlag=      100000 FMFlg1=           0
         NFxFlg=           0 DoJE=T BraDBF=F KetDBF=T FulRan=T
         wScrn=  0.000000 ICntrl=       500 IOpCl=  0 I1Cent=   200000004 NGrid=           0
         NMat0=    1 NMatS0=      1 NMatT0=    0 NMatD0=    1 NMtDS0=    0 NMtDT0=    0
 Petite list used in FoFCou.
 Keep R1 ints in memory in canonical form, NReq=118249495.
 Requested convergence on RMS density matrix=1.00D-08 within 128 cycles.
 Requested convergence on MAX density matrix=1.00D-06.
 Requested convergence on             energy=1.00D-06.
 No special actions if energy rises.
 Inv3:  Mode=1 IEnd=     3024048.
 Iteration    1 A*A^-1 deviation from unit magnitude is 3.66D-15 for   1003.
 Iteration    1 A*A^-1 deviation from orthogonality  is 1.58D-15 for   1003    725.
 Iteration    1 A^-1*A deviation from unit magnitude is 3.66D-15 for   1003.
 Iteration    1 A^-1*A deviation from orthogonality  is 1.27D-15 for    991    533.
 Error on total polarization charges =  0.03395
 SCF Done:  E(RM062X) =  -430.662087965     A.U. after   13 cycles
            NFock= 13  Conv=0.25D-08     -V/T= 2.0085
 SMD-CDS (non-electrostatic) energy       (kcal/mol) =       4.06
 (included in total energy above)
 D1PCM: PCM CHGder 1st derivatives, ID1Alg=3 FixD1E=F DoIter=F DoCFld=F I1PDM=0.
 Calling FoFJK, ICntrl=      2127 FMM=F ISym2X=0 I1Cent= 0 IOpClX= 0 NMat=1 NMatS=1 NMatT=0.
 ***** Axes restored to original set *****
 -------------------------------------------------------------------
 Center     Atomic                   Forces (Hartrees/Bohr)
 Number     Number              X              Y              Z
 -------------------------------------------------------------------
      1        7           0.025083614    0.026768688   -0.000369259
      2        7          -0.000306302    0.009356881    0.000144664
      3        6           0.007958441   -0.001214126    0.000004150
      4        6           0.004092188   -0.002430281   -0.000151559
      5        7           0.001313368   -0.017524981    0.000194472
      6        1          -0.000439784    0.000495709   -0.000020379
      7        1           0.000521877   -0.000673128    0.000037661
      8        1           0.007673053   -0.012733271    0.001481102
      9        6          -0.061165536   -0.042087469   -0.000484138
     10        8           0.007171066    0.035989851   -0.001479479
     11        8           0.008098015    0.004052126    0.000642767
 -------------------------------------------------------------------
 Cartesian Forces:  Max     0.061165536 RMS     0.016512992

 GradGradGradGradGradGradGradGradGradGradGradGradGradGradGradGradGradGrad
 Berny optimization.
 Using GEDIIS/GDIIS optimizer.
 FormGI is forming the generalized inverse of G from B-inverse, IUseBI=4.
 Internal  Forces:  Max     0.038701926 RMS     0.009023796
 Search for a local minimum.
 Step number   2 out of a maximum of   54
 All quantities printed in internal units (Hartrees-Bohrs-Radians)
 Mixed Optimization -- RFO/linear search
 Update second derivatives using D2CorX and points    1    2
 DE= -1.97D-02 DEPred=-2.51D-02 R= 7.84D-01
 TightC=F SS=  1.41D+00  RLast= 3.01D-01 DXNew= 5.0454D-01 9.0356D-01
 Trust test= 7.84D-01 RLast= 3.01D-01 DXMaxT set to 5.05D-01
 ITU=  1  0
 Use linear search instead of GDIIS.
     Eigenvalues ---    0.00230   0.01379   0.01547   0.02136   0.02253
     Eigenvalues ---    0.02327   0.02520   0.03504   0.15822   0.16000
     Eigenvalues ---    0.16018   0.19378   0.22724   0.24883   0.25000
     Eigenvalues ---    0.26384   0.36196   0.36287   0.41207   0.43854
     Eigenvalues ---    0.48212   0.53609   0.57334   0.60806   0.64851
     Eigenvalues ---    0.79813   1.04865
 RFO step:  Lambda=-1.57947068D-02 EMin= 2.30199720D-03
 Quartic linear search produced a step of  0.37783.
 Iteration  1 RMS(Cart)=  0.07662242 RMS(Int)=  0.00321851
 Iteration  2 RMS(Cart)=  0.00402124 RMS(Int)=  0.00012599
 Iteration  3 RMS(Cart)=  0.00001327 RMS(Int)=  0.00012579
 Iteration  4 RMS(Cart)=  0.00000000 RMS(Int)=  0.00012579
 Variable       Old X    -DE/DX   Delta X   Delta X   Delta X     New X
                                 (Linear)    (Quad)   (Total)
    R1        2.51206   0.00024   0.00804  -0.00033   0.00778   2.51984
    R2        2.47787   0.00714   0.00826   0.01336   0.02162   2.49949
    R3        2.89560  -0.03870   0.00068  -0.17052  -0.16984   2.72575
    R4        2.50694  -0.00324  -0.00013  -0.00768  -0.00775   2.49919
    R5        2.65390   0.00581  -0.00004   0.01541   0.01532   2.66923
    R6        2.03757   0.00067   0.00047   0.00234   0.00280   2.04038
    R7        2.51384  -0.00569  -0.00674  -0.01194  -0.01877   2.49507
    R8        2.03912  -0.00001   0.00052  -0.00010   0.00042   2.03954
    R9        1.88465  -0.01451  -0.01502  -0.04024  -0.05526   1.82939
   R10        2.40272   0.02696   0.00594   0.04438   0.05032   2.45304
   R11        2.26281   0.00046  -0.00204   0.00110  -0.00094   2.26186
    A1        1.99500   0.01121   0.00071   0.06021   0.06097   2.05598
    A2        2.05758   0.00737   0.04785   0.03360   0.08141   2.13898
    A3        2.23060  -0.01858  -0.04856  -0.09381  -0.14240   2.08820
    A4        1.83635  -0.01017  -0.01145  -0.05232  -0.06358   1.77277
    A5        1.87191   0.00558   0.01305   0.02655   0.03961   1.91152
    A6        2.12823  -0.00288  -0.00680  -0.01399  -0.02080   2.10743
    A7        2.28304  -0.00270  -0.00625  -0.01256  -0.01881   2.26423
    A8        1.89246   0.00207  -0.00606   0.00817   0.00198   1.89443
    A9        2.26882  -0.00020   0.00598   0.00260   0.00864   2.27746
   A10        2.12191  -0.00187   0.00008  -0.01077  -0.01062   2.11129
   A11        1.82906  -0.00868   0.00376  -0.04260  -0.03898   1.79008
   A12        1.96413  -0.00204   0.04932  -0.01318   0.03613   2.00026
   A13        2.04883   0.01122  -0.00506   0.05770   0.05263   2.10146
   A14        2.27023  -0.00918  -0.04427  -0.04453  -0.08880   2.18143
   A15        1.99642  -0.00671  -0.05352  -0.05605  -0.10957   1.88686
    D1        0.00141  -0.00006   0.00042  -0.00127  -0.00079   0.00062
    D2        3.14027  -0.00012  -0.00080  -0.00467  -0.00596   3.13431
    D3       -0.00199   0.00009  -0.00065   0.00190   0.00124  -0.00075
    D4       -3.14053   0.00010   0.00075   0.00544   0.00585  -3.13468
    D5        0.00946  -0.00003   0.00354   0.00641   0.01000   0.01946
    D6       -3.13384  -0.00015   0.00290   0.00037   0.00307  -3.13077
    D7       -3.13529  -0.00004   0.00211   0.00279   0.00511  -3.13018
    D8        0.00459  -0.00016   0.00148  -0.00325  -0.00182   0.00277
    D9       -0.00022   0.00001  -0.00001   0.00012   0.00001  -0.00022
   D10        3.14115   0.00002  -0.00005   0.00057   0.00050  -3.14153
   D11       -0.00096   0.00005  -0.00038   0.00102   0.00075  -0.00021
   D12       -3.14092  -0.00001  -0.00010  -0.00034  -0.00039  -3.14131
   D13        3.14088   0.00003  -0.00033   0.00052   0.00020   3.14107
   D14        0.00092  -0.00002  -0.00006  -0.00085  -0.00094  -0.00002
   D15        0.00172  -0.00009   0.00060  -0.00178  -0.00119   0.00053
   D16       -3.14134  -0.00004   0.00035  -0.00054  -0.00016  -3.14150
   D17       -0.05839   0.00072   0.00566   0.02354   0.02944  -0.02894
   D18        3.08518   0.00083   0.00640   0.03041   0.03656   3.12174
         Item               Value     Threshold  Converged?
 Maximum Force            0.038702     0.000450     NO 
 RMS     Force            0.009024     0.000300     NO 
 Maximum Displacement     0.227518     0.001800     NO 
 RMS     Displacement     0.077659     0.001200     NO 
 Predicted change in Energy=-7.204821D-03
 GradGradGradGradGradGradGradGradGradGradGradGradGradGradGradGradGradGrad

                          Input orientation:                          
 ---------------------------------------------------------------------
 Center     Atomic      Atomic             Coordinates (Angstroms)
 Number     Number       Type             X           Y           Z
 ---------------------------------------------------------------------
      1          7           0       -0.081528    0.006024   -0.001609
      2          7           0       -0.758440    1.154827   -0.012262
      3          6           0       -2.009390    0.725709   -0.007105
      4          6           0       -2.023865   -0.686646    0.006364
      5          7           0       -0.776445   -1.119337    0.009161
      6          1           0       -2.832636    1.424297   -0.013316
      7          1           0       -2.851828   -1.378940    0.013432
      8          1           0        1.255292    1.796172   -0.025974
      9          6           0        1.359922   -0.045630   -0.011087
     10          8           0        1.942376    1.114446   -0.007814
     11          8           0        1.928341   -1.098974   -0.012118
 ---------------------------------------------------------------------
                    Distance matrix (angstroms):
                    1          2          3          4          5
     1  N    0.000000
     2  N    1.333443   0.000000
     3  C    2.057821   1.322514   0.000000
     4  C    2.062166   2.234429   1.412494   0.000000
     5  N    1.322673   2.274336   2.219147   1.320335   0.000000
     6  H    3.095194   2.091627   1.079721   2.260659   3.270856
     7  H    3.097243   3.286778   2.267085   1.079279   2.091561
     8  H    2.234348   2.113440   3.435752   4.113187   3.553784
     9  C    1.442407   2.434863   3.456478   3.444013   2.391092
    10  O    2.307558   2.701122   3.970840   4.356054   3.518816
    11  O    2.293623   3.506909   4.339956   3.973699   2.704946
                    6          7          8          9         10
     6  H    0.000000
     7  H    2.803431   0.000000
     8  H    4.104827   5.191467   0.000000
     9  C    4.442773   4.417823   1.844832   0.000000
    10  O    4.785058   5.403871   0.968073   1.298091   0.000000
    11  O    5.388302   4.788429   2.972383   1.196927   2.213469
                   11
    11  O    0.000000
 Stoichiometry    C3H3N3O2
 Framework group  C1[X(C3H3N3O2)]
 Deg. of freedom    27
 Full point group                 C1      NOp   1
 Largest Abelian subgroup         C1      NOp   1
 Largest concise Abelian subgroup C1      NOp   1
                         Standard orientation:                         
 ---------------------------------------------------------------------
 Center     Atomic      Atomic             Coordinates (Angstroms)
 Number     Number       Type             X           Y           Z
 ---------------------------------------------------------------------
      1          7           0        0.067998   -0.030986   -0.003029
      2          7           0        0.724063    1.129877    0.003689
      3          6           0        1.982553    0.723370    0.004155
      4          6           0        2.022517   -0.688544   -0.002137
      5          7           0        0.783111   -1.143671   -0.006193
      6          1           0        2.793054    1.436715    0.009109
      7          1           0        2.862839   -1.365819   -0.003420
      8          1           0       -1.300931    1.734859    0.008598
      9          6           0       -1.372309   -0.108582    0.002728
     10          8           0       -1.975563    1.040769   -0.008015
     11          8           0       -1.921653   -1.171989    0.007512
 ---------------------------------------------------------------------
 Rotational constants (GHZ):           5.3447579           1.8442595           1.3711605
 Standard basis: 6-31+G(d,p) (6D, 7F)
 There are   167 symmetry adapted cartesian basis functions of A   symmetry.
 There are   167 symmetry adapted basis functions of A   symmetry.
   167 basis functions,   277 primitive gaussians,   167 cartesian basis functions
    29 alpha electrons       29 beta electrons
       nuclear repulsion energy       364.8538588371 Hartrees.
 NAtoms=   11 NActive=   11 NUniq=   11 SFac= 1.00D+00 NAtFMM=   60 NAOKFM=F Big=F
 Integral buffers will be    131072 words long.
 Raffenetti 2 integral format.
 Two-electron integral symmetry is turned on.
 ------------------------------------------------------------------------------
 Polarizable Continuum Model (PCM)
 =================================
 Model                : PCM.
 Atomic radii         : SMD-Coulomb.
 Polarization charges : Total charges.
 Charge compensation  : None.
 Solution method      : On-the-fly selection.
 Cavity type          : VdW (van der Waals Surface) (Alpha=1.000).
 Cavity algorithm     : GePol (No added spheres)
                        Default sphere list used, NSphG=   11.
                        Lebedev-Laikov grids with approx.  5.0 points / Ang**2.
                        Smoothing algorithm: York/Karplus (Gamma=1.0000).
                        Polarization charges: spherical gaussians, with
                                              point-specific exponents (IZeta= 3).
                        Self-potential: point-specific (ISelfS= 7).
                        Self-field    : sphere-specific E.n sum rule (ISelfD= 2).
 1st derivatives      : Analytical E(r).r(x)/FMM algorithm (CHGder, D1EAlg=3).
                        Cavity 1st derivative terms included.
 Solvent              : Water, Eps=  78.355300 Eps(inf)=   1.777849
 ------------------------------------------------------------------------------
 Spheres list:
 ISph  on   Nord     Re0    Alpha      Xe            Ye            Ze
    1   N      1    1.8900  1.000      0.067998     -0.030986     -0.003029
    2   N      2    1.8900  1.000      0.724063      1.129877      0.003689
    3   C      3    1.8500  1.000      1.982553      0.723370      0.004155
    4   C      4    1.8500  1.000      2.022517     -0.688544     -0.002137
    5   N      5    1.8900  1.000      0.783111     -1.143671     -0.006193
    6   H      6    1.2000  1.000      2.793054      1.436715      0.009109
    7   H      7    1.2000  1.000      2.862839     -1.365819     -0.003420
    8   H      8    1.2000  1.000     -1.300931      1.734859      0.008598
    9   C      9    1.8500  1.000     -1.372309     -0.108582      0.002728
   10   O     10    1.5200  1.000     -1.975563      1.040769     -0.008015
   11   O     11    1.5200  1.000     -1.921653     -1.171989      0.007512
 ------------------------------------------------------------------------------
 ------------------------------------------------------------------------------
 Atomic radii for non-electrostatic terms: SMD-CDS.
 ------------------------------------------------------------------------------
 Nuclear repulsion after PCM non-electrostatic terms =      364.8597858085 Hartrees.
 One-electron integrals computed using PRISM.
 NBasis=   167 RedAO= T EigKep=  2.13D-05  NBF=   167
 NBsUse=   167 1.00D-06 EigRej= -1.00D+00 NBFU=   167
 Initial guess from the checkpoint file:  "/scratch/gongke2021/1-H-Tz-PC/Gau-6627.chk"
 B after Tr=    -0.000000    0.000000   -0.000000
         Rot=    1.000000   -0.000012   -0.000070   -0.000744 Ang=  -0.09 deg.
 ExpMin= 4.38D-02 ExpMax= 5.48D+03 ExpMxC= 8.25D+02 IAcc=2 IRadAn=         4 AccDes= 0.00D+00
 Harris functional with IExCor= 1009 and IRadAn=       4 diagonalized for initial guess.
 HarFok:  IExCor= 1009 AccDes= 0.00D+00 IRadAn=         4 IDoV= 1 UseB2=F ITyADJ=14
 ICtDFT=  3500011 ScaDFX=  1.000000  1.000000  1.000000  1.000000
 FoFCou: FMM=F IPFlag=           0 FMFlag=      100000 FMFlg1=           0
         NFxFlg=           0 DoJE=T BraDBF=F KetDBF=T FulRan=T
         wScrn=  0.000000 ICntrl=       500 IOpCl=  0 I1Cent=   200000004 NGrid=           0
         NMat0=    1 NMatS0=      1 NMatT0=    0 NMatD0=    1 NMtDS0=    0 NMtDT0=    0
 Petite list used in FoFCou.
 Keep R1 ints in memory in canonical form, NReq=118249495.
 Requested convergence on RMS density matrix=1.00D-08 within 128 cycles.
 Requested convergence on MAX density matrix=1.00D-06.
 Requested convergence on             energy=1.00D-06.
 No special actions if energy rises.
 Inv3:  Mode=1 IEnd=     2952192.
 Iteration    1 A*A^-1 deviation from unit magnitude is 3.11D-15 for    983.
 Iteration    1 A*A^-1 deviation from orthogonality  is 1.43D-15 for    989    852.
 Iteration    1 A^-1*A deviation from unit magnitude is 3.11D-15 for    987.
 Iteration    1 A^-1*A deviation from orthogonality  is 8.95D-16 for    101    100.
 Error on total polarization charges =  0.03345
 SCF Done:  E(RM062X) =  -430.668761742     A.U. after   13 cycles
            NFock= 13  Conv=0.48D-08     -V/T= 2.0080
 SMD-CDS (non-electrostatic) energy       (kcal/mol) =       3.72
 (included in total energy above)
 D1PCM: PCM CHGder 1st derivatives, ID1Alg=3 FixD1E=F DoIter=F DoCFld=F I1PDM=0.
 Calling FoFJK, ICntrl=      2127 FMM=F ISym2X=0 I1Cent= 0 IOpClX= 0 NMat=1 NMatS=1 NMatT=0.
 ***** Axes restored to original set *****
 -------------------------------------------------------------------
 Center     Atomic                   Forces (Hartrees/Bohr)
 Number     Number              X              Y              Z
 -------------------------------------------------------------------
      1        7           0.031571927   -0.000886289   -0.000468711
      2        7          -0.006364057   -0.015287081    0.000148617
      3        6          -0.007097299    0.008330203   -0.000054073
      4        6          -0.000750492   -0.000722797    0.000031368
      5        7          -0.007526912    0.005115187   -0.000198446
      6        1          -0.000862988   -0.000760322    0.000028255
      7        1          -0.001292134    0.001536065    0.000034826
      8        1          -0.000588586    0.014721129    0.000121236
      9        6          -0.017914081   -0.012431619    0.001228914
     10        8           0.003515012    0.010223476   -0.000679061
     11        8           0.007309611   -0.009837952   -0.000192925
 -------------------------------------------------------------------
 Cartesian Forces:  Max     0.031571927 RMS     0.008603571

 GradGradGradGradGradGradGradGradGradGradGradGradGradGradGradGradGradGrad
 Berny optimization.
 Using GEDIIS/GDIIS optimizer.
 FormGI is forming the generalized inverse of G from B-inverse, IUseBI=4.
 Internal  Forces:  Max     0.023613517 RMS     0.006767627
 Search for a local minimum.
 Step number   3 out of a maximum of   54
 All quantities printed in internal units (Hartrees-Bohrs-Radians)
 Mixed Optimization -- RFO/linear search
 Update second derivatives using D2CorX and points    1    2    3
 DE= -6.67D-03 DEPred=-7.20D-03 R= 9.26D-01
 TightC=F SS=  1.41D+00  RLast= 3.17D-01 DXNew= 8.4853D-01 9.5215D-01
 Trust test= 9.26D-01 RLast= 3.17D-01 DXMaxT set to 8.49D-01
 ITU=  1  1  0
 Use linear search instead of GDIIS.
     Eigenvalues ---    0.00230   0.01398   0.01421   0.02136   0.02254
     Eigenvalues ---    0.02315   0.02521   0.03487   0.15076   0.16001
     Eigenvalues ---    0.16111   0.17704   0.22804   0.24984   0.25657
     Eigenvalues ---    0.31272   0.36196   0.36286   0.41145   0.45702
     Eigenvalues ---    0.47245   0.53953   0.56715   0.60601   0.64804
     Eigenvalues ---    0.81284   1.06361
 RFO step:  Lambda=-3.30615490D-03 EMin= 2.30107965D-03
 Quartic linear search produced a step of -0.18393.
 Iteration  1 RMS(Cart)=  0.02623319 RMS(Int)=  0.00072652
 Iteration  2 RMS(Cart)=  0.00070489 RMS(Int)=  0.00006117
 Iteration  3 RMS(Cart)=  0.00000083 RMS(Int)=  0.00006117
 Variable       Old X    -DE/DX   Delta X   Delta X   Delta X     New X
                                 (Linear)    (Quad)   (Total)
    R1        2.51984   0.00011  -0.00143   0.00420   0.00284   2.52268
    R2        2.49949   0.00396  -0.00398   0.01192   0.00800   2.50749
    R3        2.72575  -0.00778   0.03124  -0.05914  -0.02790   2.69786
    R4        2.49919   0.00032   0.00143  -0.00165  -0.00023   2.49896
    R5        2.66923  -0.00203  -0.00282  -0.00023  -0.00313   2.66610
    R6        2.04038   0.00016  -0.00052   0.00112   0.00061   2.04098
    R7        2.49507   0.00565   0.00345   0.00170   0.00511   2.50018
    R8        2.03954   0.00001  -0.00008   0.00027   0.00019   2.03974
    R9        1.82939   0.01079   0.01016   0.00175   0.01191   1.84130
   R10        2.45304   0.02361  -0.00926   0.03575   0.02650   2.47953
   R11        2.26186   0.01212   0.00017   0.00812   0.00830   2.27016
    A1        2.05598  -0.01435  -0.01121  -0.02860  -0.03972   2.01625
    A2        2.13898   0.00051  -0.01497   0.03522   0.02020   2.15919
    A3        2.08820   0.01385   0.02619  -0.00664   0.01951   2.10771
    A4        1.77277   0.01416   0.01169   0.02416   0.03594   1.80870
    A5        1.91152  -0.00676  -0.00729  -0.01039  -0.01775   1.89377
    A6        2.10743   0.00455   0.00383   0.01040   0.01426   2.12169
    A7        2.26423   0.00221   0.00346  -0.00001   0.00348   2.26772
    A8        1.89443   0.00039  -0.00036   0.00061   0.00014   1.89458
    A9        2.27746  -0.00223  -0.00159  -0.00659  -0.00812   2.26934
   A10        2.11129   0.00184   0.00195   0.00597   0.00798   2.11927
   A11        1.79008   0.00656   0.00717   0.01421   0.02138   1.81146
   A12        2.00026  -0.00314  -0.00665   0.01437   0.00767   2.00793
   A13        2.10146   0.00357  -0.00968   0.02168   0.01194   2.11340
   A14        2.18143  -0.00043   0.01633  -0.03591  -0.01963   2.16181
   A15        1.88686   0.01836   0.02015   0.04220   0.06235   1.94921
    D1        0.00062   0.00004   0.00014   0.00147   0.00158   0.00221
    D2        3.13431   0.00014   0.00110  -0.00092   0.00025   3.13456
    D3       -0.00075  -0.00004  -0.00023  -0.00145  -0.00166  -0.00241
    D4       -3.13468  -0.00009  -0.00108   0.00066  -0.00038  -3.13506
    D5        0.01946  -0.00033  -0.00184  -0.01117  -0.01308   0.00638
    D6       -3.13077   0.00015  -0.00056   0.00578   0.00532  -3.12546
    D7       -3.13018  -0.00035  -0.00094  -0.01369  -0.01474   3.13827
    D8        0.00277   0.00014   0.00034   0.00326   0.00366   0.00644
    D9       -0.00022  -0.00002  -0.00000  -0.00083  -0.00083  -0.00104
   D10       -3.14153  -0.00003  -0.00009  -0.00090  -0.00099   3.14066
   D11       -0.00021  -0.00001  -0.00014   0.00003  -0.00012  -0.00033
   D12       -3.14131  -0.00002   0.00007  -0.00073  -0.00066   3.14122
   D13        3.14107   0.00001  -0.00004   0.00012   0.00007   3.14114
   D14       -0.00002  -0.00000   0.00017  -0.00065  -0.00047  -0.00050
   D15        0.00053   0.00003   0.00022   0.00079   0.00102   0.00155
   D16       -3.14150   0.00004   0.00003   0.00146   0.00150  -3.14000
   D17       -0.02894   0.00048  -0.00542   0.02879   0.02321  -0.00574
   D18        3.12174  -0.00005  -0.00672   0.01060   0.00405   3.12579
         Item               Value     Threshold  Converged?
 Maximum Force            0.023614     0.000450     NO 
 RMS     Force            0.006768     0.000300     NO 
 Maximum Displacement     0.105772     0.001800     NO 
 RMS     Displacement     0.026451     0.001200     NO 
 Predicted change in Energy=-2.064583D-03
 GradGradGradGradGradGradGradGradGradGradGradGradGradGradGradGradGradGrad

                          Input orientation:                          
 ---------------------------------------------------------------------
 Center     Atomic      Atomic             Coordinates (Angstroms)
 Number     Number       Type             X           Y           Z
 ---------------------------------------------------------------------
      1          7           0       -0.068964   -0.003392    0.001181
      2          7           0       -0.770963    1.132016   -0.010138
      3          6           0       -2.027950    0.721296   -0.006903
      4          6           0       -2.038045   -0.689455    0.005261
      5          7           0       -0.786798   -1.119336    0.008861
      6          1           0       -2.851167    1.420411   -0.013233
      7          1           0       -2.869559   -1.377650    0.011303
      8          1           0        1.311264    1.847896   -0.024026
      9          6           0        1.357801   -0.052953   -0.005880
     10          8           0        1.954164    1.115748   -0.017087
     11          8           0        1.942015   -1.102631   -0.011668
 ---------------------------------------------------------------------
                    Distance matrix (angstroms):
                    1          2          3          4          5
     1  N    0.000000
     2  N    1.334947   0.000000
     3  C    2.088746   1.322391   0.000000
     4  C    2.085181   2.218894   1.410840   0.000000
     5  N    1.326904   2.251488   2.220053   1.323038   0.000000
     6  H    3.125392   2.100103   1.080041   2.261204   3.272984
     7  H    3.119618   3.271543   2.261462   1.079382   2.098720
     8  H    2.309314   2.201896   3.524183   4.202009   3.634200
     9  C    1.427643   2.436351   3.473150   3.455001   2.395140
    10  O    2.312111   2.725184   4.001615   4.381437   3.536827
    11  O    2.291839   3.514811   4.368907   4.001484   2.728941
                    6          7          8          9         10
     6  H    0.000000
     7  H    2.798229   0.000000
     8  H    4.184339   5.280594   0.000000
     9  C    4.459402   4.430089   1.901505   0.000000
    10  O    4.814981   5.430114   0.974376   1.312112   0.000000
    11  O    5.416672   4.819482   3.017219   1.201317   2.218419
                   11
    11  O    0.000000
 Stoichiometry    C3H3N3O2
 Framework group  C1[X(C3H3N3O2)]
 Deg. of freedom    27
 Full point group                 C1      NOp   1
 Largest Abelian subgroup         C1      NOp   1
 Largest concise Abelian subgroup C1      NOp   1
                         Standard orientation:                         
 ---------------------------------------------------------------------
 Center     Atomic      Atomic             Coordinates (Angstroms)
 Number     Number       Type             X           Y           Z
 ---------------------------------------------------------------------
      1          7           0        0.054603   -0.035687   -0.005980
      2          7           0        0.733684    1.113611    0.000687
      3          6           0        1.998646    0.728154    0.004139
      4          6           0        2.037027   -0.682159    0.000677
      5          7           0        0.794657   -1.137046   -0.004426
      6          1           0        2.807675    1.443654    0.008900
      7          1           0        2.882169   -1.353574    0.001618
      8          1           0       -1.362494    1.787685    0.003281
      9          6           0       -1.370900   -0.113790   -0.003340
     10          8           0       -1.990578    1.042770   -0.001289
     11          8           0       -1.933997   -1.174912    0.006962
 ---------------------------------------------------------------------
 Rotational constants (GHZ):           5.3664058           1.8181543           1.3580594
 Standard basis: 6-31+G(d,p) (6D, 7F)
 There are   167 symmetry adapted cartesian basis functions of A   symmetry.
 There are   167 symmetry adapted basis functions of A   symmetry.
   167 basis functions,   277 primitive gaussians,   167 cartesian basis functions
    29 alpha electrons       29 beta electrons
       nuclear repulsion energy       363.6496501450 Hartrees.
 NAtoms=   11 NActive=   11 NUniq=   11 SFac= 1.00D+00 NAtFMM=   60 NAOKFM=F Big=F
 Integral buffers will be    131072 words long.
 Raffenetti 2 integral format.
 Two-electron integral symmetry is turned on.
 ------------------------------------------------------------------------------
 Polarizable Continuum Model (PCM)
 =================================
 Model                : PCM.
 Atomic radii         : SMD-Coulomb.
 Polarization charges : Total charges.
 Charge compensation  : None.
 Solution method      : On-the-fly selection.
 Cavity type          : VdW (van der Waals Surface) (Alpha=1.000).
 Cavity algorithm     : GePol (No added spheres)
                        Default sphere list used, NSphG=   11.
                        Lebedev-Laikov grids with approx.  5.0 points / Ang**2.
                        Smoothing algorithm: York/Karplus (Gamma=1.0000).
                        Polarization charges: spherical gaussians, with
                                              point-specific exponents (IZeta= 3).
                        Self-potential: point-specific (ISelfS= 7).
                        Self-field    : sphere-specific E.n sum rule (ISelfD= 2).
 1st derivatives      : Analytical E(r).r(x)/FMM algorithm (CHGder, D1EAlg=3).
                        Cavity 1st derivative terms included.
 Solvent              : Water, Eps=  78.355300 Eps(inf)=   1.777849
 ------------------------------------------------------------------------------
 Spheres list:
 ISph  on   Nord     Re0    Alpha      Xe            Ye            Ze
    1   N      1    1.8900  1.000      0.054603     -0.035687     -0.005980
    2   N      2    1.8900  1.000      0.733684      1.113611      0.000687
    3   C      3    1.8500  1.000      1.998646      0.728154      0.004139
    4   C      4    1.8500  1.000      2.037027     -0.682159      0.000677
    5   N      5    1.8900  1.000      0.794657     -1.137046     -0.004426
    6   H      6    1.2000  1.000      2.807675      1.443654      0.008900
    7   H      7    1.2000  1.000      2.882169     -1.353574      0.001618
    8   H      8    1.2000  1.000     -1.362494      1.787685      0.003281
    9   C      9    1.8500  1.000     -1.370900     -0.113790     -0.003340
   10   O     10    1.5200  1.000     -1.990578      1.042770     -0.001289
   11   O     11    1.5200  1.000     -1.933997     -1.174912      0.006962
 ------------------------------------------------------------------------------
 ------------------------------------------------------------------------------
 Atomic radii for non-electrostatic terms: SMD-CDS.
 ------------------------------------------------------------------------------
 Nuclear repulsion after PCM non-electrostatic terms =      363.6557223375 Hartrees.
 One-electron integrals computed using PRISM.
 NBasis=   167 RedAO= T EigKep=  2.25D-05  NBF=   167
 NBsUse=   167 1.00D-06 EigRej= -1.00D+00 NBFU=   167
 Initial guess from the checkpoint file:  "/scratch/gongke2021/1-H-Tz-PC/Gau-6627.chk"
 B after Tr=    -0.000000   -0.000000    0.000000
         Rot=    1.000000   -0.000002   -0.000000   -0.000642 Ang=  -0.07 deg.
 ExpMin= 4.38D-02 ExpMax= 5.48D+03 ExpMxC= 8.25D+02 IAcc=2 IRadAn=         4 AccDes= 0.00D+00
 Harris functional with IExCor= 1009 and IRadAn=       4 diagonalized for initial guess.
 HarFok:  IExCor= 1009 AccDes= 0.00D+00 IRadAn=         4 IDoV= 1 UseB2=F ITyADJ=14
 ICtDFT=  3500011 ScaDFX=  1.000000  1.000000  1.000000  1.000000
 FoFCou: FMM=F IPFlag=           0 FMFlag=      100000 FMFlg1=           0
         NFxFlg=           0 DoJE=T BraDBF=F KetDBF=T FulRan=T
         wScrn=  0.000000 ICntrl=       500 IOpCl=  0 I1Cent=   200000004 NGrid=           0
         NMat0=    1 NMatS0=      1 NMatT0=    0 NMatD0=    1 NMtDS0=    0 NMtDT0=    0
 Petite list used in FoFCou.
 Keep R1 ints in memory in canonical form, NReq=118249495.
 Requested convergence on RMS density matrix=1.00D-08 within 128 cycles.
 Requested convergence on MAX density matrix=1.00D-06.
 Requested convergence on             energy=1.00D-06.
 No special actions if energy rises.
 Inv3:  Mode=1 IEnd=     2970075.
 Iteration    1 A*A^-1 deviation from unit magnitude is 3.89D-15 for    987.
 Iteration    1 A*A^-1 deviation from orthogonality  is 2.89D-15 for    995    717.
 Iteration    1 A^-1*A deviation from unit magnitude is 3.66D-15 for    987.
 Iteration    1 A^-1*A deviation from orthogonality  is 1.10D-15 for    259     94.
 Error on total polarization charges =  0.03377
 SCF Done:  E(RM062X) =  -430.670987965     A.U. after   12 cycles
            NFock= 12  Conv=0.41D-08     -V/T= 2.0083
 SMD-CDS (non-electrostatic) energy       (kcal/mol) =       3.81
 (included in total energy above)
 D1PCM: PCM CHGder 1st derivatives, ID1Alg=3 FixD1E=F DoIter=F DoCFld=F I1PDM=0.
 Calling FoFJK, ICntrl=      2127 FMM=F ISym2X=0 I1Cent= 0 IOpClX= 0 NMat=1 NMatS=1 NMatT=0.
 ***** Axes restored to original set *****
 -------------------------------------------------------------------
 Center     Atomic                   Forces (Hartrees/Bohr)
 Number     Number              X              Y              Z
 -------------------------------------------------------------------
      1        7           0.004387625   -0.000311068   -0.000065996
      2        7          -0.000277503    0.000258090    0.000221293
      3        6           0.002312886    0.004267318   -0.000017535
      4        6           0.004588974   -0.003003855    0.000025193
      5        7          -0.006495160   -0.003231894    0.000232608
      6        1           0.000384451   -0.000096408   -0.000025971
      7        1          -0.000155128    0.000311288   -0.000038079
      8        1          -0.000375980    0.003441822    0.000173709
      9        6          -0.005105868   -0.002974289   -0.001508242
     10        8          -0.001080071    0.004680153    0.000233407
     11        8           0.001815774   -0.003341157    0.000769613
 -------------------------------------------------------------------
 Cartesian Forces:  Max     0.006495160 RMS     0.002543798

 GradGradGradGradGradGradGradGradGradGradGradGradGradGradGradGradGradGrad
 Berny optimization.
 Using GEDIIS/GDIIS optimizer.
 FormGI is forming the generalized inverse of G from B-inverse, IUseBI=4.
 Internal  Forces:  Max     0.007214434 RMS     0.002621544
 Search for a local minimum.
 Step number   4 out of a maximum of   54
 All quantities printed in internal units (Hartrees-Bohrs-Radians)
 Mixed Optimization -- RFO/linear search
 Update second derivatives using D2CorX and points    1    2    3    4
 DE= -2.23D-03 DEPred=-2.06D-03 R= 1.08D+00
 TightC=F SS=  1.41D+00  RLast= 1.10D-01 DXNew= 1.4270D+00 3.2926D-01
 Trust test= 1.08D+00 RLast= 1.10D-01 DXMaxT set to 8.49D-01
 ITU=  1  1  1  0
 Use linear search instead of GDIIS.
     Eigenvalues ---    0.00230   0.01385   0.01391   0.02137   0.02255
     Eigenvalues ---    0.02320   0.02521   0.03450   0.15840   0.16002
     Eigenvalues ---    0.16478   0.17615   0.22816   0.24962   0.25688
     Eigenvalues ---    0.30919   0.36196   0.36301   0.40987   0.44586
     Eigenvalues ---    0.52209   0.53728   0.56074   0.63506   0.64654
     Eigenvalues ---    0.74071   1.04367
 RFO step:  Lambda=-6.61848917D-04 EMin= 2.30207893D-03
 Quartic linear search produced a step of  0.10437.
 Iteration  1 RMS(Cart)=  0.01900262 RMS(Int)=  0.00030456
 Iteration  2 RMS(Cart)=  0.00044918 RMS(Int)=  0.00013837
 Iteration  3 RMS(Cart)=  0.00000010 RMS(Int)=  0.00013837
 Variable       Old X    -DE/DX   Delta X   Delta X   Delta X     New X
                                 (Linear)    (Quad)   (Total)
    R1        2.52268  -0.00070   0.00030   0.00096   0.00127   2.52395
    R2        2.50749   0.00389   0.00083   0.00765   0.00849   2.51598
    R3        2.69786  -0.00481  -0.00291  -0.00750  -0.01041   2.68744
    R4        2.49896  -0.00368  -0.00002  -0.00629  -0.00631   2.49264
    R5        2.66610   0.00319  -0.00033   0.00590   0.00556   2.67166
    R6        2.04098  -0.00036   0.00006  -0.00103  -0.00097   2.04002
    R7        2.50018  -0.00322   0.00053  -0.00655  -0.00602   2.49416
    R8        2.03974  -0.00008   0.00002  -0.00008  -0.00006   2.03967
    R9        1.84130   0.00284   0.00124   0.00546   0.00670   1.84801
   R10        2.47953   0.00658   0.00277   0.00791   0.01067   2.49020
   R11        2.27016   0.00379   0.00087   0.00340   0.00426   2.27442
    A1        2.01625   0.00121  -0.00415   0.00230  -0.00184   2.01441
    A2        2.15919  -0.00721   0.00211  -0.01867  -0.01657   2.14261
    A3        2.10771   0.00601   0.00204   0.01643   0.01845   2.12616
    A4        1.80870  -0.00023   0.00375  -0.00131   0.00245   1.81115
    A5        1.89377   0.00007  -0.00185   0.00045  -0.00141   1.89237
    A6        2.12169  -0.00020   0.00149  -0.00128   0.00021   2.12191
    A7        2.26772   0.00013   0.00036   0.00083   0.00120   2.26891
    A8        1.89458   0.00133   0.00002   0.00315   0.00316   1.89774
    A9        2.26934  -0.00100  -0.00085  -0.00325  -0.00409   2.26525
   A10        2.11927  -0.00033   0.00083   0.00009   0.00093   2.12020
   A11        1.81146  -0.00238   0.00223  -0.00458  -0.00235   1.80911
   A12        2.00793  -0.00582   0.00080  -0.00926  -0.00898   1.99895
   A13        2.11340   0.00287   0.00125   0.00752   0.00825   2.12165
   A14        2.16181   0.00295  -0.00205   0.00228  -0.00028   2.16152
   A15        1.94921   0.00366   0.00651   0.01016   0.01667   1.96588
    D1        0.00221  -0.00009   0.00017  -0.00461  -0.00444  -0.00223
    D2        3.13456   0.00008   0.00003   0.00337   0.00331   3.13787
    D3       -0.00241   0.00010  -0.00017   0.00463   0.00446   0.00205
    D4       -3.13506   0.00001  -0.00004  -0.00289  -0.00301  -3.13807
    D5        0.00638   0.00028  -0.00137   0.02898   0.02765   0.03402
    D6       -3.12546  -0.00052   0.00056  -0.03025  -0.02973   3.12800
    D7        3.13827   0.00043  -0.00154   0.03727   0.03577  -3.10915
    D8        0.00644  -0.00037   0.00038  -0.02196  -0.02161  -0.01517
    D9       -0.00104   0.00005  -0.00009   0.00256   0.00247   0.00142
   D10        3.14066   0.00005  -0.00010   0.00236   0.00226  -3.14027
   D11       -0.00033   0.00000  -0.00001   0.00003   0.00004  -0.00028
   D12        3.14122   0.00001  -0.00007  -0.00014  -0.00020   3.14102
   D13        3.14114   0.00000   0.00001   0.00026   0.00028   3.14142
   D14       -0.00050   0.00000  -0.00005   0.00009   0.00003  -0.00046
   D15        0.00155  -0.00006   0.00011  -0.00264  -0.00255  -0.00099
   D16       -3.14000  -0.00006   0.00016  -0.00248  -0.00232   3.14086
   D17       -0.00574  -0.00023   0.00242  -0.02204  -0.01953  -0.02526
   D18        3.12579   0.00059   0.00042   0.03906   0.03939  -3.11800
         Item               Value     Threshold  Converged?
 Maximum Force            0.007214     0.000450     NO 
 RMS     Force            0.002622     0.000300     NO 
 Maximum Displacement     0.042098     0.001800     NO 
 RMS     Displacement     0.019134     0.001200     NO 
 Predicted change in Energy=-3.534691D-04
 GradGradGradGradGradGradGradGradGradGradGradGradGradGradGradGradGradGrad

                          Input orientation:                          
 ---------------------------------------------------------------------
 Center     Atomic      Atomic             Coordinates (Angstroms)
 Number     Number       Type             X           Y           Z
 ---------------------------------------------------------------------
      1          7           0       -0.065239   -0.021098   -0.012937
      2          7           0       -0.758646    1.120387   -0.021695
      3          6           0       -2.016582    0.723739   -0.009071
      4          6           0       -2.039246   -0.689743    0.009314
      5          7           0       -0.796285   -1.133654    0.007275
      6          1           0       -2.832315    1.430809   -0.013241
      7          1           0       -2.879570   -1.366979    0.023548
      8          1           0        1.288987    1.860194   -0.008879
      9          6           0        1.356350   -0.058130   -0.026044
     10          8           0        1.934705    1.125771   -0.006761
     11          8           0        1.959640   -1.099348   -0.003837
 ---------------------------------------------------------------------
[...]
    R6        2.04011   0.00000   0.00000   0.00001   0.00001   2.04012
    R7        2.49066   0.00002   0.00000   0.00002   0.00002   2.49068
    R8        2.03984  -0.00000   0.00000  -0.00001  -0.00001   2.03983
    R9        1.84571  -0.00001   0.00000  -0.00002  -0.00002   1.84569
   R10        2.49412  -0.00009   0.00000  -0.00032  -0.00032   2.49379
   R11        2.27441   0.00012   0.00000   0.00012   0.00012   2.27452
    A1        2.01496  -0.00007   0.00000  -0.00012  -0.00012   2.01485
    A2        2.13310   0.00009   0.00000   0.00021   0.00021   2.13331
    A3        2.13512  -0.00002   0.00000  -0.00010  -0.00010   2.13503
    A4        1.81173   0.00005   0.00000   0.00006   0.00006   1.81179
    A5        1.89119  -0.00003   0.00000  -0.00003  -0.00003   1.89117
    A6        2.12434   0.00004   0.00000   0.00022   0.00022   2.12457
    A7        2.26765  -0.00001   0.00000  -0.00020  -0.00020   2.26745
    A8        1.89984  -0.00000   0.00000  -0.00005  -0.00005   1.89979
    A9        2.26192  -0.00001   0.00000  -0.00008  -0.00008   2.26184
   A10        2.12143   0.00001   0.00000   0.00013   0.00013   2.12156
   A11        1.80705   0.00005   0.00000   0.00013   0.00013   1.80719
   A12        1.99508   0.00007   0.00000   0.00012   0.00012   1.99520
   A13        2.12514   0.00002   0.00000   0.00002   0.00002   2.12517
   A14        2.16296  -0.00009   0.00000  -0.00014  -0.00014   2.16282
   A15        1.96358   0.00008   0.00000   0.00050   0.00050   1.96408
    D1       -0.00085   0.00005   0.00000   0.00085   0.00085  -0.00000
    D2        3.14126   0.00003   0.00000   0.00034   0.00034  -3.14158
    D3        0.00043  -0.00002   0.00000  -0.00043  -0.00043   0.00000
    D4        3.14150  -0.00000   0.00000   0.00008   0.00008   3.14158
    D5       -0.00059   0.00002   0.00000   0.00055   0.00055  -0.00004
    D6        3.14134   0.00000   0.00000   0.00021   0.00021   3.14155
    D7        3.14156   0.00000   0.00000   0.00000   0.00000   3.14157
    D8        0.00030  -0.00001   0.00000  -0.00033  -0.00033  -0.00003
    D9        0.00088  -0.00005   0.00000  -0.00088  -0.00088  -0.00000
   D10       -3.14125  -0.00002   0.00000  -0.00035  -0.00035   3.14159
   D11       -0.00068   0.00005   0.00000   0.00068   0.00068   0.00000
   D12        3.14120   0.00002   0.00000   0.00039   0.00039  -3.14159
   D13        3.14150   0.00001   0.00000   0.00010   0.00010  -3.14159
   D14        0.00020  -0.00001   0.00000  -0.00019  -0.00019   0.00000
   D15        0.00015  -0.00002   0.00000  -0.00016  -0.00016  -0.00000
   D16        3.14149   0.00001   0.00000   0.00011   0.00011   3.14159
   D17        0.00079  -0.00001   0.00000  -0.00081  -0.00081  -0.00002
   D18       -3.14114   0.00000   0.00000  -0.00047  -0.00047   3.14158
         Item               Value     Threshold  Converged?
 Maximum Force            0.000234     0.000450     YES
 RMS     Force            0.000057     0.000300     YES
 Maximum Displacement     0.001539     0.001800     YES
 RMS     Displacement     0.000424     0.001200     YES
 Predicted change in Energy=-2.556031D-07
 Optimization completed.
    -- Stationary point found.
                           ----------------------------
                           !   Optimized Parameters   !
                           ! (Angstroms and Degrees)  !
 --------------------------                            --------------------------
 ! Name  Definition              Value          Derivative Info.                !
 --------------------------------------------------------------------------------
 ! R1    R(1,2)                  1.3365         -DE/DX =    0.0001              !
 ! R2    R(1,5)                  1.3335         -DE/DX =   -0.0001              !
 ! R3    R(1,9)                  1.418          -DE/DX =    0.0002              !
 ! R4    R(2,3)                  1.3172         -DE/DX =    0.0                 !
 ! R5    R(3,4)                  1.4167         -DE/DX =    0.0                 !
 ! R6    R(3,6)                  1.0796         -DE/DX =    0.0                 !
 ! R7    R(4,5)                  1.318          -DE/DX =    0.0                 !
 ! R8    R(4,7)                  1.0794         -DE/DX =    0.0                 !
 ! R9    R(8,10)                 0.9767         -DE/DX =    0.0                 !
 ! R10   R(9,10)                 1.3198         -DE/DX =   -0.0001              !
 ! R11   R(9,11)                 1.2036         -DE/DX =    0.0001              !
 ! A1    A(2,1,5)              115.4489         -DE/DX =   -0.0001              !
 ! A2    A(2,1,9)              122.2175         -DE/DX =    0.0001              !
 ! A3    A(5,1,9)              122.3336         -DE/DX =    0.0                 !
 ! A4    A(1,2,3)              103.8046         -DE/DX =    0.0001              !
 ! A5    A(2,3,4)              108.3573         -DE/DX =    0.0                 !
 ! A6    A(2,3,6)              121.7159         -DE/DX =    0.0                 !
 ! A7    A(4,3,6)              129.9268         -DE/DX =    0.0                 !
 ! A8    A(3,4,5)              108.8527         -DE/DX =    0.0                 !
 ! A9    A(3,4,7)              129.5982         -DE/DX =    0.0                 !
 ! A10   A(5,4,7)              121.5491         -DE/DX =    0.0                 !
 ! A11   A(1,5,4)              103.5365         -DE/DX =    0.0                 !
 ! A12   A(1,9,10)             114.3096         -DE/DX =    0.0001              !
 ! A13   A(1,9,11)             121.7618         -DE/DX =    0.0                 !
 ! A14   A(10,9,11)            123.9286         -DE/DX =   -0.0001              !
 ! A15   A(8,10,9)             112.5051         -DE/DX =    0.0001              !
 ! D1    D(5,1,2,3)             -0.0488         -DE/DX =    0.0                 !
 ! D2    D(9,1,2,3)           -180.019          -DE/DX =    0.0                 !
 ! D3    D(2,1,5,4)              0.0248         -DE/DX =    0.0                 !
 ! D4    D(9,1,5,4)            179.995          -DE/DX =    0.0                 !
 ! D5    D(2,1,9,10)            -0.0335         -DE/DX =    0.0                 !
 ! D6    D(2,1,9,11)           179.9854         -DE/DX =    0.0                 !
 ! D7    D(5,1,9,10)           179.9983         -DE/DX =    0.0                 !
 ! D8    D(5,1,9,11)             0.0173         -DE/DX =    0.0                 !
 ! D9    D(1,2,3,4)              0.0502         -DE/DX =   -0.0001              !
 ! D10   D(1,2,3,6)            180.0198         -DE/DX =    0.0                 !
 ! D11   D(2,3,4,5)             -0.0391         -DE/DX =    0.0                 !
 ! D12   D(2,3,4,7)           -180.0225         -DE/DX =    0.0                 !
 ! D13   D(6,3,4,5)           -180.0054         -DE/DX =    0.0                 !
 ! D14   D(6,3,4,7)              0.0112         -DE/DX =    0.0                 !
 ! D15   D(3,4,5,1)              0.0089         -DE/DX =    0.0                 !
 ! D16   D(7,4,5,1)            179.9938         -DE/DX =    0.0                 !
 ! D17   D(1,9,10,8)             0.0454         -DE/DX =    0.0                 !
 ! D18   D(11,9,10,8)          180.0259         -DE/DX =    0.0                 !
 --------------------------------------------------------------------------------
 GradGradGradGradGradGradGradGradGradGradGradGradGradGradGradGradGradGrad


 ----------------------------------------------------------------------

 Electric dipole moment (input orientation):
 (Debye = 10**-18 statcoulomb cm , SI units = C m)
                  (au)            (Debye)         (10**-30 SI)
   Tot        0.295918D+01      0.752147D+01      0.250889D+02
   x         -0.245179D+01     -0.623183D+01     -0.207872D+02
   y          0.165693D+01      0.421149D+01      0.140480D+02
   z         -0.510077D-02     -0.129649D-01     -0.432462D-01

 Dipole polarizability, Alpha (input orientation).
 (esu units = cm**3 , SI units = C**2 m**2 J**-1)
 Alpha(0;0):
               (au)            (10**-24 esu)      (10**-40 SI)
   iso        0.814951D+02      0.120763D+02      0.134367D+02
   aniso      0.588940D+02      0.872719D+01      0.971031D+01
   xx         0.110969D+03      0.164439D+02      0.182963D+02
   yx        -0.527272D+01     -0.781336D+00     -0.869354D+00
   yy         0.885919D+02      0.131280D+02      0.146068D+02
   zx        -0.138099D+00     -0.204642D-01     -0.227695D-01
   zy        -0.303295D+00     -0.449437D-01     -0.500066D-01
   zz         0.449242D+02      0.665708D+01      0.740700D+01

 ----------------------------------------------------------------------

 Dipole orientation:
     7         -0.07094593         -0.08738250          0.06653444
     7          0.51938459          0.79941433          2.35648079
     6         -0.55650813         -0.81626968          3.91457404
     6         -1.80053500         -2.68875911          2.46081119
     7         -1.46586264         -2.18583450          0.04452698
     1         -0.41856969         -0.60783716          5.93931435
     1         -2.87764741         -4.30864173          3.07461536
     1          2.34671801          3.54735404         -0.02421840
     6          0.73374956          1.12229934         -2.18496010
     8          2.09908936          3.17651386         -1.81525638
     8          0.19347789          0.30980671         -4.23943928

 Electric dipole moment (dipole orientation):
 (Debye = 10**-18 statcoulomb cm , SI units = C m)
                  (au)            (Debye)         (10**-30 SI)
   Tot        0.295918D+01      0.752147D+01      0.250889D+02
   x          0.000000D+00      0.000000D+00      0.000000D+00
   y          0.000000D+00      0.000000D+00      0.000000D+00
   z          0.295918D+01      0.752147D+01      0.250889D+02

 Dipole polarizability, Alpha (dipole orientation).
 (esu units = cm**3 , SI units = C**2 m**2 J**-1)
 Alpha(0;0):
               (au)            (10**-24 esu)      (10**-40 SI)
   iso        0.814951D+02      0.120763D+02      0.134367D+02
   aniso      0.588940D+02      0.872719D+01      0.971031D+01
   xx         0.589623D+02      0.873732D+01      0.972158D+01
   yx         0.211156D+02      0.312902D+01      0.348150D+01
   yy         0.766772D+02      0.113624D+02      0.126424D+02
   zx        -0.466602D+01     -0.691433D+00     -0.769324D+00
   zy        -0.700225D+01     -0.103763D+01     -0.115451D+01
   zz         0.108846D+03      0.161293D+02      0.179462D+02

 ----------------------------------------------------------------------
 1\1\GINC-NODE2\Freq\RM062X\6-31+G(d,p)\C3H3N3O2\GONGKE2021\01-Jul-2023
 \0\\#N Geom=AllCheck Guess=TCheck SCRF=Check GenChk RM062X/6-31+G(d,p)
  Freq\\"Sketch 2"\\0,1\N,-0.0623869374,-0.0294511975,-0.005274916\N,-0
 .7507464013,1.1161306502,-0.0112963042\C,-2.0090399091,0.7267457912,-0
 .005706157\C,-2.0377471856,-0.6896208385,0.0050057473\N,-0.7993469729,
 -1.1407138509,0.004927387\H,-2.8227180475,1.4362591856,-0.008833675\H,
 -2.8832570854,-1.3606241139,0.0121665144\H,1.270859252,1.857560653,-0.
 0221608373\C,1.3552554154,-0.0595873057,-0.0088381989\O,1.9240026899,1
 .1313672952,-0.0192178237\O,1.966922572,-1.0961181487,-0.0031000567\\V
 ersion=ES64L-G16RevA.03\State=1-A\HF=-430.6714481\RMSD=3.302e-09\RMSF=
 7.113e-05\ZeroPoint=0.0747598\Thermal=0.0808183\Dipole=-2.4517917,1.65
 69283,-0.0051008\DipoleDeriv=-2.3669541,0.1300873,0.005488,0.0247516,0
 .0367041,0.0000949,0.0070122,-0.0004333,0.0365339,0.3599336,-0.2488441
 ,0.0002371,-0.7011366,-0.549952,0.0042103,0.0029534,0.0029225,-0.24073
 94,-0.3381724,0.0205919,0.000844,-0.6625927,0.3492157,-0.0009431,0.005
 8294,-0.0027306,-0.0133494,-0.3101719,0.0957176,0.0000438,0.6840755,0.
 2292872,-0.003683,-0.0042873,-0.0020385,-0.0242411,0.5201094,0.0455182
 ,-0.0024353,0.6111518,-0.5324784,0.0003233,-0.0067235,0.0021049,-0.238
 7641,0.1566899,0.003954,0.0000945,0.0354952,0.1212194,0.0005135,-0.000
 0615,0.0005886,0.2066575,0.1475106,-0.0084791,0.0002191,-0.0418543,0.1
 174304,0.0007668,0.0003576,0.0006774,0.2057829,0.5444603,-0.0006362,-0
 .0001327,0.0521764,0.6128303,-0.0011198,-0.0005216,-0.0010366,0.468034
 3,3.7834271,-0.1861861,-0.0071538,-0.3959563,2.925412,-0.0156195,-0.00
 58906,-0.0162001,0.6397668,-0.988231,-0.3971777,0.0041271,-0.4044154,-
 1.7728672,0.0103161,0.0042836,0.0105315,-0.5045539,-1.5086015,0.545454
 ,-0.0013319,0.7983049,-1.5368015,0.0051406,-0.0029518,0.0056142,-0.535
 1275\Polar=110.9691387,-5.272717,88.5918567,-0.1380994,-0.3032948,44.9
 242196\Quadrupole=1.7968864,-1.5395855,-0.2573009,3.8383665,-0.0305349
 ,-0.0007527\PG=C01 [X(C3H3N3O2)]\NImag=0\\0.77498181,0.00176921,0.6712
 4498,-0.00180714,-0.00401733,0.11229146,-0.11154331,0.11119342,-0.0006
 8777,0.63976724,0.02007046,-0.25208653,0.00124575,0.07455655,0.5198091
 3,-0.00002479,0.00097400,-0.06852017,-0.00183934,-0.00309935,0.1052116
 4,-0.12077257,0.04568290,0.00001564,-0.40432137,-0.09513888,0.00143639
 ,0.84077157,-0.01976625,-0.01501372,0.00027754,-0.10003159,-0.15348196
 ,0.00078438,-0.14028627,0.69989342,0.00051150,0.00006337,0.01031484,0.
 00145911,0.00080323,-0.07146167,-0.00066199,-0.00368644,0.14417101,-0.
 11684539,-0.04228711,0.00066882,0.00530300,-0.02265445,0.00020659,-0.1
 2197553,-0.02717800,0.00031824,0.84633483,0.02681640,-0.01049666,0.000
 03992,-0.11382838,-0.02543228,0.00064833,0.02028189,-0.28927093,0.0015
 6705,0.13164519,0.68944058,0.00014732,0.00026484,0.00918688,0.00084869
 ,0.00038134,0.02157560,-0.00000393,0.00169319,-0.07452512,-0.00283200,
 -0.00436611,0.14550085,-0.11816497,-0.11390162,0.00094639,-0.05729373,
 -0.01114294,0.00029286,0.01200482,0.11035942,-0.00076837,-0.39274546,0
 .10987136,0.00005945,0.62236887,-0.02829497,-0.24860857,0.00138475,0.0
 0594605,-0.10376761,0.00093051,0.02106655,-0.02991605,0.00031231,0.106
 18063,-0.16347693,0.00038690,-0.07148251,0.52575351,0.00033593,0.00164
 610,-0.06762265,0.00019632,0.00093291,0.02489039,-0.00014236,0.0000776
 6,0.02232551,0.00008398,0.00038900,-0.07135516,-0.00086781,-0.00288351
 ,0.10256849,-0.00426529,-0.00217453,0.00004509,-0.01750909,0.02000042,
 -0.00010953,-0.23061145,0.15315701,-0.00063055,0.00934308,-0.00417197,
 0.00000796,0.00094897,-0.00360573,0.00003747,0.24269186,-0.00618448,0.
 00035674,0.00008248,-0.01113349,0.01323216,-0.00011442,0.16283977,-0.2
 0232733,0.00080992,0.01809129,-0.00267195,-0.00002827,0.00153800,-0.00
 533423,0.00007537,-0.16496615,0.19532400,0.00008137,0.00006487,0.00957
 503,0.00010264,-0.00018206,-0.00670064,-0.00069067,0.00082367,-0.03468
 179,-0.00015936,0.00003714,0.00045459,0.00000296,0.00008736,0.00532860
 ,0.00066063,-0.00081621,0.02593023,-0.00413242,0.00207134,0.00002063,0
 .00110864,0.00335795,-0.00001207,0.00862121,0.00390367,-0.00004954,-0.
 24593323,-0.15119766,0.00166313,-0.01785078,-0.01836454,0.00016306,-0.
 00036833,-0.00041996,0.00000094,0.25892788,0.00642155,0.00034242,0.000
 05091,-0.00203073,-0.00561966,0.00008643,-0.01883416,-0.00241298,0.000
 06639,-0.16062268,-0.18857521,0.00155676,0.01254417,0.01348768,-0.0001
 8431,0.00043539,0.00007684,-0.00001040,0.16196236,0.18128680,-0.000015
 45,0.00005784,0.00957647,0.00002785,0.00007314,0.00547011,0.00011765,0
 .00000786,0.00035448,0.00172551,0.00152879,-0.03530745,-0.00005633,-0.
 00009785,-0.00700008,-0.00000512,-0.00000781,-0.00116443,-0.00180099,-
 0.00156525,0.02669603,-0.00449128,-0.00725497,0.00006594,-0.00069114,-
 0.00532111,0.00003592,-0.00278700,0.00184646,-0.00000863,-0.00000839,0
 .00111164,-0.00000605,0.00144998,0.00321576,-0.00002952,-0.00002470,0.
 00006134,-0.00000112,-0.00017038,0.00033277,-0.00000152,0.23914067,0.0
 0186277,-0.00045218,0.00000126,-0.00103382,-0.00091582,0.00000477,0.00
 093458,0.00140232,-0.00001667,0.00184146,-0.00024014,0.00000014,0.0000
 3745,-0.00180000,0.00000873,0.00008885,0.00003190,-0.00000148,0.000104
 95,0.00000792,0.00000090,-0.21571344,0.31455377,0.00000288,0.00002903,
 0.00067585,0.00001157,0.00000815,-0.00125758,-0.00000056,-0.00001990,-
 0.00060691,-0.00001158,0.00000283,0.00046072,-0.00000522,-0.00000151,-
 0.00069973,-0.00000081,-0.00000126,-0.00011953,0.00000031,0.00000032,0
 .00017947,0.00076314,-0.00142318,0.00877203,-0.18495815,-0.00257279,0.
 00038348,-0.05239694,0.03508649,-0.00014564,0.03197656,0.02668307,-0.0
 0027097,0.02951965,-0.02942622,0.00014705,-0.05814142,-0.03389935,0.00
 036329,0.00047588,0.00063866,0.00000021,0.00038407,-0.00047546,0.00001
 371,0.02228262,0.02176739,-0.00024876,0.63597209,-0.01906285,-0.116039
 72,0.00055063,0.02865239,0.00627227,-0.00022773,0.00316107,-0.01184514
 ,0.00010324,-0.00737295,-0.00743976,0.00010574,-0.02909369,0.00988612,
 -0.00011339,0.00111267,0.00098613,0.00000911,-0.00118927,0.00105016,0.
 00001339,-0.00909838,-0.04365099,0.00031662,-0.18752406,0.97026781,0.0
 0050679,0.00050979,-0.04482189,-0.00008687,-0.00024857,-0.01552225,-0.
 00010890,0.00003426,0.00377170,-0.00002012,0.00016906,0.00428327,0.000
 33684,-0.00008707,-0.01548432,-0.00000335,0.00001012,0.00259959,0.0000
 1462,0.00001170,0.00243153,-0.00002709,0.00019540,-0.00579042,0.000121
 79,-0.00497381,0.20663131,-0.04460900,-0.04873917,0.00052190,-0.003667
 38,-0.00566893,0.00005812,-0.00240833,-0.00570141,0.00005149,-0.006423
 24,-0.00025130,0.00001772,-0.00187512,0.00916301,-0.00004611,-0.000040
 18,0.00006158,-0.00000068,-0.00049249,0.00033767,-0.00000478,-0.254139
 88,0.19471031,-0.00056869,-0.16475142,-0.05543283,0.00074299,0.4478761
 6,-0.03417787,-0.01630192,0.00031360,0.01148523,-0.00608068,0.00001436
 ,-0.00642534,-0.00355232,0.00004869,-0.00489710,0.00425816,-0.00001987
 ,0.00405202,0.00876943,-0.00003452,-0.00006939,-0.00004716,-0.00000112
 ,-0.00026293,0.00042127,-0.00001066,0.24187591,-0.27080068,0.00101539,
 -0.10903786,-0.25356386,0.00175577,-0.10820649,0.65763888,0.00040200,0
 .00034786,0.01320207,-0.00006898,0.00006515,0.00034138,0.00005639,0.00
 004906,0.00082490,0.00005261,-0.00003364,-0.00029537,-0.00001014,-0.00
 004925,0.00546597,0.00000003,-0.00000157,-0.00023444,0.00000042,-0.000
 01167,-0.00103619,-0.00089662,0.00118054,-0.00858853,0.00113595,0.0015
 7727,-0.05670394,-0.00058235,-0.00406283,0.03054252,-0.06519944,0.0562
 1333,-0.00017299,0.00124407,-0.01314556,0.00010148,-0.01049791,-0.0029
 8612,0.00004971,-0.00656933,0.00914906,-0.00004933,0.00929885,0.010075
 10,-0.00009424,-0.00064074,-0.00052656,0.00000307,-0.00009418,-0.00007
 089,-0.00000052,-0.00056049,-0.00460052,0.00005772,-0.26036294,0.27584
 792,-0.00147670,0.03053088,0.00566382,-0.00008931,0.30285123,0.0505460
 2,-0.01294485,0.00007049,-0.00377562,0.00807099,-0.00000128,0.00671788
 ,0.00652469,-0.00007108,0.00725371,-0.00609487,0.00002532,-0.01278166,
 -0.00499334,0.00008596,0.00019344,0.00037291,-0.00001088,0.00003409,-0
 .00006524,-0.00000034,-0.01105599,0.00186388,0.00007351,0.27876013,-0.
 55592304,0.00262337,0.01972757,-0.12074112,0.00093908,-0.33561957,0.68
 392998,-0.00014040,0.00005962,0.01614211,0.00003678,0.00002031,0.00597
 320,-0.00001767,-0.00004127,-0.00048696,-0.00003269,0.00001763,0.00002
 120,0.00006936,0.00001736,0.00158297,-0.00000182,-0.00000835,-0.000987
 21,-0.00000051,-0.00000087,-0.00019995,0.00010555,0.00004959,0.0069746
 3,-0.00150012,0.00263893,-0.08139459,-0.00018961,0.00098120,0.01648163
 ,0.00167112,-0.00373415,0.03589296\\0.00012222,0.00007977,-0.00009072,
 0.00012812,0.00002264,0.00012888,-0.00002244,-0.00006761,-0.00010374,0
 .00001556,0.00001933,0.00005809,-0.00003156,-0.00009500,0.00001073,0.0
 0001513,0.00001053,-0.00000929,0.00000909,-0.00001876,0.00000186,-0.00
 004228,-0.00001977,0.00000735,-0.00013513,-0.00013378,0.00002643,0.000
 04283,0.00012037,-0.00002296,-0.00010153,0.00008227,-0.00000664\\\@


 THE LENGTH OF A MEETING IS PROPORTIONAL TO THE
 SQUARE OF THE PARTICIPANTS.
 Job cpu time:       0 days  0 hours 26 minutes 33.6 seconds.
 Elapsed time:       0 days  0 hours  1 minutes 20.5 seconds.
 File lengths (MBytes):  RWF=     57 Int=      0 D2E=      0 Chk=      7 Scr=      1
 Normal termination of Gaussian 16 at Sat Jul  1 02:57:54 2023.
