 Entering Gaussian System, Link 0=/opt/soft/g16b/g16/g16
 Initial command:
 /opt/soft/g16b/g16/l1.exe "/scratch/gongke2021/1-H-Tz-opt/Gau-4137.inp" -scrdir="/scratch/gongke2021/1-H-Tz-opt/"
 Entering Link 1 = /opt/soft/g16b/g16/l1.exe PID=      4138.
  
 Copyright (c) 1988,1990,1992,1993,1995,1998,2003,2009,2016,
            Gaussian, Inc.  All Rights Reserved.
  
 This is part of the Gaussian(R) 16 program.  It is based on
 the Gaussian(R) 09 system (copyright 2009, Gaussian, Inc.),
 the Gaussian(R) 03 system (copyright 2003, Gaussian, Inc.),
 the Gaussian(R) 98 system (copyright 1998, Gaussian, Inc.),
 the Gaussian(R) 94 system (copyright 1995, Gaussian, Inc.),
 the Gaussian 92(TM) system (copyright 1992, Gaussian, Inc.),
 the Gaussian 90(TM) system (copyright 1990, Gaussian, Inc.),
 the Gaussian 88(TM) system (copyright 1988, Gaussian, Inc.),
 the Gaussian 86(TM) system (copyright 1986, Carnegie Mellon
 University), and the Gaussian 82(TM) system (copyright 1983,
 Carnegie Mellon University). Gaussian is a federally registered
 trademark of Gaussian, Inc.
  
 This software contains proprietary and confidential information,
 including trade secrets, belonging to Gaussian, Inc.
  
 This software is provided under written license and may be
 used, copied, transmitted, or stored only in accord with that
 written license.
  
 The following legend is applicable only to US Government
 contracts under FAR:
  
                    RESTRICTED RIGHTS LEGEND
  
 Use, reproduction and disclosure by the US Government is
 subject to restrictions as set forth in subparagraphs (a)
 and (c) of the Commercial Computer Software - Restricted
 Rights clause in FAR 52.227-19.
  
 Gaussian, Inc.
 340 Quinnipiac St., Bldg. 40, Wallingford CT 06492
  
  
 ---------------------------------------------------------------
 Warning -- This program may not be used in any manner that
 competes with the business of Gaussian, Inc. or will provide
 assistance to any competitor of Gaussian, Inc.  The licensee
 of this program is prohibited from giving any competitor of
 Gaussian, Inc. access to this program.  By using this program,
 the user acknowledges that Gaussian, Inc. is engaged in the
 business of creating and licensing software in the field of
 computational chemistry and represents and warrants to the
 licensee that it is not a competitor of Gaussian, Inc. and that
 it will not use this program in any manner prohibited above.
 ---------------------------------------------------------------
  

 Cite this work as:
 Gaussian 16, Revision A.03,
 M. J. Frisch, G. W. Trucks, H. B. Schlegel, G. E. Scuseria, 
 M. A. Robb, J. R. Cheeseman, G. Scalmani, V. Barone, 
 G. A. Petersson, H. Nakatsuji, X. Li, M. Caricato, A. V. Marenich, 
 J. Bloino, B. G. Janesko, R. Gomperts, B. Mennucci, H. P. Hratchian, 
 J. V. Ortiz, A. F. Izmaylov, J. L. Sonnenberg, D. Williams-Young, 
 F. Ding, F. Lipparini, F. Egidi, J. Goings, B. Peng, A. Petrone, 
 T. Henderson, D. Ranasinghe, V. G. Zakrzewski, J. Gao, N. Rega, 
 G. Zheng, W. Liang, M. Hada, M. Ehara, K. Toyota, R. Fukuda, 
 J. Hasegawa, M. Ishida, T. Nakajima, Y. Honda, O. Kitao, H. Nakai, 
 T. Vreven, K. Throssell, J. A. Montgomery, Jr., J. E. Peralta, 
 F. Ogliaro, M. J. Bearpark, J. J. Heyd, E. N. Brothers, K. N. Kudin, 
 V. N. Staroverov, T. A. Keith, R. Kobayashi, J. Normand, 
 K. Raghavachari, A. P. Rendell, J. C. Burant, S. S. Iyengar, 
 J. Tomasi, M. Cossi, J. M. Millam, M. Klene, C. Adamo, R. Cammi, 
 J. W. Ochterski, R. L. Martin, K. Morokuma, O. Farkas, 
 J. B. Foresman, and D. J. Fox, Gaussian, Inc., Wallingford CT, 2016.
 
 ******************************************
 Gaussian 16:  ES64L-G16RevA.03 25-Dec-2016
                 1-Jul-2023 
 ******************************************
 %mem=10GB
 %nprocshared=20
 Will use up to   20 processors via shared memory.
 ----------------------------------------------------------------------
 # opt=(calcfc,ts,noeigentest) freq 6-31+g(d,p) integral=grid=ultrafine
  m062x scrf=(SMD,solvent=water)
 ----------------------------------------------------------------------
 1/5=1,10=4,11=1,18=20,26=6,38=1/1,3;
 2/9=110,12=2,17=6,18=5,40=1/2;
 3/5=1,6=6,7=111,11=2,25=1,30=1,70=32201,71=2,72=1,74=-55,75=-5,140=1/1,2,3;
 4//1;
 5/5=2,38=5,53=1/2;
 8/6=4,10=90,11=11/1;
 11/6=1,8=1,9=11,15=111,16=1/1,2,10;
 10/6=1,13=1/2;
 6/7=2,8=2,9=2,10=2,28=1/1;
 7/10=1,18=20,25=1/1,2,3,16;
 1/5=1,10=4,11=1,18=20,26=6/3(2);
 2/9=110/2;
 99//99;
 2/9=110/2;
 3/5=1,6=6,7=111,11=2,25=1,30=1,70=32205,71=1,72=1,74=-55,75=-5/1,2,3;
 4/5=5,16=3,69=1/1;
 5/5=2,38=5,53=1/2;
 7//1,2,3,16;
 1/5=1,11=1,18=20,26=6/3(-5);
 2/9=110/2;
 6/7=2,8=2,9=2,10=2,19=2,28=1/1;
 99/9=1/99;
 ----------
 "Sketch 2"
 ----------
 Symbolic Z-matrix:
 Charge =  0 Multiplicity = 1
 N                    -0.05501  -0.03577   0.1298 
 N                    -0.73933   1.12014   0.05282 
 C                    -1.99078   0.73009  -0.06476 
 C                    -2.02839  -0.68637  -0.05755 
 N                    -0.7988   -1.14268   0.05752 
 H                    -2.80837   1.43448  -0.09828 
 H                    -2.87259  -1.3519   -0.15404 
 H                     0.71238   1.76256   0.09277 
 C                     1.36985  -0.11849   0.01649 
 O                     1.98027   1.05276  -0.08346 
 O                     1.93762  -1.17777  -0.04218 
 
 Add virtual bond connecting atoms N2         and H8         Dist= 3.00D+00.
 Add virtual bond connecting atoms O10        and H8         Dist= 2.77D+00.

 GradGradGradGradGradGradGradGradGradGradGradGradGradGradGradGradGradGrad
 Berny optimization.
 Initialization pass.
                           ----------------------------
                           !    Initial Parameters    !
                           ! (Angstroms and Degrees)  !
 --------------------------                            --------------------------
 ! Name  Definition              Value          Derivative Info.                !
 --------------------------------------------------------------------------------
 ! R1    R(1,2)                  1.3455         calculate D2E/DX2 analytically  !
 ! R2    R(1,5)                  1.3356         calculate D2E/DX2 analytically  !
 ! R3    R(1,9)                  1.4317         calculate D2E/DX2 analytically  !
 ! R4    R(2,3)                  1.3161         calculate D2E/DX2 analytically  !
 ! R5    R(2,8)                  1.588          calculate D2E/DX2 analytically  !
 ! R6    R(3,4)                  1.417          calculate D2E/DX2 analytically  !
 ! R7    R(3,6)                  1.0797         calculate D2E/DX2 analytically  !
 ! R8    R(4,5)                  1.3166         calculate D2E/DX2 analytically  !
 ! R9    R(4,7)                  1.0793         calculate D2E/DX2 analytically  !
 ! R10   R(8,10)                 1.4637         calculate D2E/DX2 analytically  !
 ! R11   R(9,10)                 1.3246         calculate D2E/DX2 analytically  !
 ! R12   R(9,11)                 1.2033         calculate D2E/DX2 analytically  !
 ! A1    A(2,1,5)              115.1931         calculate D2E/DX2 analytically  !
 ! A2    A(2,1,9)              123.4542         calculate D2E/DX2 analytically  !
 ! A3    A(5,1,9)              120.137          calculate D2E/DX2 analytically  !
 ! A4    A(1,2,3)              103.5402         calculate D2E/DX2 analytically  !
 ! A5    A(1,2,8)               83.1742         calculate D2E/DX2 analytically  !
 ! A6    A(2,3,4)              108.7263         calculate D2E/DX2 analytically  !
 ! A7    A(2,3,6)              121.9697         calculate D2E/DX2 analytically  !
 ! A8    A(4,3,6)              129.2139         calculate D2E/DX2 analytically  !
 ! A9    A(3,4,5)              108.7909         calculate D2E/DX2 analytically  !
 ! A10   A(3,4,7)              129.5463         calculate D2E/DX2 analytically  !
 ! A11   A(5,4,7)              121.6411         calculate D2E/DX2 analytically  !
 ! A12   A(1,5,4)              103.7453         calculate D2E/DX2 analytically  !
 ! A13   A(2,8,10)             126.3464         calculate D2E/DX2 analytically  !
 ! A14   A(1,9,10)             114.4256         calculate D2E/DX2 analytically  !
 ! A15   A(1,9,11)             121.6217         calculate D2E/DX2 analytically  !
 ! A16   A(10,9,11)            123.8699         calculate D2E/DX2 analytically  !
 ! A17   A(8,10,9)              91.1764         calculate D2E/DX2 analytically  !
 ! A18   L(3,2,8,1,-1)         186.7144         calculate D2E/DX2 analytically  !
 ! A19   L(3,2,8,1,-2)         176.5741         calculate D2E/DX2 analytically  !
 ! D1    D(5,1,2,3)              0.496          calculate D2E/DX2 analytically  !
 ! D2    D(5,1,2,8)           -176.078          calculate D2E/DX2 analytically  !
 ! D3    D(9,1,2,3)            167.8771         calculate D2E/DX2 analytically  !
 ! D4    D(9,1,2,8)             -8.6969         calculate D2E/DX2 analytically  !
 ! D5    D(2,1,5,4)             -0.688          calculate D2E/DX2 analytically  !
 ! D6    D(9,1,5,4)           -168.521          calculate D2E/DX2 analytically  !
 ! D7    D(2,1,9,10)             4.2649         calculate D2E/DX2 analytically  !
 ! D8    D(2,1,9,11)          -172.5457         calculate D2E/DX2 analytically  !
 ! D9    D(5,1,9,10)           171.0513         calculate D2E/DX2 analytically  !
 ! D10   D(5,1,9,11)            -5.7593         calculate D2E/DX2 analytically  !
 ! D11   D(1,2,3,4)             -0.097          calculate D2E/DX2 analytically  !
 ! D12   D(1,2,3,6)            176.75           calculate D2E/DX2 analytically  !
 ! D13   D(4,3,8,10)            13.0821         calculate D2E/DX2 analytically  !
 ! D14   D(6,3,8,10)          -168.1782         calculate D2E/DX2 analytically  !
 ! D15   D(1,2,8,10)            12.8062         calculate D2E/DX2 analytically  !
 ! D16   D(2,3,4,5)             -0.3142         calculate D2E/DX2 analytically  !
 ! D17   D(2,3,4,7)           -178.6121         calculate D2E/DX2 analytically  !
 ! D18   D(6,3,4,5)           -176.8615         calculate D2E/DX2 analytically  !
 ! D19   D(6,3,4,7)              4.8406         calculate D2E/DX2 analytically  !
 ! D20   D(3,4,5,1)              0.5736         calculate D2E/DX2 analytically  !
 ! D21   D(7,4,5,1)            179.0319         calculate D2E/DX2 analytically  !
 ! D22   D(2,8,10,9)           -11.4369         calculate D2E/DX2 analytically  !
 ! D23   D(1,9,10,8)             4.0002         calculate D2E/DX2 analytically  !
 ! D24   D(11,9,10,8)         -179.2708         calculate D2E/DX2 analytically  !
 --------------------------------------------------------------------------------
 Trust Radius=3.00D-01 FncErr=5.00D-06 GrdErr=5.00D-06 EigMax=2.50D+02 EigMin=1.00D-04
 Number of steps in this run=     65 maximum allowed number of steps=    100.
 Search for a saddle point of order  1.
 GradGradGradGradGradGradGradGradGradGradGradGradGradGradGradGradGradGrad

                          Input orientation:                          
 ---------------------------------------------------------------------
 Center     Atomic      Atomic             Coordinates (Angstroms)
 Number     Number       Type             X           Y           Z
 ---------------------------------------------------------------------
      1          7           0       -0.055005   -0.035768    0.129797
      2          7           0       -0.739332    1.120139    0.052816
      3          6           0       -1.990779    0.730089   -0.064755
      4          6           0       -2.028390   -0.686374   -0.057551
      5          7           0       -0.798802   -1.142678    0.057517
      6          1           0       -2.808373    1.434484   -0.098284
      7          1           0       -2.872592   -1.351898   -0.154039
      8          1           0        0.712384    1.762561    0.092772
      9          6           0        1.369848   -0.118493    0.016493
     10          8           0        1.980265    1.052760   -0.083462
     11          8           0        1.937620   -1.177768   -0.042176
 ---------------------------------------------------------------------
                    Distance matrix (angstroms):
                    1          2          3          4          5
     1  N    0.000000
     2  N    1.345493   0.000000
     3  C    2.090839   1.316086   0.000000
     4  C    2.086297   2.222013   1.416981   0.000000
     5  N    1.335555   2.263603   2.223289   1.316564   0.000000
     6  H    3.129648   2.098231   1.079702   2.260104   3.271760
     7  H    3.122748   3.271781   2.262794   1.079310   2.095026
     8  H    1.955567   1.588012   2.897914   3.678549   3.274956
     9  C    1.431743   2.446256   3.467060   3.446156   2.398683
    10  O    2.317908   2.723843   3.984176   4.369734   3.544437
    11  O    2.303105   3.529231   4.367236   3.996366   2.738462
                    6          7          8          9         10
     6  H    0.000000
     7  H    2.787680   0.000000
     8  H    3.541168   4.755294   0.000000
     9  C    4.458973   4.421387   1.994101   0.000000
    10  O    4.803851   5.416418   1.463693   1.324550   0.000000
    11  O    5.417699   4.814662   3.188251   1.203275   2.231318
                   11
    11  O    0.000000
 Stoichiometry    C3H3N3O2
 Framework group  C1[X(C3H3N3O2)]
 Deg. of freedom    27
 Full point group                 C1      NOp   1
 Largest Abelian subgroup         C1      NOp   1
 Largest concise Abelian subgroup C1      NOp   1
                         Standard orientation:                         
 ---------------------------------------------------------------------
 Center     Atomic      Atomic             Coordinates (Angstroms)
 Number     Number       Type             X           Y           Z
 ---------------------------------------------------------------------
      1          7           0       -0.043145   -0.036669    0.131622
      2          7           0       -0.741918    1.110810    0.058416
      3          6           0       -1.988148    0.705472   -0.062800
      4          6           0       -2.007851   -0.711371   -0.061624
      5          7           0       -0.772770   -1.152578    0.053488
      6          1           0       -2.814533    1.399611   -0.094670
      7          1           0       -2.843418   -1.387099   -0.162266
      8          1           0        0.701494    1.771357    0.103402
      9          6           0        1.382814   -0.100895    0.020251
     10          8           0        1.978522    1.078393   -0.073791
     11          8           0        1.964028   -1.152650   -0.041972
 ---------------------------------------------------------------------
 Rotational constants (GHZ):           5.2893743           1.8299117           1.3638629
 Standard basis: 6-31+G(d,p) (6D, 7F)
 There are   167 symmetry adapted cartesian basis functions of A   symmetry.
 There are   167 symmetry adapted basis functions of A   symmetry.
   167 basis functions,   277 primitive gaussians,   167 cartesian basis functions
    29 alpha electrons       29 beta electrons
       nuclear repulsion energy       362.6598870991 Hartrees.
 NAtoms=   11 NActive=   11 NUniq=   11 SFac= 1.00D+00 NAtFMM=   60 NAOKFM=F Big=F
 Integral buffers will be    131072 words long.
 Raffenetti 2 integral format.
 Two-electron integral symmetry is turned on.
 Force inversion solution in PCM.
 ------------------------------------------------------------------------------
 Polarizable Continuum Model (PCM)
 =================================
 Model                : PCM.
 Atomic radii         : SMD-Coulomb.
 Polarization charges : Total charges.
 Charge compensation  : None.
 Solution method      : Matrix inversion.
 Cavity type          : VdW (van der Waals Surface) (Alpha=1.000).
 Cavity algorithm     : GePol (No added spheres)
                        Default sphere list used, NSphG=   11.
                        Lebedev-Laikov grids with approx.  5.0 points / Ang**2.
                        Smoothing algorithm: York/Karplus (Gamma=1.0000).
                        Polarization charges: spherical gaussians, with
                                              point-specific exponents (IZeta= 3).
                        Self-potential: point-specific (ISelfS= 7).
                        Self-field    : sphere-specific E.n sum rule (ISelfD= 2).
 1st derivatives      : Analytical E(r).r(x)/FMM algorithm (CHGder, D1EAlg=3).
                        Cavity 1st derivative terms included.
 2nd derivatives      : Analytical E(r).r(xy)/FMM algorithm (CHGder, D2EAlg=3).
                        Cavity 2nd derivative terms included.
 Solvent              : Water, Eps=  78.355300 Eps(inf)=   1.777849
 ------------------------------------------------------------------------------
 Spheres list:
 ISph  on   Nord     Re0    Alpha      Xe            Ye            Ze
    1   N      1    1.8900  1.000     -0.043145     -0.036669      0.131622
    2   N      2    1.8900  1.000     -0.741918      1.110810      0.058416
    3   C      3    1.8500  1.000     -1.988148      0.705472     -0.062800
    4   C      4    1.8500  1.000     -2.007851     -0.711371     -0.061624
    5   N      5    1.8900  1.000     -0.772770     -1.152578      0.053488
    6   H      6    1.2000  1.000     -2.814533      1.399611     -0.094670
    7   H      7    1.2000  1.000     -2.843418     -1.387099     -0.162266
    8   H      8    1.2000  1.000      0.701494      1.771357      0.103402
    9   C      9    1.8500  1.000      1.382814     -0.100895      0.020251
   10   O     10    1.5200  1.000      1.978522      1.078393     -0.073791
   11   O     11    1.5200  1.000      1.964028     -1.152650     -0.041972
 ------------------------------------------------------------------------------
 ------------------------------------------------------------------------------
 Atomic radii for non-electrostatic terms: SMD-CDS.
 ------------------------------------------------------------------------------
 Nuclear repulsion after PCM non-electrostatic terms =      362.6661071664 Hartrees.
 One-electron integrals computed using PRISM.
 NBasis=   167 RedAO= T EigKep=  3.15D-05  NBF=   167
 NBsUse=   167 1.00D-06 EigRej= -1.00D+00 NBFU=   167
 ExpMin= 4.38D-02 ExpMax= 5.48D+03 ExpMxC= 8.25D+02 IAcc=3 IRadAn=         5 AccDes= 0.00D+00
 Harris functional with IExCor= 1009 and IRadAn=       5 diagonalized for initial guess.
 HarFok:  IExCor= 1009 AccDes= 0.00D+00 IRadAn=         5 IDoV= 1 UseB2=F ITyADJ=14
 ICtDFT=  3500011 ScaDFX=  1.000000  1.000000  1.000000  1.000000
 FoFCou: FMM=F IPFlag=           0 FMFlag=      100000 FMFlg1=           0
         NFxFlg=           0 DoJE=T BraDBF=F KetDBF=T FulRan=T
         wScrn=  0.000000 ICntrl=       500 IOpCl=  0 I1Cent=   200000004 NGrid=           0
         NMat0=    1 NMatS0=      1 NMatT0=    0 NMatD0=    1 NMtDS0=    0 NMtDT0=    0
 Petite list used in FoFCou.
 Keep R1 ints in memory in canonical form, NReq=118249495.
 Requested convergence on RMS density matrix=1.00D-08 within 128 cycles.
 Requested convergence on MAX density matrix=1.00D-06.
 Requested convergence on             energy=1.00D-06.
 No special actions if energy rises.
 Inv3:  Mode=1 IEnd=     2964108.
 Iteration    1 A*A^-1 deviation from unit magnitude is 5.77D-15 for    989.
 Iteration    1 A*A^-1 deviation from orthogonality  is 2.53D-15 for    989    862.
 Iteration    1 A^-1*A deviation from unit magnitude is 5.77D-15 for    989.
 Iteration    1 A^-1*A deviation from orthogonality  is 1.05D-15 for    812    105.
 Error on total polarization charges =  0.03508
 SCF Done:  E(RM062X) =  -430.602127053     A.U. after   14 cycles
            NFock= 14  Conv=0.54D-08     -V/T= 2.0090
 SMD-CDS (non-electrostatic) energy       (kcal/mol) =       3.90
 (included in total energy above)
 DoSCS=F DFT=T ScalE2(SS,OS)=  1.000000  1.000000
 Range of M.O.s used for correlation:     1   167
 NBasis=   167 NAE=    29 NBE=    29 NFC=     0 NFV=     0
 NROrb=    167 NOA=    29 NOB=    29 NVA=   138 NVB=   138

 **** Warning!!: The largest alpha MO coefficient is  0.59128873D+02

 Symmetrizing basis deriv contribution to polar:
 IMax=3 JMax=2 DiffMx= 0.00D+00
 G2DrvN: will do    12 centers at a time, making    1 passes.
 Calling FoFCou, ICntrl=  3107 FMM=F I1Cent=   0 AccDes= 0.00D+00.
 NEqPCM:  Using equilibrium solvation (IEInf=0, Eps=  78.3553, EpsInf=   1.7778)
 G2PCM: DoFxE=T DoFxN=T DoGrad=T DoDP/DQ/DG/TGxP=FFFF NFrqRd=   0 IEInf=0 SqF1=F DoCFld=F IF1Alg=4.
 End of G2Drv F.D. properties file   721 does not exist.
 End of G2Drv F.D. properties file   722 does not exist.
 End of G2Drv F.D. properties file   788 does not exist.
          IDoAtm=11111111111
 NEqPCM:  Using equilibrium solvation (IEInf=0, Eps=  78.3553, EpsInf=   1.7778)
          Differentiating once with respect to nuclear coordinates.
 Keep R1 ints in memory in canonical form, NReq=118190337.
          There are    36 degrees of freedom in the 1st order CPHF.  IDoFFX=6 NUNeed=     0.
     30 vectors produced by pass  0 Test12= 1.11D-14 2.78D-09 XBig12= 1.75D-01 1.89D-01.
 AX will form    30 AO Fock derivatives at one time.
     30 vectors produced by pass  1 Test12= 1.11D-14 2.78D-09 XBig12= 4.06D-02 6.62D-02.
     30 vectors produced by pass  2 Test12= 1.11D-14 2.78D-09 XBig12= 8.46D-04 4.90D-03.
     30 vectors produced by pass  3 Test12= 1.11D-14 2.78D-09 XBig12= 8.02D-06 3.78D-04.
     30 vectors produced by pass  4 Test12= 1.11D-14 2.78D-09 XBig12= 5.80D-08 2.68D-05.
     30 vectors produced by pass  5 Test12= 1.11D-14 2.78D-09 XBig12= 3.31D-10 2.62D-06.
     30 vectors produced by pass  6 Test12= 1.11D-14 2.78D-09 XBig12= 1.71D-12 1.92D-07.
      8 vectors produced by pass  7 Test12= 1.11D-14 2.78D-09 XBig12= 7.31D-15 8.73D-09.
 InvSVY:  IOpt=1 It=  1 EMax= 2.11D-15
 Solved reduced A of dimension   218 with    30 vectors.
 End of Minotr F.D. properties file   721 does not exist.
 End of Minotr F.D. properties file   722 does not exist.
 End of Minotr F.D. properties file   788 does not exist.

 **********************************************************************

            Population analysis using the SCF density.

 **********************************************************************

 Orbital symmetries:
       Occupied  (A) (A) (A) (A) (A) (A) (A) (A) (A) (A) (A) (A)
                 (A) (A) (A) (A) (A) (A) (A) (A) (A) (A) (A) (A)
                 (A) (A) (A) (A) (A)
       Virtual   (A) (A) (A) (A) (A) (A) (A) (A) (A) (A) (A) (A)
                 (A) (A) (A) (A) (A) (A) (A) (A) (A) (A) (A) (A)
                 (A) (A) (A) (A) (A) (A) (A) (A) (A) (A) (A) (A)
                 (A) (A) (A) (A) (A) (A) (A) (A) (A) (A) (A) (A)
                 (A) (A) (A) (A) (A) (A) (A) (A) (A) (A) (A) (A)
                 (A) (A) (A) (A) (A) (A) (A) (A) (A) (A) (A) (A)
                 (A) (A) (A) (A) (A) (A) (A) (A) (A) (A) (A) (A)
                 (A) (A) (A) (A) (A) (A) (A) (A) (A) (A) (A) (A)
                 (A) (A) (A) (A) (A) (A) (A) (A) (A) (A) (A) (A)
                 (A) (A) (A) (A) (A) (A) (A) (A) (A) (A) (A) (A)
                 (A) (A) (A) (A) (A) (A) (A) (A) (A) (A) (A) (A)
                 (A) (A) (A) (A) (A) (A)
 The electronic state is 1-A.
 Alpha  occ. eigenvalues --  -19.69771 -19.66074 -14.91440 -14.87519 -14.84376
 Alpha  occ. eigenvalues --  -10.74454 -10.62590 -10.61099  -1.28728  -1.22675
 Alpha  occ. eigenvalues --   -1.14334  -1.04972  -0.98071  -0.78249  -0.75851
 Alpha  occ. eigenvalues --   -0.68235  -0.63689  -0.61722  -0.57041  -0.56357
 Alpha  occ. eigenvalues --   -0.54021  -0.52956  -0.49937  -0.43224  -0.42254
 Alpha  occ. eigenvalues --   -0.40816  -0.39485  -0.38902  -0.36211
 Alpha virt. eigenvalues --   -0.03825   0.00544   0.03116   0.03746   0.04602
 Alpha virt. eigenvalues --    0.04876   0.05460   0.06057   0.07581   0.08164
 Alpha virt. eigenvalues --    0.08770   0.08990   0.10577   0.11196   0.11598
 Alpha virt. eigenvalues --    0.15288   0.15578   0.18775   0.19354   0.19747
 Alpha virt. eigenvalues --    0.20559   0.21412   0.21797   0.22711   0.22868
 Alpha virt. eigenvalues --    0.24454   0.25993   0.26200   0.26963   0.27828
 Alpha virt. eigenvalues --    0.28735   0.29505   0.30444   0.31267   0.32407
 Alpha virt. eigenvalues --    0.32914   0.33888   0.34355   0.36510   0.38296
 Alpha virt. eigenvalues --    0.39960   0.43083   0.44815   0.48327   0.54035
 Alpha virt. eigenvalues --    0.62525   0.70030   0.70403   0.74521   0.77876
 Alpha virt. eigenvalues --    0.78662   0.84023   0.86501   0.87646   0.91689
 Alpha virt. eigenvalues --    0.93778   0.94345   0.94799   0.97387   0.99130
 Alpha virt. eigenvalues --    1.00348   1.02502   1.07917   1.11065   1.15686
 Alpha virt. eigenvalues --    1.15848   1.20743   1.21844   1.23671   1.25066
 Alpha virt. eigenvalues --    1.26243   1.29867   1.32016   1.33201   1.35269
 Alpha virt. eigenvalues --    1.35676   1.38556   1.39231   1.41928   1.44433
 Alpha virt. eigenvalues --    1.46706   1.47892   1.52923   1.55358   1.58397
 Alpha virt. eigenvalues --    1.63853   1.70266   1.75874   1.79530   1.81100
 Alpha virt. eigenvalues --    1.85624   1.89994   1.91162   1.94022   1.97833
 Alpha virt. eigenvalues --    1.99083   2.01423   2.04258   2.06649   2.12975
 Alpha virt. eigenvalues --    2.15884   2.17555   2.24393   2.26066   2.27860
 Alpha virt. eigenvalues --    2.30767   2.31020   2.42293   2.45281   2.48711
 Alpha virt. eigenvalues --    2.50047   2.55040   2.56079   2.62590   2.62862
 Alpha virt. eigenvalues --    2.68896   2.73515   2.75958   2.80016   2.84366
 Alpha virt. eigenvalues --    2.88966   2.93995   3.00207   3.03385   3.12467
 Alpha virt. eigenvalues --    3.18024   3.23343   3.30635   3.33955   3.70717
 Alpha virt. eigenvalues --    3.97319   4.14914   4.20638   4.27655   4.37520
 Alpha virt. eigenvalues --    4.53381   4.61829   4.64258
          Condensed to atoms (all electrons):
               1          2          3          4          5          6
     1  N    7.739598  -0.026580  -0.009642  -0.086706  -0.256933   0.001861
     2  N   -0.026580   7.693107  -0.047526   0.422226  -0.969602  -0.034220
     3  C   -0.009642  -0.047526   5.660852  -0.217471   0.411576   0.370983
     4  C   -0.086706   0.422226  -0.217471   5.729160  -0.100414  -0.002492
     5  N   -0.256933  -0.969602   0.411576  -0.100414   8.070077  -0.000590
     6  H    0.001861  -0.034220   0.370983  -0.002492  -0.000590   0.400859
     7  H    0.003056   0.001568  -0.018991   0.392668  -0.045336   0.000148
     8  H    0.045043  -0.011144   0.037049  -0.024010   0.002311  -0.000108
     9  C    0.008376  -0.003480   0.005879  -0.026945   0.020388   0.000096
    10  O   -0.075908  -0.002901  -0.029773   0.019509  -0.045049   0.000002
    11  O   -0.093506  -0.031165   0.012118  -0.018200   0.004773   0.000007
               7          8          9         10         11
     1  N    0.003056   0.045043   0.008376  -0.075908  -0.093506
     2  N    0.001568  -0.011144  -0.003480  -0.002901  -0.031165
     3  C   -0.018991   0.037049   0.005879  -0.029773   0.012118
     4  C    0.392668  -0.024010  -0.026945   0.019509  -0.018200
     5  N   -0.045336   0.002311   0.020388  -0.045049   0.004773
     6  H    0.000148  -0.000108   0.000096   0.000002   0.000007
     7  H    0.413630  -0.000010   0.000103   0.000031  -0.000048
     8  H   -0.000010   0.319750   0.019948   0.141111   0.009595
     9  C    0.000103   0.019948   4.451236   0.304607   0.483150
    10  O    0.000031   0.141111   0.304607   8.364853  -0.107789
    11  O   -0.000048   0.009595   0.483150  -0.107789   8.293597
 Mulliken charges:
               1
     1  N   -0.248660
     2  N    0.009719
     3  C   -0.175054
     4  C   -0.087323
     5  N   -0.091201
     6  H    0.263453
     7  H    0.253182
     8  H    0.460466
     9  C    0.736642
    10  O   -0.568693
    11  O   -0.552531
 Sum of Mulliken charges =  -0.00000
 Mulliken charges with hydrogens summed into heavy atoms:
               1
     1  N   -0.248660
     2  N    0.009719
     3  C    0.088399
     4  C    0.165859
     5  N   -0.091201
     9  C    0.736642
    10  O   -0.108227
    11  O   -0.552531
 APT charges:
               1
     1  N   -0.575190
     2  N   -0.048122
     3  C   -0.518467
     4  C   -0.343984
     5  N   -0.210980
     6  H    0.793862
     7  H    0.785766
     8  H    0.477046
     9  C    0.255533
    10  O   -0.381716
    11  O   -0.233750
 Sum of APT charges =  -0.00000
 APT charges with hydrogens summed into heavy atoms:
               1
     1  N   -0.575190
     2  N   -0.048122
     3  C    0.275395
     4  C    0.441782
     5  N   -0.210980
     9  C    0.255533
    10  O    0.095331
    11  O   -0.233750
 Electronic spatial extent (au):  <R**2>=            807.5131
 Charge=             -0.0000 electrons
 Dipole moment (field-independent basis, Debye):
    X=             -9.3885    Y=              3.9457    Z=              0.2076  Tot=             10.1860
 Quadrupole moment (field-independent basis, Debye-Ang):
   XX=            -44.9113   YY=            -47.6149   ZZ=            -45.4595
   XY=              1.8605   XZ=              1.6291   YZ=              0.6217
 Traceless Quadrupole moment (field-independent basis, Debye-Ang):
   XX=              1.0839   YY=             -1.6196   ZZ=              0.5357
   XY=              1.8605   XZ=              1.6291   YZ=              0.6217
 Octapole moment (field-independent basis, Debye-Ang**2):
  XXX=            -68.0867  YYY=             17.0100  ZZZ=              0.1675  XYY=            -15.3672
  XXY=              2.9301  XXZ=             -0.7074  XZZ=              4.1474  YZZ=              0.2067
  YYZ=              0.1699  XYZ=              0.0820
 Hexadecapole moment (field-independent basis, Debye-Ang**3):
 XXXX=           -671.1344 YYYY=           -273.0745 ZZZZ=            -44.5327 XXXY=              0.0320
 XXXZ=              9.3502 YYYX=              8.6682 YYYZ=              2.0926 ZZZX=             -0.2084
 ZZZY=              0.2904 XXYY=           -158.2114 XXZZ=           -130.2621 YYZZ=            -55.7343
 XXYZ=              1.4475 YYXZ=              2.9836 ZZXY=             -0.6747
 N-N= 3.626661071664D+02 E-N=-1.730568971700D+03  KE= 4.267524864905D+02
  Exact polarizability:   0.000   0.000   0.000   0.000   0.000   0.000
 Approx polarizability: 104.748  -5.102  88.145   1.943   0.459  43.605
 D2PCM: PCM CHGder 2nd derivatives, FixD1E=F FixD2E=F DoIter=F DoCFld=F I1PDM=0
 Calling FoFJK, ICntrl=    100147 FMM=F ISym2X=0 I1Cent= 0 IOpClX= 0 NMat=1 NMatS=1 NMatT=0.
 ***** Axes restored to original set *****
 -------------------------------------------------------------------
 Center     Atomic                   Forces (Hartrees/Bohr)
 Number     Number              X              Y              Z
 -------------------------------------------------------------------
      1        7          -0.006905922   -0.025300645   -0.001545861
      2        7           0.043772032   -0.013001531    0.001369916
      3        6          -0.012751687    0.009022699    0.003818716
      4        6           0.001515307    0.003855614   -0.000169626
      5        7           0.003206185    0.011461713   -0.000665663
      6        1           0.000497548    0.000773036   -0.002136121
      7        1          -0.001061982    0.001270807    0.001179698
      8        1           0.040024014   -0.021904339   -0.013256076
      9        6           0.035038629    0.028684231   -0.010750048
     10        8          -0.099117744    0.021531219    0.018283531
     11        8          -0.004216380   -0.016392803    0.003871534
 -------------------------------------------------------------------
 Cartesian Forces:  Max     0.099117744 RMS     0.023710203
 FormGI is forming the generalized inverse of G from B-inverse, IUseBI=4.

 GradGradGradGradGradGradGradGradGradGradGradGradGradGradGradGradGradGrad
 Berny optimization.
 Internal  Forces:  Max     0.071334111 RMS     0.013134524
 Search for a saddle point.
 Step number   1 out of a maximum of   65
 All quantities printed in internal units (Hartrees-Bohrs-Radians)
 Swapping is turned off.
 Second derivative matrix not updated -- analytic derivatives used.
 ITU=  0
     Eigenvalues ---   -0.07661   0.00482   0.00645   0.00952   0.01570
     Eigenvalues ---    0.02862   0.03105   0.03811   0.06039   0.06487
     Eigenvalues ---    0.09931   0.10575   0.10996   0.18479   0.20611
     Eigenvalues ---    0.22005   0.25745   0.31215   0.35800   0.37888
     Eigenvalues ---    0.38725   0.39001   0.40619   0.41963   0.54238
     Eigenvalues ---    0.59411   0.91863
 Eigenvectors required to have negative eigenvalues:
                          R10       R5        A18       A5        A17
   1                    0.71158  -0.64528   0.16595   0.13783  -0.08140
                          R11       A15       R3        A16       A13
   1                   -0.07168  -0.05573   0.05319   0.05049  -0.04204
 RFO step:  Lambda0=8.734794793D-03 Lambda=-6.48147299D-02.
 Linear search not attempted -- option 19 set.
 Maximum step size (   0.300) exceeded in Quadratic search.
    -- Step size scaled by   0.376
 Iteration  1 RMS(Cart)=  0.04573848 RMS(Int)=  0.00522207
 Iteration  2 RMS(Cart)=  0.00535989 RMS(Int)=  0.00019348
 Iteration  3 RMS(Cart)=  0.00000854 RMS(Int)=  0.00019333
 Iteration  4 RMS(Cart)=  0.00000000 RMS(Int)=  0.00019333
 Variable       Old X    -DE/DX   Delta X   Delta X   Delta X     New X
                                 (Linear)    (Quad)   (Total)
    R1        2.54261  -0.00341   0.00000  -0.01648  -0.01638   2.52623
    R2        2.52383  -0.00985   0.00000  -0.02043  -0.02047   2.50337
    R3        2.70560  -0.00147   0.00000   0.00762   0.00765   2.71325
    R4        2.48704   0.00205   0.00000   0.00479   0.00481   2.49186
    R5        3.00091  -0.02428   0.00000  -0.23747  -0.23745   2.76346
    R6        2.67771  -0.00342   0.00000  -0.00395  -0.00393   2.67378
    R7        2.04034   0.00020   0.00000  -0.00031  -0.00031   2.04003
    R8        2.48795   0.00562   0.00000   0.01002   0.01001   2.49796
    R9        2.03960  -0.00006   0.00000  -0.00031  -0.00031   2.03929
   R10        2.76598  -0.07133   0.00000  -0.08619  -0.08627   2.67971
   R11        2.50304  -0.01721   0.00000  -0.03249  -0.03258   2.47045
   R12        2.27386   0.01226   0.00000   0.00575   0.00575   2.27961
    A1        2.01050  -0.00188   0.00000   0.00157   0.00158   2.01208
    A2        2.15468  -0.01864   0.00000  -0.06523  -0.06517   2.08951
    A3        2.09679   0.02060   0.00000   0.06439   0.06435   2.16114
    A4        1.80712   0.00633   0.00000   0.01274   0.01270   1.81981
    A5        1.45166   0.01332   0.00000   0.05872   0.05882   1.51049
    A6        1.89763  -0.00703   0.00000  -0.01679  -0.01674   1.88089
    A7        2.12877   0.00266   0.00000   0.00658   0.00655   2.13532
    A8        2.25521   0.00441   0.00000   0.01046   0.01043   2.26564
    A9        1.89876   0.00160   0.00000   0.00412   0.00414   1.90290
   A10        2.26101  -0.00243   0.00000  -0.00495  -0.00496   2.25605
   A11        2.12304   0.00082   0.00000   0.00081   0.00080   2.12384
   A12        1.81070   0.00097   0.00000  -0.00167  -0.00173   1.80897
   A13        2.20516  -0.00474   0.00000   0.02259   0.02265   2.22781
   A14        1.99710  -0.01781   0.00000  -0.04643  -0.04656   1.95054
   A15        2.12270  -0.00441   0.00000  -0.00479  -0.00476   2.11794
   A16        2.16194   0.02239   0.00000   0.05167   0.05173   2.21367
   A17        1.59133   0.02844   0.00000   0.03494   0.03463   1.62595
   A18        3.25878   0.01964   0.00000   0.07146   0.07152   3.33030
   A19        3.08180   0.00222   0.00000   0.00283   0.00306   3.08486
    D1        0.00866   0.00067   0.00000   0.00262   0.00259   0.01125
    D2       -3.07314  -0.00154   0.00000  -0.00021  -0.00046  -3.07361
    D3        2.93001   0.00392   0.00000   0.01531   0.01515   2.94516
    D4       -0.15179   0.00170   0.00000   0.01248   0.01209  -0.13970
    D5       -0.01201  -0.00115   0.00000  -0.00365  -0.00357  -0.01558
    D6       -2.94125   0.00096   0.00000   0.00148   0.00134  -2.93991
    D7        0.07444   0.00103   0.00000  -0.00433  -0.00434   0.07010
    D8       -3.01149  -0.00293   0.00000  -0.01463  -0.01420  -3.02569
    D9        2.98541   0.00142   0.00000   0.00038  -0.00008   2.98533
   D10       -0.10052  -0.00254   0.00000  -0.00993  -0.00993  -0.11045
   D11       -0.00169   0.00011   0.00000  -0.00039  -0.00040  -0.00209
   D12        3.08487   0.00093   0.00000   0.00417   0.00419   3.08906
   D13        0.22833   0.00013   0.00000  -0.00480  -0.00463   0.22370
   D14       -2.93526  -0.00017   0.00000  -0.00207  -0.00212  -2.93738
   D15        0.22351  -0.00205   0.00000  -0.01527  -0.01572   0.20779
   D16       -0.00548  -0.00082   0.00000  -0.00178  -0.00173  -0.00721
   D17       -3.11737  -0.00032   0.00000  -0.00103  -0.00102  -3.11839
   D18       -3.08682  -0.00159   0.00000  -0.00651  -0.00650  -3.09332
   D19        0.08448  -0.00110   0.00000  -0.00576  -0.00580   0.07869
   D20        0.01001   0.00117   0.00000   0.00316   0.00309   0.01311
   D21        3.12470   0.00065   0.00000   0.00235   0.00233   3.12703
   D22       -0.19961   0.00288   0.00000   0.01672   0.01734  -0.18227
   D23        0.06982  -0.00231   0.00000  -0.01628  -0.01568   0.05414
   D24       -3.12887   0.00075   0.00000  -0.00787  -0.00747  -3.13633
         Item               Value     Threshold  Converged?
 Maximum Force            0.071334     0.000450     NO 
 RMS     Force            0.013135     0.000300     NO 
 Maximum Displacement     0.170812     0.001800     NO 
 RMS     Displacement     0.049814     0.001200     NO 
 Predicted change in Energy=-1.954811D-02
 GradGradGradGradGradGradGradGradGradGradGradGradGradGradGradGradGradGrad

                          Input orientation:                          
 ---------------------------------------------------------------------
 Center     Atomic      Atomic             Coordinates (Angstroms)
 Number     Number       Type             X           Y           Z
 ---------------------------------------------------------------------
      1          7           0       -0.043941   -0.086300    0.125515
      2          7           0       -0.692321    1.080269    0.049193
      3          6           0       -1.961230    0.739993   -0.064281
      4          6           0       -2.031852   -0.673111   -0.054349
      5          7           0       -0.809810   -1.164925    0.055436
      6          1           0       -2.754388    1.471450   -0.100028
      7          1           0       -2.894867   -1.314455   -0.146218
      8          1           0        0.625384    1.713666    0.080061
      9          6           0        1.387304   -0.113766    0.014689
     10          8           0        1.889875    1.090003   -0.071439
     11          8           0        1.992690   -1.155770   -0.039451
 ---------------------------------------------------------------------
                    Distance matrix (angstroms):
                    1          2          3          4          5
     1  N    0.000000
     2  N    1.336826   0.000000
     3  C    2.096373   1.318633   0.000000
     4  C    2.080501   2.208937   1.414903   0.000000
     5  N    1.324725   2.248274   2.229084   1.321862   0.000000
     6  H    3.134322   2.104141   1.079540   2.263468   3.279638
     7  H    3.116084   3.259463   2.258130   1.079147   2.100116
     8  H    1.920922   1.462358   2.767571   3.574307   3.216625
     9  C    1.435793   2.398280   3.456562   3.465294   2.435961
    10  O    2.272031   2.585031   3.866985   4.299861   3.519815
    11  O    2.306263   3.495284   4.384977   4.053409   2.804121
                    6          7          8          9         10
     6  H    0.000000
     7  H    2.789828   0.000000
     8  H    3.393223   4.648967   0.000000
     9  C    4.436179   4.450229   1.980985   0.000000
    10  O    4.659989   5.355443   1.418043   1.307308   0.000000
    11  O    5.425929   4.891298   3.180798   1.206315   2.248353
                   11
    11  O    0.000000
 Stoichiometry    C3H3N3O2
 Framework group  C1[X(C3H3N3O2)]
 Deg. of freedom    27
 Full point group                 C1      NOp   1
 Largest Abelian subgroup         C1      NOp   1
 Largest concise Abelian subgroup C1      NOp   1
                         Standard orientation:                         
 ---------------------------------------------------------------------
 Center     Atomic      Atomic             Coordinates (Angstroms)
 Number     Number       Type             X           Y           Z
 ---------------------------------------------------------------------
      1          7           0       -0.035635   -0.085225    0.126133
      2          7           0       -0.698670    1.073518    0.056843
      3          6           0       -1.963182    0.717967   -0.058860
      4          6           0       -2.015979   -0.695949   -0.057550
      5          7           0       -0.787837   -1.172975    0.049386
      6          1           0       -2.765499    1.439569   -0.090246
      7          1           0       -2.870834   -1.347553   -0.153433
      8          1           0        0.610941    1.723282    0.091735
      9          6           0        1.395848   -0.093965    0.015319
     10          8           0        1.883204    1.116548   -0.063408
     11          8           0        2.014329   -1.127903   -0.045098
 ---------------------------------------------------------------------
 Rotational constants (GHZ):           5.3031172           1.8561769           1.3788362
 Standard basis: 6-31+G(d,p) (6D, 7F)
 There are   167 symmetry adapted cartesian basis functions of A   symmetry.
 There are   167 symmetry adapted basis functions of A   symmetry.
   167 basis functions,   277 primitive gaussians,   167 cartesian basis functions
    29 alpha electrons       29 beta electrons
       nuclear repulsion energy       364.3915577201 Hartrees.
 NAtoms=   11 NActive=   11 NUniq=   11 SFac= 1.00D+00 NAtFMM=   60 NAOKFM=F Big=F
 Integral buffers will be    131072 words long.
 Raffenetti 2 integral format.
 Two-electron integral symmetry is turned on.
 ------------------------------------------------------------------------------
 Polarizable Continuum Model (PCM)
 =================================
 Model                : PCM.
 Atomic radii         : SMD-Coulomb.
 Polarization charges : Total charges.
 Charge compensation  : None.
 Solution method      : Matrix inversion.
 Cavity type          : VdW (van der Waals Surface) (Alpha=1.000).
 Cavity algorithm     : GePol (No added spheres)
                        Default sphere list used, NSphG=   11.
                        Lebedev-Laikov grids with approx.  5.0 points / Ang**2.
                        Smoothing algorithm: York/Karplus (Gamma=1.0000).
                        Polarization charges: spherical gaussians, with
                                              point-specific exponents (IZeta= 3).
                        Self-potential: point-specific (ISelfS= 7).
                        Self-field    : sphere-specific E.n sum rule (ISelfD= 2).
 1st derivatives      : Analytical E(r).r(x)/FMM algorithm (CHGder, D1EAlg=3).
                        Cavity 1st derivative terms included.
 Solvent              : Water, Eps=  78.355300 Eps(inf)=   1.777849
 ------------------------------------------------------------------------------
 Spheres list:
 ISph  on   Nord     Re0    Alpha      Xe            Ye            Ze
    1   N      1    1.8900  1.000     -0.035635     -0.085225      0.126133
    2   N      2    1.8900  1.000     -0.698670      1.073518      0.056843
    3   C      3    1.8500  1.000     -1.963182      0.717967     -0.058860
    4   C      4    1.8500  1.000     -2.015979     -0.695949     -0.057550
    5   N      5    1.8900  1.000     -0.787837     -1.172975      0.049386
    6   H      6    1.2000  1.000     -2.765499      1.439569     -0.090246
    7   H      7    1.2000  1.000     -2.870834     -1.347553     -0.153433
    8   H      8    1.2000  1.000      0.610941      1.723282      0.091735
    9   C      9    1.8500  1.000      1.395848     -0.093965      0.015319
   10   O     10    1.5200  1.000      1.883204      1.116548     -0.063408
   11   O     11    1.5200  1.000      2.014329     -1.127903     -0.045098
 ------------------------------------------------------------------------------
 ------------------------------------------------------------------------------
 Atomic radii for non-electrostatic terms: SMD-CDS.
 ------------------------------------------------------------------------------
 Nuclear repulsion after PCM non-electrostatic terms =      364.3979058272 Hartrees.
 One-electron integrals computed using PRISM.
 NBasis=   167 RedAO= T EigKep=  3.02D-05  NBF=   167
 NBsUse=   167 1.00D-06 EigRej= -1.00D+00 NBFU=   167
 Initial guess from the checkpoint file:  "/scratch/gongke2021/1-H-Tz-opt/Gau-4138.chk"
 B after Tr=    -0.000000    0.000000    0.000000
         Rot=    0.999990   -0.002340   -0.000274   -0.003897 Ang=  -0.52 deg.
 ExpMin= 4.38D-02 ExpMax= 5.48D+03 ExpMxC= 8.25D+02 IAcc=2 IRadAn=         4 AccDes= 0.00D+00
 Harris functional with IExCor= 1009 and IRadAn=       4 diagonalized for initial guess.
 HarFok:  IExCor= 1009 AccDes= 0.00D+00 IRadAn=         4 IDoV= 1 UseB2=F ITyADJ=14
 ICtDFT=  3500011 ScaDFX=  1.000000  1.000000  1.000000  1.000000
 FoFCou: FMM=F IPFlag=           0 FMFlag=      100000 FMFlg1=           0
         NFxFlg=           0 DoJE=T BraDBF=F KetDBF=T FulRan=T
         wScrn=  0.000000 ICntrl=       500 IOpCl=  0 I1Cent=   200000004 NGrid=           0
         NMat0=    1 NMatS0=      1 NMatT0=    0 NMatD0=    1 NMtDS0=    0 NMtDT0=    0
 Petite list used in FoFCou.
 Keep R1 ints in memory in canonical form, NReq=118249495.
 Requested convergence on RMS density matrix=1.00D-08 within 128 cycles.
 Requested convergence on MAX density matrix=1.00D-06.
 Requested convergence on             energy=1.00D-06.
 No special actions if energy rises.
 Inv3:  Mode=1 IEnd=     2958147.
 Iteration    1 A*A^-1 deviation from unit magnitude is 2.89D-15 for    428.
 Iteration    1 A*A^-1 deviation from orthogonality  is 1.76D-15 for    988    862.
 Iteration    1 A^-1*A deviation from unit magnitude is 2.89D-15 for    977.
 Iteration    1 A^-1*A deviation from orthogonality  is 7.41D-13 for    463    428.
 Error on total polarization charges =  0.03487
 SCF Done:  E(RM062X) =  -430.621419958     A.U. after   13 cycles
            NFock= 13  Conv=0.52D-08     -V/T= 2.0088
 SMD-CDS (non-electrostatic) energy       (kcal/mol) =       3.98
 (included in total energy above)
 D1PCM: PCM CHGder 1st derivatives, ID1Alg=3 FixD1E=F DoIter=F DoCFld=F I1PDM=0.
 Calling FoFJK, ICntrl=      2127 FMM=F ISym2X=0 I1Cent= 0 IOpClX= 0 NMat=1 NMatS=1 NMatT=0.
 ***** Axes restored to original set *****
 -------------------------------------------------------------------
 Center     Atomic                   Forces (Hartrees/Bohr)
 Number     Number              X              Y              Z
 -------------------------------------------------------------------
      1        7          -0.006587857   -0.019854588   -0.001505375
      2        7           0.037621401   -0.007345898    0.002210025
      3        6          -0.009247516    0.007365682    0.003867688
      4        6           0.001158187    0.002757713   -0.000491622
      5        7           0.001577902    0.008365444   -0.000885914
      6        1           0.000437378    0.000544469   -0.001973214
      7        1          -0.000740516    0.000907035    0.001152075
      8        1           0.026034562   -0.017063389   -0.011457636
      9        6           0.026559704    0.021852217   -0.007944423
     10        8          -0.073870188    0.013805184    0.013936096
     11        8          -0.002943057   -0.011333868    0.003092300
 -------------------------------------------------------------------
 Cartesian Forces:  Max     0.073870188 RMS     0.017831627

 GradGradGradGradGradGradGradGradGradGradGradGradGradGradGradGradGradGrad
 Berny optimization.
 FormGI is forming the generalized inverse of G from B-inverse, IUseBI=4.
 Internal  Forces:  Max     0.053629274 RMS     0.010041004
 Search for a saddle point.
 Step number   2 out of a maximum of   65
 All quantities printed in internal units (Hartrees-Bohrs-Radians)
 Swapping is turned off.
 Update second derivatives using D2CorX and points    1    2
 ITU=  0  0
     Eigenvalues ---   -0.07833   0.00503   0.00643   0.00951   0.01570
     Eigenvalues ---    0.02880   0.03733   0.04058   0.06039   0.06482
     Eigenvalues ---    0.10224   0.10602   0.11030   0.18464   0.20637
     Eigenvalues ---    0.22003   0.25737   0.31247   0.35942   0.37925
     Eigenvalues ---    0.38727   0.39001   0.40631   0.41955   0.54234
     Eigenvalues ---    0.59420   0.91879
 Eigenvectors required to have negative eigenvalues:
                          R10       R5        A18       A5        A17
   1                   -0.70068   0.65464  -0.16976  -0.14150   0.08350
                          R11       A15       R3        A16       A13
   1                    0.07276   0.05556  -0.05549  -0.05279   0.03946
 RFO step:  Lambda0=3.248231831D-03 Lambda=-4.43067469D-02.
 Linear search not attempted -- option 19 set.
 Maximum step size (   0.300) exceeded in Quadratic search.
    -- Step size scaled by   0.448
 Iteration  1 RMS(Cart)=  0.04830730 RMS(Int)=  0.00379546
 Iteration  2 RMS(Cart)=  0.00408854 RMS(Int)=  0.00026053
 Iteration  3 RMS(Cart)=  0.00000493 RMS(Int)=  0.00026047
 Iteration  4 RMS(Cart)=  0.00000000 RMS(Int)=  0.00026047
 Variable       Old X    -DE/DX   Delta X   Delta X   Delta X     New X
                                 (Linear)    (Quad)   (Total)
    R1        2.52623  -0.00243   0.00000  -0.01371  -0.01375   2.51249
    R2        2.50337  -0.00671   0.00000  -0.01821  -0.01825   2.48512
    R3        2.71325   0.00066   0.00000   0.01124   0.01110   2.72436
    R4        2.49186   0.00156   0.00000   0.00420   0.00423   2.49608
    R5        2.76346  -0.02300   0.00000  -0.22572  -0.22558   2.53788
    R6        2.67378  -0.00235   0.00000  -0.00316  -0.00311   2.67067
    R7        2.04003   0.00012   0.00000  -0.00030  -0.00030   2.03973
    R8        2.49796   0.00415   0.00000   0.00945   0.00946   2.50742
    R9        2.03929  -0.00005   0.00000  -0.00028  -0.00028   2.03901
   R10        2.67971  -0.05363   0.00000  -0.12005  -0.11994   2.55978
   R11        2.47045  -0.01128   0.00000  -0.02434  -0.02444   2.44602
   R12        2.27961   0.00818   0.00000   0.00341   0.00341   2.28302
    A1        2.01208  -0.00153   0.00000   0.00137   0.00146   2.01355
    A2        2.08951  -0.01533   0.00000  -0.06749  -0.06775   2.02176
    A3        2.16114   0.01699   0.00000   0.06774   0.06790   2.22904
    A4        1.81981   0.00474   0.00000   0.01144   0.01140   1.83121
    A5        1.51049   0.01051   0.00000   0.05039   0.05043   1.56092
    A6        1.88089  -0.00511   0.00000  -0.01503  -0.01500   1.86589
    A7        2.13532   0.00191   0.00000   0.00588   0.00586   2.14118
    A8        2.26564   0.00323   0.00000   0.00951   0.00948   2.27512
    A9        1.90290   0.00121   0.00000   0.00394   0.00395   1.90684
   A10        2.25605  -0.00174   0.00000  -0.00400  -0.00401   2.25204
   A11        2.12384   0.00052   0.00000   0.00008   0.00007   2.12391
   A12        1.80897   0.00068   0.00000  -0.00178  -0.00188   1.80709
   A13        2.22781  -0.00109   0.00000   0.03981   0.04011   2.26793
   A14        1.95054  -0.01370   0.00000  -0.04752  -0.04787   1.90267
   A15        2.11794  -0.00276   0.00000  -0.00139  -0.00127   2.11667
   A16        2.21367   0.01657   0.00000   0.04937   0.04953   2.26320
   A17        1.62595   0.02013   0.00000   0.03050   0.03031   1.65626
   A18        3.33030   0.01525   0.00000   0.06183   0.06183   3.39213
   A19        3.08486   0.00175   0.00000   0.00187   0.00211   3.08696
    D1        0.01125   0.00052   0.00000   0.00289   0.00288   0.01413
    D2       -3.07361  -0.00123   0.00000   0.00103   0.00078  -3.07283
    D3        2.94516   0.00340   0.00000   0.01987   0.01952   2.96468
    D4       -0.13970   0.00165   0.00000   0.01800   0.01742  -0.12228
    D5       -0.01558  -0.00088   0.00000  -0.00387  -0.00380  -0.01938
    D6       -2.93991   0.00054   0.00000  -0.00312  -0.00331  -2.94322
    D7        0.07010   0.00050   0.00000  -0.00571  -0.00569   0.06441
    D8       -3.02569  -0.00251   0.00000  -0.01715  -0.01654  -3.04223
    D9        2.98533   0.00086   0.00000   0.00254   0.00204   2.98737
   D10       -0.11045  -0.00215   0.00000  -0.00890  -0.00881  -0.11926
   D11       -0.00209   0.00010   0.00000  -0.00054  -0.00055  -0.00264
   D12        3.08906   0.00090   0.00000   0.00654   0.00657   3.09563
   D13        0.22370  -0.00021   0.00000  -0.01063  -0.01052   0.21317
   D14       -2.93738  -0.00032   0.00000  -0.00534  -0.00545  -2.94283
   D15        0.20779  -0.00213   0.00000  -0.02189  -0.02252   0.18527
   D16       -0.00721  -0.00064   0.00000  -0.00175  -0.00169  -0.00890
   D17       -3.11839  -0.00029   0.00000  -0.00204  -0.00202  -3.12041
   D18       -3.09332  -0.00144   0.00000  -0.00931  -0.00933  -3.10265
   D19        0.07869  -0.00109   0.00000  -0.00960  -0.00965   0.06904
   D20        0.01311   0.00092   0.00000   0.00329   0.00323   0.01634
   D21        3.12703   0.00056   0.00000   0.00346   0.00344   3.13046
   D22       -0.18227   0.00291   0.00000   0.02382   0.02441  -0.15787
   D23        0.05414  -0.00217   0.00000  -0.01814  -0.01721   0.03692
   D24       -3.13633   0.00035   0.00000  -0.00778  -0.00715   3.13970
         Item               Value     Threshold  Converged?
 Maximum Force            0.053629     0.000450     NO 
 RMS     Force            0.010041     0.000300     NO 
 Maximum Displacement     0.182539     0.001800     NO 
 RMS     Displacement     0.051263     0.001200     NO 
 Predicted change in Energy=-1.614090D-02
 GradGradGradGradGradGradGradGradGradGradGradGradGradGradGradGradGradGrad

                          Input orientation:                          
 ---------------------------------------------------------------------
 Center     Atomic      Atomic             Coordinates (Angstroms)
 Number     Number       Type             X           Y           Z
 ---------------------------------------------------------------------
      1          7           0       -0.034756   -0.136985    0.117974
      2          7           0       -0.647358    1.040731    0.044423
      3          6           0       -1.931405    0.750081   -0.062559
      4          6           0       -2.036156   -0.659241   -0.051178
      5          7           0       -0.823153   -1.187346    0.050338
      6          1           0       -2.699262    1.507716   -0.100556
      7          1           0       -2.917518   -1.275827   -0.136381
      8          1           0        0.549510    1.649590    0.064747
      9          6           0        1.402768   -0.105100    0.013509
     10          8           0        1.793280    1.126959   -0.056773
     11          8           0        2.050895   -1.123525   -0.034416
 ---------------------------------------------------------------------
                    Distance matrix (angstroms):
                    1          2          3          4          5
     1  N    0.000000
     2  N    1.329551   0.000000
     3  C    2.101608   1.320871   0.000000
     4  C    2.075322   2.197226   1.413256   0.000000
     5  N    1.315068   2.235009   2.234859   1.326867   0.000000
     6  H    3.138851   2.109361   1.079378   2.266682   3.287235
     7  H    3.109979   3.248501   2.254367   1.078998   2.104533
     8  H    1.880438   1.342987   2.642019   3.468401   3.151605
     9  C    1.441667   2.348808   3.442939   3.483884   2.475345
    10  O    2.229306   2.444256   3.743708   4.225531   3.494739
    11  O    2.312234   3.459883   4.401126   4.113372   2.876006
                    6          7          8          9         10
     6  H    0.000000
     7  H    2.792316   0.000000
     8  H    3.256067   4.540793   0.000000
     9  C    4.409176   4.478609   1.951822   0.000000
    10  O    4.508861   5.288793   1.354575   1.294375   0.000000
    11  O    5.430635   4.971793   3.155021   1.208121   2.265291
                   11
    11  O    0.000000
 Stoichiometry    C3H3N3O2
 Framework group  C1[X(C3H3N3O2)]
 Deg. of freedom    27
 Full point group                 C1      NOp   1
 Largest Abelian subgroup         C1      NOp   1
 Largest concise Abelian subgroup C1      NOp   1
                         Standard orientation:                         
 ---------------------------------------------------------------------
 Center     Atomic      Atomic             Coordinates (Angstroms)
 Number     Number       Type             X           Y           Z
 ---------------------------------------------------------------------
      1          7           0       -0.028828   -0.135401    0.117288
      2          7           0       -0.655301    1.035566    0.053462
      3          6           0       -1.936065    0.730688   -0.053271
      4          6           0       -2.024305   -0.679809   -0.051981
      5          7           0       -0.805016   -1.194401    0.043442
      6          1           0       -2.712801    1.479537   -0.084323
      7          1           0       -2.898559   -1.306036   -0.140057
      8          1           0        0.534402    1.658232    0.076022
      9          6           0        1.408021   -0.085928    0.010409
     10          8           0        1.783962    1.151097   -0.051600
     11          8           0        2.067921   -1.096319   -0.046141
 ---------------------------------------------------------------------
 Rotational constants (GHZ):           5.3304770           1.8805909           1.3934745
 Standard basis: 6-31+G(d,p) (6D, 7F)
 There are   167 symmetry adapted cartesian basis functions of A   symmetry.
 There are   167 symmetry adapted basis functions of A   symmetry.
   167 basis functions,   277 primitive gaussians,   167 cartesian basis functions
    29 alpha electrons       29 beta electrons
       nuclear repulsion energy       366.2352848749 Hartrees.
 NAtoms=   11 NActive=   11 NUniq=   11 SFac= 1.00D+00 NAtFMM=   60 NAOKFM=F Big=F
 Integral buffers will be    131072 words long.
 Raffenetti 2 integral format.
 Two-electron integral symmetry is turned on.
 ------------------------------------------------------------------------------
 Polarizable Continuum Model (PCM)
 =================================
 Model                : PCM.
 Atomic radii         : SMD-Coulomb.
 Polarization charges : Total charges.
 Charge compensation  : None.
 Solution method      : Matrix inversion.
 Cavity type          : VdW (van der Waals Surface) (Alpha=1.000).
 Cavity algorithm     : GePol (No added spheres)
                        Default sphere list used, NSphG=   11.
                        Lebedev-Laikov grids with approx.  5.0 points / Ang**2.
                        Smoothing algorithm: York/Karplus (Gamma=1.0000).
                        Polarization charges: spherical gaussians, with
                                              point-specific exponents (IZeta= 3).
                        Self-potential: point-specific (ISelfS= 7).
                        Self-field    : sphere-specific E.n sum rule (ISelfD= 2).
 1st derivatives      : Analytical E(r).r(x)/FMM algorithm (CHGder, D1EAlg=3).
                        Cavity 1st derivative terms included.
 Solvent              : Water, Eps=  78.355300 Eps(inf)=   1.777849
 ------------------------------------------------------------------------------
 Spheres list:
 ISph  on   Nord     Re0    Alpha      Xe            Ye            Ze
    1   N      1    1.8900  1.000     -0.028828     -0.135401      0.117288
    2   N      2    1.8900  1.000     -0.655301      1.035566      0.053462
    3   C      3    1.8500  1.000     -1.936065      0.730688     -0.053271
    4   C      4    1.8500  1.000     -2.024305     -0.679809     -0.051981
    5   N      5    1.8900  1.000     -0.805016     -1.194401      0.043442
    6   H      6    1.2000  1.000     -2.712801      1.479537     -0.084323
    7   H      7    1.2000  1.000     -2.898559     -1.306036     -0.140057
    8   H      8    1.2000  1.000      0.534402      1.658232      0.076022
    9   C      9    1.8500  1.000      1.408021     -0.085928      0.010409
   10   O     10    1.5200  1.000      1.783962      1.151097     -0.051600
   11   O     11    1.5200  1.000      2.067921     -1.096319     -0.046141
 ------------------------------------------------------------------------------
 ------------------------------------------------------------------------------
 Atomic radii for non-electrostatic terms: SMD-CDS.
 ------------------------------------------------------------------------------
 Nuclear repulsion after PCM non-electrostatic terms =      366.2416919925 Hartrees.
 One-electron integrals computed using PRISM.
 NBasis=   167 RedAO= T EigKep=  2.91D-05  NBF=   167
 NBsUse=   167 1.00D-06 EigRej= -1.00D+00 NBFU=   167
 Initial guess from the checkpoint file:  "/scratch/gongke2021/1-H-Tz-opt/Gau-4138.chk"
 B after Tr=     0.000000   -0.000000   -0.000000
         Rot=    0.999989   -0.002276   -0.000214   -0.004077 Ang=  -0.54 deg.
 ExpMin= 4.38D-02 ExpMax= 5.48D+03 ExpMxC= 8.25D+02 IAcc=2 IRadAn=         4 AccDes= 0.00D+00
 Harris functional with IExCor= 1009 and IRadAn=       4 diagonalized for initial guess.
 HarFok:  IExCor= 1009 AccDes= 0.00D+00 IRadAn=         4 IDoV= 1 UseB2=F ITyADJ=14
 ICtDFT=  3500011 ScaDFX=  1.000000  1.000000  1.000000  1.000000
 FoFCou: FMM=F IPFlag=           0 FMFlag=      100000 FMFlg1=           0
         NFxFlg=           0 DoJE=T BraDBF=F KetDBF=T FulRan=T
         wScrn=  0.000000 ICntrl=       500 IOpCl=  0 I1Cent=   200000004 NGrid=           0
         NMat0=    1 NMatS0=      1 NMatT0=    0 NMatD0=    1 NMtDS0=    0 NMtDT0=    0
 Petite list used in FoFCou.
 Keep R1 ints in memory in canonical form, NReq=118249495.
 Requested convergence on RMS density matrix=1.00D-08 within 128 cycles.
 Requested convergence on MAX density matrix=1.00D-06.
 Requested convergence on             energy=1.00D-06.
 No special actions if energy rises.
 Inv3:  Mode=1 IEnd=     2994003.
 Iteration    1 A*A^-1 deviation from unit magnitude is 4.55D-15 for    209.
 Iteration    1 A*A^-1 deviation from orthogonality  is 3.63D-15 for    245     98.
 Iteration    1 A^-1*A deviation from unit magnitude is 4.00D-15 for    994.
 Iteration    1 A^-1*A deviation from orthogonality  is 1.62D-15 for    960    933.
 Error on total polarization charges =  0.03473
 SCF Done:  E(RM062X) =  -430.636370670     A.U. after   13 cycles
            NFock= 13  Conv=0.47D-08     -V/T= 2.0085
 SMD-CDS (non-electrostatic) energy       (kcal/mol) =       4.02
 (included in total energy above)
 D1PCM: PCM CHGder 1st derivatives, ID1Alg=3 FixD1E=F DoIter=F DoCFld=F I1PDM=0.
 Calling FoFJK, ICntrl=      2127 FMM=F ISym2X=0 I1Cent= 0 IOpClX= 0 NMat=1 NMatS=1 NMatT=0.
 ***** Axes restored to original set *****
 -------------------------------------------------------------------
 Center     Atomic                   Forces (Hartrees/Bohr)
 Number     Number              X              Y              Z
 -------------------------------------------------------------------
      1        7          -0.005194906   -0.014199292   -0.001516760
      2        7           0.020173396   -0.005128557    0.002631083
      3        6          -0.005659270    0.004686115    0.003737751
      4        6           0.000467141    0.001789319   -0.000853392
      5        7          -0.000469402    0.005315259   -0.000842117
      6        1           0.000357522    0.000377427   -0.001700610
      7        1          -0.000452825    0.000527867    0.001049708
      8        1           0.016672492   -0.007416016   -0.008737899
      9        6           0.018904169    0.014733963   -0.005280352
     10        8          -0.043195554    0.006215656    0.009284644
     11        8          -0.001602764   -0.006901743    0.002227944
 -------------------------------------------------------------------
 Cartesian Forces:  Max     0.043195554 RMS     0.010779687

 GradGradGradGradGradGradGradGradGradGradGradGradGradGradGradGradGradGrad
 Berny optimization.
 FormGI is forming the generalized inverse of G from B-inverse, IUseBI=4.
 Internal  Forces:  Max     0.031305295 RMS     0.005997875
 Search for a saddle point.
 Step number   3 out of a maximum of   65
 All quantities printed in internal units (Hartrees-Bohrs-Radians)
 Swapping is turned off.
 Update second derivatives using D2CorX and points    2    3
 ITU=  0  0  0
     Eigenvalues ---   -0.07874   0.00508   0.00630   0.00947   0.01566
     Eigenvalues ---    0.02881   0.03766   0.06024   0.06248   0.06507
     Eigenvalues ---    0.10515   0.10869   0.11610   0.18465   0.20765
     Eigenvalues ---    0.22004   0.25723   0.31316   0.36291   0.38018
     Eigenvalues ---    0.38731   0.38996   0.40706   0.41919   0.54219
     Eigenvalues ---    0.59438   0.91895
 Eigenvectors required to have negative eigenvalues:
                          R10       R5        A18       A5        A17
   1                   -0.70933   0.64395  -0.17102  -0.14207   0.08555
                          R11       R3        A15       A16       A13
   1                    0.07294  -0.06025   0.05776  -0.05222   0.04431
 RFO step:  Lambda0=1.342425251D-03 Lambda=-1.56581207D-02.
 Linear search not attempted -- option 19 set.
 Maximum step size (   0.300) exceeded in Quadratic search.
    -- Step size scaled by   0.791
 Iteration  1 RMS(Cart)=  0.05307170 RMS(Int)=  0.00395482
 Iteration  2 RMS(Cart)=  0.00395835 RMS(Int)=  0.00083430
 Iteration  3 RMS(Cart)=  0.00001218 RMS(Int)=  0.00083417
 Iteration  4 RMS(Cart)=  0.00000002 RMS(Int)=  0.00083417
 Variable       Old X    -DE/DX   Delta X   Delta X   Delta X     New X
                                 (Linear)    (Quad)   (Total)
    R1        2.51249  -0.00043   0.00000  -0.01191  -0.01186   2.50063
    R2        2.48512  -0.00308   0.00000  -0.01834  -0.01837   2.46675
    R3        2.72436   0.00446   0.00000   0.03527   0.03543   2.75979
    R4        2.49608   0.00100   0.00000   0.00412   0.00415   2.50023
    R5        2.53788  -0.01198   0.00000  -0.21615  -0.21636   2.32152
    R6        2.67067  -0.00163   0.00000  -0.00514  -0.00510   2.66557
    R7        2.03973   0.00007   0.00000  -0.00038  -0.00038   2.03935
    R8        2.50742   0.00276   0.00000   0.01138   0.01143   2.51884
    R9        2.03901  -0.00002   0.00000  -0.00030  -0.00030   2.03871
   R10        2.55978  -0.03131   0.00000  -0.10112  -0.10127   2.45851
   R11        2.44602  -0.00554   0.00000  -0.02605  -0.02602   2.41999
   R12        2.28302   0.00488   0.00000   0.00268   0.00268   2.28569
    A1        2.01355  -0.00220   0.00000  -0.00517  -0.00535   2.00819
    A2        2.02176  -0.01002   0.00000  -0.07241  -0.07319   1.94858
    A3        2.22904   0.01238   0.00000   0.08422   0.08450   2.31354
    A4        1.83121   0.00349   0.00000   0.01730   0.01751   1.84871
    A5        1.56092   0.00627   0.00000   0.05871   0.05844   1.61936
    A6        1.86589  -0.00302   0.00000  -0.01797  -0.01807   1.84782
    A7        2.14118   0.00104   0.00000   0.00562   0.00557   2.14675
    A8        2.27512   0.00202   0.00000   0.01332   0.01324   2.28837
    A9        1.90684   0.00073   0.00000   0.00445   0.00451   1.91136
   A10        2.25204  -0.00102   0.00000  -0.00318  -0.00322   2.24882
   A11        2.12391   0.00028   0.00000  -0.00112  -0.00116   2.12275
   A12        1.80709   0.00098   0.00000   0.00134   0.00136   1.80846
   A13        2.26793   0.00052   0.00000   0.03840   0.03808   2.30601
   A14        1.90267  -0.00797   0.00000  -0.04407  -0.04454   1.85813
   A15        2.11667  -0.00195   0.00000  -0.01171  -0.01160   2.10507
   A16        2.26320   0.00998   0.00000   0.05646   0.05663   2.31983
   A17        1.65626   0.01159   0.00000   0.03192   0.03092   1.68718
   A18        3.39213   0.00976   0.00000   0.07601   0.07595   3.46808
   A19        3.08696   0.00118   0.00000  -0.00333  -0.00407   3.08289
    D1        0.01413   0.00022   0.00000   0.00012  -0.00008   0.01405
    D2       -3.07283  -0.00097   0.00000   0.00345   0.00399  -3.06884
    D3        2.96468   0.00254   0.00000   0.04357   0.04118   3.00586
    D4       -0.12228   0.00136   0.00000   0.04689   0.04525  -0.07703
    D5       -0.01938  -0.00049   0.00000  -0.00161  -0.00154  -0.02092
    D6       -2.94322   0.00004   0.00000  -0.02914  -0.02987  -2.97309
    D7        0.06441   0.00018   0.00000  -0.02017  -0.01944   0.04497
    D8       -3.04223  -0.00188   0.00000  -0.03983  -0.03789  -3.08012
    D9        2.98737   0.00050   0.00000   0.01473   0.01463   3.00201
   D10       -0.11926  -0.00157   0.00000  -0.00493  -0.00382  -0.12308
   D11       -0.00264   0.00017   0.00000   0.00150   0.00174  -0.00090
   D12        3.09563   0.00092   0.00000   0.02308   0.02351   3.11914
   D13        0.21317  -0.00068   0.00000  -0.05875  -0.06018   0.15300
   D14       -2.94283  -0.00057   0.00000  -0.03790  -0.03941  -2.98224
   D15        0.18527  -0.00202   0.00000  -0.07054  -0.07082   0.11446
   D16       -0.00890  -0.00049   0.00000  -0.00259  -0.00280  -0.01170
   D17       -3.12041  -0.00028   0.00000  -0.00852  -0.00841  -3.12881
   D18       -3.10265  -0.00126   0.00000  -0.02607  -0.02666  -3.12930
   D19        0.06904  -0.00106   0.00000  -0.03200  -0.03227   0.03677
   D20        0.01634   0.00061   0.00000   0.00261   0.00273   0.01907
   D21        3.13046   0.00040   0.00000   0.00798   0.00781   3.13827
   D22       -0.15787   0.00259   0.00000   0.06695   0.06644  -0.09143
   D23        0.03692  -0.00158   0.00000  -0.02725  -0.02434   0.01259
   D24        3.13970   0.00034   0.00000  -0.00751  -0.00492   3.13478
         Item               Value     Threshold  Converged?
 Maximum Force            0.031305     0.000450     NO 
 RMS     Force            0.005998     0.000300     NO 
 Maximum Displacement     0.176922     0.001800     NO 
 RMS     Displacement     0.055531     0.001200     NO 
 Predicted change in Energy=-7.651485D-03
 GradGradGradGradGradGradGradGradGradGradGradGradGradGradGradGradGradGrad

                          Input orientation:                          
 ---------------------------------------------------------------------
 Center     Atomic      Atomic             Coordinates (Angstroms)
 Number     Number       Type             X           Y           Z
 ---------------------------------------------------------------------
      1          7           0       -0.025865   -0.195303    0.093600
      2          7           0       -0.605232    0.993111    0.038291
      3          6           0       -1.904344    0.759709   -0.053023
      4          6           0       -2.045393   -0.643772   -0.048609
      5          7           0       -0.842149   -1.211909    0.029384
      6          1           0       -2.641420    1.546849   -0.094838
      7          1           0       -2.946036   -1.233596   -0.118231
      8          1           0        0.471584    1.584436    0.037307
      9          6           0        1.428529   -0.089815    0.013415
     10          8           0        1.699657    1.160883   -0.033417
     11          8           0        2.117513   -1.083539   -0.014752
 ---------------------------------------------------------------------
                    Distance matrix (angstroms):
                    1          2          3          4          5
     1  N    0.000000
     2  N    1.323274   0.000000
     3  C    2.112399   1.323067   0.000000
     4  C    2.073606   2.181972   1.410558   0.000000
     5  N    1.305347   2.217730   2.241055   1.332914   0.000000
     6  H    3.148290   2.114334   1.079175   2.270728   3.295991
     7  H    3.106496   3.234515   2.250031   1.078840   2.109171
     8  H    1.848809   1.228494   2.516618   3.362657   3.089580
     9  C    1.460418   2.304242   3.440080   3.518359   2.532850
    10  O    2.198363   2.312099   3.626313   4.157212   3.477767
    11  O    2.322666   3.424709   4.424292   4.186208   2.962773
                    6          7          8          9         10
     6  H    0.000000
     7  H    2.797180   0.000000
     8  H    3.116034   4.432338   0.000000
     9  C    4.388037   4.523537   1.928583   0.000000
    10  O    4.358634   5.227158   1.300985   1.280605   0.000000
    11  O    5.438088   5.066829   3.135265   1.209537   2.283065
                   11
    11  O    0.000000
 Stoichiometry    C3H3N3O2
 Framework group  C1[X(C3H3N3O2)]
 Deg. of freedom    27
 Full point group                 C1      NOp   1
 Largest Abelian subgroup         C1      NOp   1
 Largest concise Abelian subgroup C1      NOp   1
                         Standard orientation:                         
 ---------------------------------------------------------------------
 Center     Atomic      Atomic             Coordinates (Angstroms)
 Number     Number       Type             X           Y           Z
 ---------------------------------------------------------------------
      1          7           0       -0.023179   -0.192179    0.091975
      2          7           0       -0.613953    0.991050    0.047170
      3          6           0       -1.911372    0.746009   -0.037486
      4          6           0       -2.039276   -0.658735   -0.040385
      5          7           0       -0.830315   -1.216007    0.026869
      6          1           0       -2.656013    1.526432   -0.070163
      7          1           0       -2.934786   -1.256566   -0.107886
      8          1           0        0.457265    1.592441    0.042991
      9          6           0        1.429640   -0.072598    0.003435
     10          8           0        1.688777    1.180837   -0.037776
     11          8           0        2.127687   -1.059639   -0.034776
 ---------------------------------------------------------------------
 Rotational constants (GHZ):           5.3816159           1.8909113           1.4012446
 Standard basis: 6-31+G(d,p) (6D, 7F)
 There are   167 symmetry adapted cartesian basis functions of A   symmetry.
 There are   167 symmetry adapted basis functions of A   symmetry.
   167 basis functions,   277 primitive gaussians,   167 cartesian basis functions
    29 alpha electrons       29 beta electrons
       nuclear repulsion energy       367.7018551619 Hartrees.
 NAtoms=   11 NActive=   11 NUniq=   11 SFac= 1.00D+00 NAtFMM=   60 NAOKFM=F Big=F
 Integral buffers will be    131072 words long.
 Raffenetti 2 integral format.
 Two-electron integral symmetry is turned on.
 ------------------------------------------------------------------------------
 Polarizable Continuum Model (PCM)
 =================================
 Model                : PCM.
 Atomic radii         : SMD-Coulomb.
 Polarization charges : Total charges.
 Charge compensation  : None.
 Solution method      : Matrix inversion.
 Cavity type          : VdW (van der Waals Surface) (Alpha=1.000).
 Cavity algorithm     : GePol (No added spheres)
                        Default sphere list used, NSphG=   11.
                        Lebedev-Laikov grids with approx.  5.0 points / Ang**2.
                        Smoothing algorithm: York/Karplus (Gamma=1.0000).
                        Polarization charges: spherical gaussians, with
                                              point-specific exponents (IZeta= 3).
                        Self-potential: point-specific (ISelfS= 7).
                        Self-field    : sphere-specific E.n sum rule (ISelfD= 2).
 1st derivatives      : Analytical E(r).r(x)/FMM algorithm (CHGder, D1EAlg=3).
                        Cavity 1st derivative terms included.
 Solvent              : Water, Eps=  78.355300 Eps(inf)=   1.777849
 ------------------------------------------------------------------------------
 Spheres list:
 ISph  on   Nord     Re0    Alpha      Xe            Ye            Ze
    1   N      1    1.8900  1.000     -0.023179     -0.192179      0.091975
    2   N      2    1.8900  1.000     -0.613953      0.991050      0.047170
    3   C      3    1.8500  1.000     -1.911372      0.746009     -0.037486
    4   C      4    1.8500  1.000     -2.039276     -0.658735     -0.040385
    5   N      5    1.8900  1.000     -0.830315     -1.216007      0.026869
    6   H      6    1.2000  1.000     -2.656013      1.526432     -0.070163
    7   H      7    1.2000  1.000     -2.934786     -1.256566     -0.107886
    8   H      8    1.2000  1.000      0.457265      1.592441      0.042991
    9   C      9    1.8500  1.000      1.429640     -0.072598      0.003435
   10   O     10    1.5200  1.000      1.688777      1.180837     -0.037776
   11   O     11    1.5200  1.000      2.127687     -1.059639     -0.034776
 ------------------------------------------------------------------------------
 ------------------------------------------------------------------------------
 Atomic radii for non-electrostatic terms: SMD-CDS.
 ------------------------------------------------------------------------------
 Nuclear repulsion after PCM non-electrostatic terms =      367.7083422530 Hartrees.
 One-electron integrals computed using PRISM.
 NBasis=   167 RedAO= T EigKep=  2.75D-05  NBF=   167
 NBsUse=   167 1.00D-06 EigRej= -1.00D+00 NBFU=   167
 Initial guess from the checkpoint file:  "/scratch/gongke2021/1-H-Tz-opt/Gau-4138.chk"
 B after Tr=    -0.000000    0.000000   -0.000000
         Rot=    0.999990   -0.002146   -0.000148   -0.003840 Ang=  -0.50 deg.
 ExpMin= 4.38D-02 ExpMax= 5.48D+03 ExpMxC= 8.25D+02 IAcc=2 IRadAn=         4 AccDes= 0.00D+00
 Harris functional with IExCor= 1009 and IRadAn=       4 diagonalized for initial guess.
 HarFok:  IExCor= 1009 AccDes= 0.00D+00 IRadAn=         4 IDoV= 1 UseB2=F ITyADJ=14
 ICtDFT=  3500011 ScaDFX=  1.000000  1.000000  1.000000  1.000000
 FoFCou: FMM=F IPFlag=           0 FMFlag=      100000 FMFlg1=           0
         NFxFlg=           0 DoJE=T BraDBF=F KetDBF=T FulRan=T
         wScrn=  0.000000 ICntrl=       500 IOpCl=  0 I1Cent=   200000004 NGrid=           0
         NMat0=    1 NMatS0=      1 NMatT0=    0 NMatD0=    1 NMtDS0=    0 NMtDT0=    0
 Petite list used in FoFCou.
 Keep R1 ints in memory in canonical form, NReq=118249495.
 Requested convergence on RMS density matrix=1.00D-08 within 128 cycles.
 Requested convergence on MAX density matrix=1.00D-06.
 Requested convergence on             energy=1.00D-06.
 No special actions if energy rises.
 Inv3:  Mode=1 IEnd=     2934363.
 Iteration    1 A*A^-1 deviation from unit magnitude is 5.33D-15 for    244.
 Iteration    1 A*A^-1 deviation from orthogonality  is 3.14D-15 for    639     58.
 Iteration    1 A^-1*A deviation from unit magnitude is 3.77D-15 for    989.
 Iteration    1 A^-1*A deviation from orthogonality  is 1.43D-15 for    420    237.
 Error on total polarization charges =  0.03469
 SCF Done:  E(RM062X) =  -430.642299713     A.U. after   12 cycles
            NFock= 12  Conv=0.86D-08     -V/T= 2.0081
 SMD-CDS (non-electrostatic) energy       (kcal/mol) =       4.07
 (included in total energy above)
 D1PCM: PCM CHGder 1st derivatives, ID1Alg=3 FixD1E=F DoIter=F DoCFld=F I1PDM=0.
 Calling FoFJK, ICntrl=      2127 FMM=F ISym2X=0 I1Cent= 0 IOpClX= 0 NMat=1 NMatS=1 NMatT=0.
 ***** Axes restored to original set *****
[...]
   A18        3.50963   0.00009   0.00000   0.00144   0.00144   3.51107
   A19        3.13925   0.00001   0.00000   0.00233   0.00233   3.14158
    D1        0.00019   0.00001   0.00000  -0.00019  -0.00019   0.00000
    D2       -3.13907  -0.00000   0.00000  -0.00252  -0.00252  -3.14158
    D3        3.13831   0.00003   0.00000   0.00328   0.00328   3.14158
    D4       -0.00095   0.00001   0.00000   0.00094   0.00094  -0.00000
    D5       -0.00060   0.00000   0.00000   0.00060   0.00060   0.00000
    D6       -3.13767  -0.00002   0.00000  -0.00390  -0.00391  -3.14158
    D7        0.00124  -0.00003   0.00000  -0.00125  -0.00125  -0.00000
    D8       -3.14108   0.00002   0.00000  -0.00051  -0.00051   3.14159
    D9        3.13842  -0.00001   0.00000   0.00316   0.00316   3.14158
   D10       -0.00391   0.00004   0.00000   0.00389   0.00389  -0.00002
   D11        0.00030  -0.00002   0.00000  -0.00030  -0.00030  -0.00000
   D12        3.14159  -0.00001   0.00000   0.00000   0.00000   3.14159
   D13        0.00162  -0.00002   0.00000  -0.00161  -0.00161   0.00001
   D14       -3.13927  -0.00001   0.00000  -0.00231  -0.00231  -3.14158
   D15        0.00051   0.00001   0.00000  -0.00051  -0.00051   0.00001
   D16       -0.00068   0.00002   0.00000   0.00068   0.00068   0.00000
   D17       -3.14137  -0.00000   0.00000  -0.00023  -0.00023   3.14159
   D18        3.14125   0.00001   0.00000   0.00034   0.00034  -3.14159
   D19        0.00056  -0.00002   0.00000  -0.00056  -0.00056  -0.00000
   D20        0.00076  -0.00002   0.00000  -0.00076  -0.00076  -0.00000
   D21        3.14153   0.00001   0.00000   0.00006   0.00006  -3.14159
   D22        0.00024  -0.00002   0.00000  -0.00025  -0.00025  -0.00001
   D23       -0.00079   0.00003   0.00000   0.00079   0.00079   0.00000
   D24       -3.14149  -0.00003   0.00000  -0.00010  -0.00010  -3.14159
         Item               Value     Threshold  Converged?
 Maximum Force            0.000420     0.000450     YES
 RMS     Force            0.000082     0.000300     YES
 Maximum Displacement     0.004117     0.001800     NO 
 RMS     Displacement     0.001154     0.001200     YES
 Predicted change in Energy=-1.139949D-06
                           ----------------------------
                           ! Non-Optimized Parameters !
                           ! (Angstroms and Degrees)  !
 --------------------------                            --------------------------
 ! Name  Definition              Value          Derivative Info.                !
 --------------------------------------------------------------------------------
 ! R1    R(1,2)                  1.3217         -DE/DX =    0.0                 !
 ! R2    R(1,5)                  1.3049         -DE/DX =    0.0001              !
 ! R3    R(1,9)                  1.4877         -DE/DX =    0.0004              !
 ! R4    R(2,3)                  1.3238         -DE/DX =    0.0001              !
 ! R5    R(2,8)                  1.2195         -DE/DX =    0.0002              !
 ! R6    R(3,4)                  1.4077         -DE/DX =   -0.0001              !
 ! R7    R(3,6)                  1.0791         -DE/DX =    0.0                 !
 ! R8    R(4,5)                  1.3354         -DE/DX =    0.0                 !
 ! R9    R(4,7)                  1.0788         -DE/DX =    0.0                 !
 ! R10   R(8,10)                 1.3383         -DE/DX =   -0.0001              !
 ! R11   R(9,10)                 1.2722         -DE/DX =    0.0                 !
 ! R12   R(9,11)                 1.2096         -DE/DX =    0.0                 !
 ! A1    A(2,1,5)              114.4084         -DE/DX =   -0.0001              !
 ! A2    A(2,1,9)              111.2273         -DE/DX =   -0.0001              !
 ! A3    A(5,1,9)              134.3642         -DE/DX =    0.0002              !
 ! A4    A(1,2,3)              106.5881         -DE/DX =    0.0                 !
 ! A5    A(1,2,8)               94.5816         -DE/DX =    0.0001              !
 ! A6    A(2,3,4)              105.5422         -DE/DX =    0.0                 !
 ! A7    A(2,3,6)              122.9312         -DE/DX =    0.0                 !
 ! A8    A(4,3,6)              131.5266         -DE/DX =    0.0                 !
 ! A9    A(3,4,5)              109.492          -DE/DX =    0.0                 !
 ! A10   A(3,4,7)              128.9457         -DE/DX =    0.0                 !
 ! A11   A(5,4,7)              121.5623         -DE/DX =    0.0                 !
 ! A12   A(1,5,4)              103.9692         -DE/DX =    0.0001              !
 ! A13   A(2,8,10)             130.3263         -DE/DX =    0.0                 !
 ! A14   A(1,9,10)             106.2258         -DE/DX =   -0.0001              !
 ! A15   A(1,9,11)             119.5605         -DE/DX =    0.0                 !
 ! A16   A(10,9,11)            134.2137         -DE/DX =    0.0                 !
 ! A17   A(8,10,9)              97.639          -DE/DX =    0.0001              !
 ! A18   L(3,2,8,1,-1)         201.1696         -DE/DX =    0.0001              !
 ! A19   L(3,2,8,1,-2)         179.9995         -DE/DX =    0.0                 !
 ! D1    D(5,1,2,3)              0.0            -DE/DX =    0.0                 !
 ! D2    D(5,1,2,8)           -179.9995         -DE/DX =    0.0                 !
 ! D3    D(9,1,2,3)            179.9995         -DE/DX =    0.0                 !
 ! D4    D(9,1,2,8)              0.0            -DE/DX =    0.0                 !
 ! D5    D(2,1,5,4)              0.0            -DE/DX =    0.0                 !
 ! D6    D(9,1,5,4)           -179.9993         -DE/DX =    0.0                 !
 ! D7    D(2,1,9,10)            -0.0002         -DE/DX =    0.0                 !
 ! D8    D(2,1,9,11)           179.9997         -DE/DX =    0.0                 !
 ! D9    D(5,1,9,10)           179.9991         -DE/DX =    0.0                 !
 ! D10   D(5,1,9,11)            -0.001          -DE/DX =    0.0                 !
 ! D11   D(1,2,3,4)             -0.0001         -DE/DX =    0.0                 !
 ! D12   D(1,2,3,6)            180.0            -DE/DX =    0.0                 !
 ! D13   D(4,3,8,10)             0.0005         -DE/DX =    0.0                 !
 ! D14   D(6,3,8,10)          -179.9993         -DE/DX =    0.0                 !
 ! D15   D(1,2,8,10)             0.0003         -DE/DX =    0.0                 !
 ! D16   D(2,3,4,5)              0.0001         -DE/DX =    0.0                 !
 ! D17   D(2,3,4,7)            180.0            -DE/DX =    0.0                 !
 ! D18   D(6,3,4,5)           -180.0            -DE/DX =    0.0                 !
 ! D19   D(6,3,4,7)             -0.0001         -DE/DX =    0.0                 !
 ! D20   D(3,4,5,1)              0.0            -DE/DX =    0.0                 !
 ! D21   D(7,4,5,1)           -180.0            -DE/DX =    0.0                 !
 ! D22   D(2,8,10,9)            -0.0004         -DE/DX =    0.0                 !
 ! D23   D(1,9,10,8)             0.0003         -DE/DX =    0.0                 !
 ! D24   D(11,9,10,8)         -179.9996         -DE/DX =    0.0                 !
 --------------------------------------------------------------------------------
 GradGradGradGradGradGradGradGradGradGradGradGradGradGradGradGradGradGrad


 ----------------------------------------------------------------------

 Electric dipole moment (input orientation):
 (Debye = 10**-18 statcoulomb cm , SI units = C m)
                  (au)            (Debye)         (10**-30 SI)
   Tot        0.408680D+01      0.103876D+02      0.346493D+02
   x         -0.378937D+01     -0.963163D+01     -0.321277D+02
   y          0.152878D+01      0.388577D+01      0.129615D+02
   z         -0.732668D-01     -0.186226D+00     -0.621182D+00

 Dipole polarizability, Alpha (input orientation).
 (esu units = cm**3 , SI units = C**2 m**2 J**-1)
 Alpha(0;0):
               (au)            (10**-24 esu)      (10**-40 SI)
   iso        0.810409D+02      0.120090D+02      0.133618D+02
   aniso      0.591834D+02      0.877008D+01      0.975803D+01
   xx         0.109926D+03      0.162893D+02      0.181243D+02
   yx        -0.550794D+01     -0.816193D+00     -0.908137D+00
   yy         0.891764D+02      0.132146D+02      0.147032D+02
   zx         0.130932D+01      0.194022D+00      0.215878D+00
   zy        -0.754884D-01     -0.111862D-01     -0.124464D-01
   zz         0.440207D+02      0.652319D+01      0.725803D+01

 ----------------------------------------------------------------------

 Dipole orientation:
     7         -0.15037601         -0.35356389         -0.10772199
     7          0.48571966          1.19052041          1.74996984
     6         -0.01569697         -0.01556306          3.88327364
     6         -0.99179226         -2.38044261          3.15291233
     7         -1.05014917         -2.52623631          0.63451410
     1          0.31883707          0.79914407          5.72247327
     1         -1.63024897         -3.92059993          4.32603665
     1          1.18159700          2.88322609          0.34892125
     6          0.32790196          0.81791361         -2.61492805
     8          1.22899992          3.00361053         -2.17569089
     8         -0.15584929         -0.35238233         -4.51808904

 Electric dipole moment (dipole orientation):
 (Debye = 10**-18 statcoulomb cm , SI units = C m)
                  (au)            (Debye)         (10**-30 SI)
   Tot        0.408680D+01      0.103876D+02      0.346493D+02
   x          0.000000D+00      0.000000D+00      0.000000D+00
   y          0.000000D+00      0.000000D+00      0.000000D+00
   z          0.408680D+01      0.103876D+02      0.346493D+02

 Dipole polarizability, Alpha (dipole orientation).
 (esu units = cm**3 , SI units = C**2 m**2 J**-1)
 Alpha(0;0):
               (au)            (10**-24 esu)      (10**-40 SI)
   iso        0.810409D+02      0.120090D+02      0.133618D+02
   aniso      0.591834D+02      0.877008D+01      0.975803D+01
   xx         0.504444D+02      0.747508D+01      0.831715D+01
   yx         0.156176D+02      0.231429D+01      0.257499D+01
   yy         0.818120D+02      0.121233D+02      0.134890D+02
   zx        -0.125303D+01     -0.185680D+00     -0.206597D+00
   zy        -0.298856D+01     -0.442859D+00     -0.492747D+00
   zz         0.110866D+03      0.164287D+02      0.182794D+02

 ----------------------------------------------------------------------
 1\1\GINC-NODE2\Freq\RM062X\6-31+G(d,p)\C3H3N3O2\GONGKE2021\01-Jul-2023
 \0\\#N Geom=AllCheck Guess=TCheck SCRF=Check GenChk RM062X/6-31+G(d,p)
  Freq\\"Sketch 2"\\0,1\N,-0.0231369372,-0.2098674922,-0.0027731333\N,-
 0.6041281174,0.9774217164,-0.0139437295\C,-1.9093326858,0.7587124075,-
 0.0414615356\C,-2.0573000483,-0.6414194254,-0.0453325741\N,-0.85270347
 83,-1.2170099663,-0.0212140532\H,-2.6374469582,1.5550064238,-0.0560397
 66\H,-2.9628481853,-1.2274067548,-0.0648509511\H,0.4455505188,1.598245
 0746,0.0057137801\C,1.4575356839,-0.0852014101,0.0237888835\O,1.709915
 367,1.1619758297,0.0290930371\O,2.1407391108,-1.0834026232,0.036148252
 \\Version=ES64L-G16RevA.03\State=1-A\HF=-430.6430491\RMSD=1.788e-09\RM
 SF=1.336e-04\ZeroPoint=0.0706283\Thermal=0.0762116\Dipole=-3.7893749,1
 .5287814,-0.0732668\DipoleDeriv=-2.1637158,0.1604746,-0.044433,-0.0861
 638,0.1734094,-0.0009967,-0.0454397,0.0039025,0.0726934,-0.5002343,-0.
 413443,-0.0060174,-0.8549561,-0.6329094,-0.0181086,-0.005723,-0.009803
 8,-0.1414534,-0.2112342,0.1877972,-0.0046981,-0.5264775,0.3920583,-0.0
 102851,-0.0049813,0.0047867,0.0341929,-0.2245974,0.1295196,-0.0026927,
 0.6549008,0.0758508,0.0135197,-0.0027304,0.0026895,-0.0719795,0.492864
 4,-0.1123993,0.0148518,0.3918931,-0.4077124,0.0079583,0.0164186,-0.002
 5268,-0.209861,0.2144908,-0.0361148,-0.0002986,-0.0108754,0.1775495,-0
 .0002594,-0.0002403,-0.0008565,0.2261967,0.150342,-0.0001807,-0.001334
 2,-0.036429,0.1396621,-0.0008019,-0.001567,-0.0001135,0.215131,1.90655
 63,0.0773654,0.0285415,0.1268948,0.5133717,0.0026249,0.0281208,0.00199
 28,0.401828,3.6384928,-0.4327458,0.0580159,-0.5410043,3.1370603,-0.008
 9675,0.0569025,-0.0071364,0.5744322,-1.7351778,-0.2101602,-0.0228401,0
 .0691262,-1.9217577,0.0004629,-0.0220649,-0.004729,-0.5495343,-1.56778
 67,0.6498869,-0.0190951,0.8130912,-1.6465827,0.0148534,-0.0186954,0.01
 17945,-0.5516458\Polar=109.9255379,-5.5079419,89.1763533,1.3093225,-0.
 0754884,44.0206959\Quadrupole=0.5164203,-1.3382685,0.8218482,-0.175078
 9,0.0080939,-0.0047573\PG=C01 [X(C3H3N3O2)]\NImag=1\\0.75633667,0.0397
 4735,0.77656269,0.01264622,0.00133787,0.11103418,-0.12951096,0.1082173
 5,-0.00078925,0.78989487,0.04856936,-0.28663956,0.00077173,0.05971077,
 0.60905792,-0.00095494,0.00224854,-0.07741967,0.01356045,0.00142186,0.
 12294986,-0.13262280,0.06629150,-0.00306693,-0.39918844,-0.04912629,-0
 .00697209,0.81224309,-0.00222703,-0.02755226,-0.00016965,-0.05042599,-
 0.13743515,-0.00098571,-0.17939024,0.75020735,-0.00306942,0.00133204,0
 .01385801,-0.00698156,-0.00100348,-0.06557057,0.01387175,-0.00335843,0
 .14046879,-0.11578512,-0.04519179,-0.00270727,-0.01050081,-0.02366834,
 -0.00044946,-0.12710828,-0.04501208,-0.00116800,0.82943615,0.03596790,
 -0.00437614,0.00085485,-0.12569668,-0.01848446,-0.00268650,0.00271688,
 -0.30566831,-0.00006061,0.14289011,0.67337079,-0.00264435,-0.00092752,
 0.01166878,-0.00062826,-0.00053864,0.01363322,-0.00110122,-0.00104666,
 -0.07338771,0.01430552,0.00343839,0.14492907,-0.17214888,-0.16060489,-
 0.00213061,-0.06455958,-0.02598934,-0.00196325,0.02498715,0.10571797,0
 .00019772,-0.32042759,0.10577368,-0.00498406,0.56700072,-0.06949915,-0
 .27285742,-0.00169908,-0.01319642,-0.11790571,-0.00042740,0.01482689,-
 0.03857568,0.00024451,0.10781272,-0.17580122,0.00206615,-0.02026818,0.
 58250189,-0.00216906,-0.00370848,-0.06748585,-0.00192554,-0.00062432,0
 .02507031,0.00015073,0.00216566,0.02034501,-0.00494796,0.00198723,-0.0
 7212607,0.00942110,0.00014989,0.10469681,-0.00363988,-0.00379294,-0.00
 025622,-0.01577348,0.02436051,-0.00022760,-0.19663623,0.15420794,-0.00
 327675,0.01106407,-0.00427035,0.00020803,0.00157010,-0.00412468,-0.000
 08584,0.20448185,-0.00609141,0.00002324,-0.00013223,-0.00874542,0.0131
 3621,-0.00017020,0.16541021,-0.24024680,0.00331853,0.01546560,-0.00257
 470,0.00031651,0.00161012,-0.00430926,0.00002812,-0.16784892,0.2328294
 5,-0.00025496,-0.00010111,0.00893353,-0.00027610,0.00051310,-0.0039150
 3,-0.00324212,0.00308424,-0.03467364,0.00021275,-0.00008500,0.00099368
 ,-0.00007149,-0.00008280,0.00536521,0.00362086,-0.00336617,0.02527513,
 -0.00362012,0.00242955,-0.00023843,0.00152909,0.00294592,-0.00008758,0
 .00719328,0.00336256,0.00014940,-0.27825690,-0.14467581,-0.00524517,-0
 .01766137,-0.01471159,-0.00024295,-0.00033858,-0.00041130,0.00002475,0
 .29097264,0.00713289,0.00041076,0.00013189,-0.00258079,-0.00628740,-0.
 00005651,-0.01982502,-0.00239161,-0.00042126,-0.15323999,-0.15947531,-
 0.00332304,0.01540045,0.01305376,0.00034305,0.00042172,0.00016308,0.00
 001044,0.15246839,0.15222566,-0.00024650,0.00004562,0.00861118,-0.0000
 8238,0.00004376,0.00558204,0.00013134,0.00006791,0.00019478,-0.0052735
 3,-0.00316351,-0.03404044,-0.00020072,-0.00026547,-0.00689999,0.000025
 15,-0.00000711,-0.00151593,0.00567931,0.00331185,0.02623994,-0.0051709
 2,-0.03337258,-0.00015088,0.00637836,-0.03772539,0.00060464,-0.0176564
 0,0.01286814,-0.00029895,-0.00056270,0.00998529,-0.00007304,0.01027137
 ,0.02133353,0.00021431,-0.00062179,0.00024871,0.00001395,-0.00092393,0
 .00236007,-0.00003033,-0.06191955,-0.02327431,-0.04067388,-0.00043951,
 -0.02537828,-0.06895369,-0.00042493,-0.00062066,0.00595558,-0.00003806
 ,0.00350714,-0.00010881,0.00008114,0.00190979,-0.00209233,0.00003161,-
 0.00000428,-0.00003716,-0.00000011,-0.00029288,0.00062729,-0.00000293,
 0.03420298,0.15729598,-0.00013945,-0.00062421,0.00270582,0.00061224,-0
 .00062917,-0.02776640,-0.00024892,0.00018401,-0.00510070,-0.00013216,0
 .00019817,0.00454123,0.00015898,0.00040025,0.00252986,0.00002266,0.000
 00618,-0.00166737,-0.00003405,0.00004044,0.00085183,-0.00198308,0.0006
 5064,0.04699399,-0.07876083,0.02237212,-0.00063076,-0.06953992,0.02843
 876,-0.00121243,0.03216274,0.01641898,0.00064789,0.02779097,-0.0261761
 7,0.00046699,-0.03292317,-0.03204395,-0.00040778,0.00006182,0.00117575
 ,-0.00003669,0.00136980,-0.00140818,-0.00001374,0.03701595,0.02589223,
 0.00071443,0.48554655,-0.00722749,-0.09984696,-0.00018206,-0.01041212,
 0.00272447,-0.00019287,0.00832695,-0.01010689,0.00017038,-0.00096440,-
 0.01073078,-0.00005173,-0.02665000,0.00332350,-0.00046411,0.00121082,0
 .00088047,0.00003302,-0.00036555,0.00034502,-0.00001448,0.08120719,-0.
 02277328,0.00149534,-0.24263560,1.00250621,-0.00047017,0.00032745,-0.0
 4216936,-0.00125228,0.00058418,-0.00557734,0.00058191,0.00035119,0.002
 29935,0.00041972,-0.00056796,0.00527819,-0.00039870,-0.00056153,-0.018
 36888,-0.00004517,0.00002019,0.00200757,-0.00003251,-0.00002458,0.0024
 4851,0.00072652,0.00046149,-0.00082338,0.00502783,-0.00418436,0.207714
 92,-0.04945092,-0.04292842,-0.00123135,-0.10504650,-0.01842107,-0.0021
 8510,0.00567764,-0.01434243,0.00012025,-0.00917521,-0.00382665,-0.0001
 8385,-0.00571451,0.00299316,-0.00019163,0.00033663,-0.00006757,0.00000
 856,-0.00000656,-0.00084279,0.00001111,0.03369036,-0.01189539,0.001105
 69,-0.12573627,-0.07615434,-0.00095195,0.23155920,-0.05817390,-0.04361
 296,-0.00109366,0.05575545,0.00502890,0.00104392,-0.01200763,0.0013839
 7,-0.00025773,-0.00632928,0.00667493,-0.00011767,0.00556204,0.01529249
 ,0.00015135,-0.00015501,-0.00018950,-0.00000519,-0.00083741,0.00132460
 ,-0.00001844,-0.06341486,-0.02990626,-0.00120913,-0.07040885,-0.381782
 87,-0.00143679,0.12199800,0.54277651,-0.00123378,-0.00076040,0.0158189
 3,-0.00213060,-0.00037048,0.01017018,0.00006799,-0.00026405,0.00140048
 ,-0.00014750,-0.00005755,-0.00115190,-0.00019067,0.00004699,0.00547180
 ,0.00000659,-0.00000115,-0.00000556,0.00002412,-0.00001435,-0.00111541
 ,0.00105673,-0.00024557,-0.02571305,-0.00094485,-0.00156578,-0.0759311
 1,0.00346044,0.00248443,0.04823518,-0.06562622,0.04683275,-0.00144451,
 -0.00368263,-0.00909488,-0.00011264,-0.00905174,-0.00117783,-0.0001923
 4,-0.00647458,0.00731179,-0.00012059,0.00960575,0.00687769,0.00018463,
 -0.00050452,-0.00074577,0.00000048,-0.00025734,0.00011324,0.00000028,-
 0.00050075,-0.00404634,-0.00007634,-0.27698763,0.27366453,-0.00360518,
 0.02386614,0.02801146,0.00003154,0.32961350,0.03507579,-0.00143750,0.0
 0061985,0.01275213,0.00575847,0.00022981,0.00339741,0.00442981,0.00007
 410,0.00473030,-0.00282598,0.00010306,-0.00246164,-0.00263002,-0.00006
 000,-0.00000480,0.00032497,-0.00000042,0.00008811,0.00000416,0.0000028
 0,-0.02769307,0.00066655,-0.00051253,0.27837492,-0.48453888,0.00503073
 ,0.04348751,-0.11698982,0.00074791,-0.34774665,0.59723825,-0.00146357,
 0.00083019,0.01444445,-0.00010672,-0.00016853,0.00284338,-0.00017245,-
 0.00002850,0.00016620,-0.00011210,0.00014250,-0.00033805,0.00016170,0.
 00012850,0.00140178,0.00000831,-0.00001265,-0.00079760,0.00000310,0.00
 000205,-0.00035651,-0.00007986,-0.00007378,0.00344818,-0.00361090,0.00
 495665,-0.07687847,0.00003784,0.00045891,0.02282046,0.00533466,-0.0062
 3533,0.03324617\\0.00024076,0.00010206,0.00007298,0.00010725,0.0002405
 4,0.00006443,0.00004297,0.00014513,-0.00007302,0.00004323,-0.00006125,
 0.00006613,0.00012639,-0.00012044,-0.00003010,0.00001895,0.00002932,-0
 .00000145,-0.00001583,0.00002759,-0.00001759,-0.00023175,-0.00019454,-
 0.00001312,-0.00046178,-0.00008478,-0.00015401,0.00015920,-0.00005653,
 0.00004098,-0.00002938,-0.00002710,0.00004476\\\@


 FLOATING POINT NUMBERS ARE LIKE SANDPILES:
 EVERY TIME THAT YOU MOVE ONE, YOU LOSE A LITTLE SAND 
 AND YOU PICK UP A LITTLE DIRT.
 Job cpu time:       0 days  0 hours 27 minutes  8.2 seconds.
 Elapsed time:       0 days  0 hours  1 minutes 22.2 seconds.
 File lengths (MBytes):  RWF=     57 Int=      0 D2E=      0 Chk=      8 Scr=      1
 Normal termination of Gaussian 16 at Sat Jul  1 02:53:58 2023.
