 Entering Gaussian System, Link 0=/opt/soft/g16/g16
 Initial command:
 /opt/soft/g16/l1.exe "/scratch/gongke2021/2-H-1-H-Tz-2-TS/Gau-32208.inp" -scrdir="/scratch/gongke2021/2-H-1-H-Tz-2-TS/"
 Entering Link 1 = /opt/soft/g16/l1.exe PID=     32209.
  
 Copyright (c) 1988,1990,1992,1993,1995,1998,2003,2009,2016,
            Gaussian, Inc.  All Rights Reserved.
  
 This is part of the Gaussian(R) 16 program.  It is based on
 the Gaussian(R) 09 system (copyright 2009, Gaussian, Inc.),
 the Gaussian(R) 03 system (copyright 2003, Gaussian, Inc.),
 the Gaussian(R) 98 system (copyright 1998, Gaussian, Inc.),
 the Gaussian(R) 94 system (copyright 1995, Gaussian, Inc.),
 the Gaussian 92(TM) system (copyright 1992, Gaussian, Inc.),
 the Gaussian 90(TM) system (copyright 1990, Gaussian, Inc.),
 the Gaussian 88(TM) system (copyright 1988, Gaussian, Inc.),
 the Gaussian 86(TM) system (copyright 1986, Carnegie Mellon
 University), and the Gaussian 82(TM) system (copyright 1983,
 Carnegie Mellon University). Gaussian is a federally registered
 trademark of Gaussian, Inc.
  
 This software contains proprietary and confidential information,
 including trade secrets, belonging to Gaussian, Inc.
  
 This software is provided under written license and may be
 used, copied, transmitted, or stored only in accord with that
 written license.
  
 The following legend is applicable only to US Government
 contracts under FAR:
  
                    RESTRICTED RIGHTS LEGEND
  
 Use, reproduction and disclosure by the US Government is
 subject to restrictions as set forth in subparagraphs (a)
 and (c) of the Commercial Computer Software - Restricted
 Rights clause in FAR 52.227-19.
  
 Gaussian, Inc.
 340 Quinnipiac St., Bldg. 40, Wallingford CT 06492
  
  
 ---------------------------------------------------------------
 Warning -- This program may not be used in any manner that
 competes with the business of Gaussian, Inc. or will provide
 assistance to any competitor of Gaussian, Inc.  The licensee
 of this program is prohibited from giving any competitor of
 Gaussian, Inc. access to this program.  By using this program,
 the user acknowledges that Gaussian, Inc. is engaged in the
 business of creating and licensing software in the field of
 computational chemistry and represents and warrants to the
 licensee that it is not a competitor of Gaussian, Inc. and that
 it will not use this program in any manner prohibited above.
 ---------------------------------------------------------------
  

 Cite this work as:
 Gaussian 16, Revision A.03,
 M. J. Frisch, G. W. Trucks, H. B. Schlegel, G. E. Scuseria, 
 M. A. Robb, J. R. Cheeseman, G. Scalmani, V. Barone, 
 G. A. Petersson, H. Nakatsuji, X. Li, M. Caricato, A. V. Marenich, 
 J. Bloino, B. G. Janesko, R. Gomperts, B. Mennucci, H. P. Hratchian, 
 J. V. Ortiz, A. F. Izmaylov, J. L. Sonnenberg, D. Williams-Young, 
 F. Ding, F. Lipparini, F. Egidi, J. Goings, B. Peng, A. Petrone, 
 T. Henderson, D. Ranasinghe, V. G. Zakrzewski, J. Gao, N. Rega, 
 G. Zheng, W. Liang, M. Hada, M. Ehara, K. Toyota, R. Fukuda, 
 J. Hasegawa, M. Ishida, T. Nakajima, Y. Honda, O. Kitao, H. Nakai, 
 T. Vreven, K. Throssell, J. A. Montgomery, Jr., J. E. Peralta, 
 F. Ogliaro, M. J. Bearpark, J. J. Heyd, E. N. Brothers, K. N. Kudin, 
 V. N. Staroverov, T. A. Keith, R. Kobayashi, J. Normand, 
 K. Raghavachari, A. P. Rendell, J. C. Burant, S. S. Iyengar, 
 J. Tomasi, M. Cossi, J. M. Millam, M. Klene, C. Adamo, R. Cammi, 
 J. W. Ochterski, R. L. Martin, K. Morokuma, O. Farkas, 
 J. B. Foresman, and D. J. Fox, Gaussian, Inc., Wallingford CT, 2016.
 
 ******************************************
 Gaussian 16:  ES64L-G16RevA.03 25-Dec-2016
                13-May-2023 
 ******************************************
 %mem=10GB
 %nprocshared=24
 Will use up to   24 processors via shared memory.
 ----------------------------------------------------------------------
 # opt=(calcfc,ts,noeigentest) freq 6-31+g(d,p) scrf=(smd,solvent=water
 ) integral=grid=ultrafine m062x
 ----------------------------------------------------------------------
 1/5=1,10=4,11=1,18=20,26=6,38=1/1,3;
 2/9=110,12=2,17=6,18=5,40=1/2;
 3/5=1,6=6,7=111,11=2,25=1,30=1,70=32201,71=2,72=1,74=-55,75=-5,140=1/1,2,3;
 4//1;
 5/5=2,38=5,53=1/2;
 8/6=4,10=90,11=11/1;
 11/6=1,8=1,9=11,15=111,16=1/1,2,10;
 10/6=1,13=1/2;
 6/7=2,8=2,9=2,10=2,28=1/1;
 7/10=1,18=20,25=1/1,2,3,16;
 1/5=1,10=4,11=1,18=20,26=6/3(2);
 2/9=110/2;
 99//99;
 2/9=110/2;
 3/5=1,6=6,7=111,11=2,25=1,30=1,70=32205,71=1,72=1,74=-55,75=-5/1,2,3;
 4/5=5,16=3,69=1/1;
 5/5=2,38=5,53=1/2;
 7//1,2,3,16;
 1/5=1,11=1,18=20,26=6/3(-5);
 2/9=110/2;
 6/7=2,8=2,9=2,10=2,19=2,28=1/1;
 99/9=1/99;
 ----------
 2-H-1-H-Tz
 ----------
 Symbolic Z-matrix:
 Charge =  1 Multiplicity = 1
 N                     0.79066  -0.76933  -0.06848 
 N                     2.10943  -0.82222  -0.02191 
 C                     2.57392   0.42302   0.04566 
 C                     1.43839   1.22875   0.03577 
 N                     0.35149   0.44945  -0.03573 
 H                     3.62965   0.64163   0.09416 
 H                     1.36291   2.30342   0.07587 
 H                     2.60542  -1.71636  -0.03686 
 H                    -0.11006  -1.64218  -0.15511 
 C                    -1.17732  -0.01117   0.15067 
 O                    -1.35953  -1.27886   0.16007 
 O                    -2.0795    0.92893   0.02112 
 
 Add virtual bond connecting atoms H9         and N1         Dist= 2.38D+00.
 Add virtual bond connecting atoms H9         and O11        Dist= 2.53D+00.

 GradGradGradGradGradGradGradGradGradGradGradGradGradGradGradGradGradGrad
 Berny optimization.
 Initialization pass.
                           ----------------------------
                           !    Initial Parameters    !
                           ! (Angstroms and Degrees)  !
 --------------------------                            --------------------------
 ! Name  Definition              Value          Derivative Info.                !
 --------------------------------------------------------------------------------
 ! R1    R(1,2)                  1.3207         calculate D2E/DX2 analytically  !
 ! R2    R(1,5)                  1.2959         calculate D2E/DX2 analytically  !
 ! R3    R(1,9)                  1.2572         calculate D2E/DX2 analytically  !
 ! R4    R(2,3)                  1.3308         calculate D2E/DX2 analytically  !
 ! R5    R(2,8)                  1.0226         calculate D2E/DX2 analytically  !
 ! R6    R(3,4)                  1.3924         calculate D2E/DX2 analytically  !
 ! R7    R(3,6)                  1.0792         calculate D2E/DX2 analytically  !
 ! R8    R(4,5)                  1.3393         calculate D2E/DX2 analytically  !
 ! R9    R(4,7)                  1.0781         calculate D2E/DX2 analytically  !
 ! R10   R(5,10)                 1.6075         calculate D2E/DX2 analytically  !
 ! R11   R(9,11)                 1.3389         calculate D2E/DX2 analytically  !
 ! R12   R(10,11)                1.2808         calculate D2E/DX2 analytically  !
 ! R13   R(10,12)                1.3094         calculate D2E/DX2 analytically  !
 ! A1    A(2,1,5)              112.0357         calculate D2E/DX2 analytically  !
 ! A2    A(2,1,9)              133.6317         calculate D2E/DX2 analytically  !
 ! A3    A(5,1,9)              114.3241         calculate D2E/DX2 analytically  !
 ! A4    A(1,2,3)              108.2315         calculate D2E/DX2 analytically  !
 ! A5    A(1,2,8)              121.2551         calculate D2E/DX2 analytically  !
 ! A6    A(3,2,8)              130.5131         calculate D2E/DX2 analytically  !
 ! A7    A(2,3,4)              104.8601         calculate D2E/DX2 analytically  !
 ! A8    A(2,3,6)              122.2269         calculate D2E/DX2 analytically  !
 ! A9    A(4,3,6)              132.9131         calculate D2E/DX2 analytically  !
 ! A10   A(3,4,5)              108.9963         calculate D2E/DX2 analytically  !
 ! A11   A(3,4,7)              129.3218         calculate D2E/DX2 analytically  !
 ! A12   A(5,4,7)              121.6819         calculate D2E/DX2 analytically  !
 ! A13   A(1,5,4)              105.8765         calculate D2E/DX2 analytically  !
 ! A14   A(1,5,10)              93.1953         calculate D2E/DX2 analytically  !
 ! A15   A(4,5,10)             158.7999         calculate D2E/DX2 analytically  !
 ! A16   A(1,9,11)             117.6434         calculate D2E/DX2 analytically  !
 ! A17   A(5,10,11)            114.8198         calculate D2E/DX2 analytically  !
 ! A18   A(5,10,12)            115.9807         calculate D2E/DX2 analytically  !
 ! A19   A(11,10,12)           127.8318         calculate D2E/DX2 analytically  !
 ! A20   A(9,11,10)             97.7068         calculate D2E/DX2 analytically  !
 ! D1    D(5,1,2,3)              0.0172         calculate D2E/DX2 analytically  !
 ! D2    D(5,1,2,8)            179.826          calculate D2E/DX2 analytically  !
 ! D3    D(9,1,2,3)            178.8668         calculate D2E/DX2 analytically  !
 ! D4    D(9,1,2,8)             -1.3244         calculate D2E/DX2 analytically  !
 ! D5    D(2,1,5,4)             -0.0025         calculate D2E/DX2 analytically  !
 ! D6    D(2,1,5,10)          -170.6421         calculate D2E/DX2 analytically  !
 ! D7    D(9,1,5,4)           -179.0888         calculate D2E/DX2 analytically  !
 ! D8    D(9,1,5,10)            10.2716         calculate D2E/DX2 analytically  !
 ! D9    D(2,1,9,11)           163.3632         calculate D2E/DX2 analytically  !
 ! D10   D(5,1,9,11)           -17.807          calculate D2E/DX2 analytically  !
 ! D11   D(1,2,3,4)             -0.0235         calculate D2E/DX2 analytically  !
 ! D12   D(1,2,3,6)            179.9589         calculate D2E/DX2 analytically  !
 ! D13   D(8,2,3,4)           -179.8085         calculate D2E/DX2 analytically  !
 ! D14   D(8,2,3,6)              0.1739         calculate D2E/DX2 analytically  !
 ! D15   D(2,3,4,5)              0.0225         calculate D2E/DX2 analytically  !
 ! D16   D(2,3,4,7)           -179.9707         calculate D2E/DX2 analytically  !
 ! D17   D(6,3,4,5)           -179.9572         calculate D2E/DX2 analytically  !
 ! D18   D(6,3,4,7)              0.0496         calculate D2E/DX2 analytically  !
 ! D19   D(3,4,5,1)             -0.0125         calculate D2E/DX2 analytically  !
 ! D20   D(3,4,5,10)           153.3043         calculate D2E/DX2 analytically  !
 ! D21   D(7,4,5,1)            179.9813         calculate D2E/DX2 analytically  !
 ! D22   D(7,4,5,10)           -26.7019         calculate D2E/DX2 analytically  !
 ! D23   D(1,5,10,11)           -1.5413         calculate D2E/DX2 analytically  !
 ! D24   D(1,5,10,12)         -169.2588         calculate D2E/DX2 analytically  !
 ! D25   D(4,5,10,11)         -155.9087         calculate D2E/DX2 analytically  !
 ! D26   D(4,5,10,12)           36.3738         calculate D2E/DX2 analytically  !
 ! D27   D(1,9,11,10)           14.2557         calculate D2E/DX2 analytically  !
 ! D28   D(5,10,11,9)           -6.6572         calculate D2E/DX2 analytically  !
 ! D29   D(12,10,11,9)         159.3308         calculate D2E/DX2 analytically  !
 --------------------------------------------------------------------------------
 Trust Radius=3.00D-01 FncErr=5.00D-06 GrdErr=5.00D-06 EigMax=2.50D+02 EigMin=1.00D-04
 Number of steps in this run=     72 maximum allowed number of steps=    100.
 Search for a saddle point of order  1.
 GradGradGradGradGradGradGradGradGradGradGradGradGradGradGradGradGradGrad

                          Input orientation:                          
 ---------------------------------------------------------------------
 Center     Atomic      Atomic             Coordinates (Angstroms)
 Number     Number       Type             X           Y           Z
 ---------------------------------------------------------------------
      1          7           0        0.790656   -0.769328   -0.068484
      2          7           0        2.109426   -0.822224   -0.021909
      3          6           0        2.573922    0.423022    0.045655
      4          6           0        1.438385    1.228747    0.035770
      5          7           0        0.351489    0.449451   -0.035734
      6          1           0        3.629649    0.641632    0.094159
      7          1           0        1.362911    2.303420    0.075873
      8          1           0        2.605424   -1.716361   -0.036858
      9          1           0       -0.110057   -1.642184   -0.155112
     10          6           0       -1.177321   -0.011166    0.150672
     11          8           0       -1.359532   -1.278857    0.160071
     12          8           0       -2.079496    0.928927    0.021117
 ---------------------------------------------------------------------
                    Distance matrix (angstroms):
                    1          2          3          4          5
     1  N    0.000000
     2  N    1.320652   0.000000
     3  C    2.148200   1.330774   0.000000
     4  C    2.103028   2.158728   1.392385   0.000000
     5  N    1.295902   2.169721   2.224080   1.339313   0.000000
     6  H    3.174451   2.113628   1.079214   2.269306   3.286356
     7  H    3.128913   3.215042   2.236819   1.078066   2.114860
     8  H    2.047255   1.022604   2.141205   3.168740   3.125854
     9  H    1.257246   2.369849   3.392511   3.267470   2.145277
    10  C    2.120323   3.389735   3.777747   2.896982   1.607537
    11  O    2.221524   3.503613   4.287371   3.759238   2.439874
    12  O    3.336146   4.540424   4.680902   3.530665   2.478471
                    6          7          8          9         10
     6  H    0.000000
     7  H    2.810689   0.000000
     8  H    2.574167   4.208941   0.000000
     9  H    4.389004   4.217912   2.719067   0.000000
    10  C    4.851422   3.437395   4.153554   1.973012   0.000000
    11  O    5.346453   4.500167   3.993879   1.338856   1.280754
    12  O    5.716836   3.707074   5.380463   3.243510   1.309382
                   11         12
    11  O    0.000000
    12  O    2.326363   0.000000
 Stoichiometry    C3H4N3O2(1+)
 Framework group  C1[X(C3H4N3O2)]
 Deg. of freedom    30
 Full point group                 C1      NOp   1
 Largest Abelian subgroup         C1      NOp   1
 Largest concise Abelian subgroup C1      NOp   1
                         Standard orientation:                         
 ---------------------------------------------------------------------
 Center     Atomic      Atomic             Coordinates (Angstroms)
 Number     Number       Type             X           Y           Z
 ---------------------------------------------------------------------
      1          7           0       -0.444137   -0.754317    0.093528
      2          7           0       -1.760523   -0.831497    0.020777
      3          6           0       -2.246337    0.404909   -0.058225
      4          6           0       -1.126192    1.231373   -0.027136
      5          7           0       -0.026830    0.472277    0.067387
      6          1           0       -3.304718    0.604019   -0.128143
      7          1           0       -1.069655    2.307194   -0.067622
      8          1           0       -2.240238   -1.734574    0.027416
      9          1           0        0.470525   -1.610357    0.199627
     10          6           0        1.513586    0.039564   -0.087705
     11          8           0        1.719168   -1.224577   -0.091235
     12          8           0        2.395603    0.996253    0.058144
 ---------------------------------------------------------------------
 Rotational constants (GHZ):           5.4478752           1.6504350           1.2703742
 Standard basis: 6-31+G(d,p) (6D, 7F)
 There are   172 symmetry adapted cartesian basis functions of A   symmetry.
 There are   172 symmetry adapted basis functions of A   symmetry.
   172 basis functions,   284 primitive gaussians,   172 cartesian basis functions
    29 alpha electrons       29 beta electrons
       nuclear repulsion energy       371.5844788607 Hartrees.
 NAtoms=   12 NActive=   12 NUniq=   12 SFac= 1.00D+00 NAtFMM=   60 NAOKFM=F Big=F
 Integral buffers will be    131072 words long.
 Raffenetti 2 integral format.
 Two-electron integral symmetry is turned on.
 Force inversion solution in PCM.
 ------------------------------------------------------------------------------
 Polarizable Continuum Model (PCM)
 =================================
 Model                : PCM.
 Atomic radii         : SMD-Coulomb.
 Polarization charges : Total charges.
 Charge compensation  : None.
 Solution method      : Matrix inversion.
 Cavity type          : VdW (van der Waals Surface) (Alpha=1.000).
 Cavity algorithm     : GePol (No added spheres)
                        Default sphere list used, NSphG=   12.
                        Lebedev-Laikov grids with approx.  5.0 points / Ang**2.
                        Smoothing algorithm: York/Karplus (Gamma=1.0000).
                        Polarization charges: spherical gaussians, with
                                              point-specific exponents (IZeta= 3).
                        Self-potential: point-specific (ISelfS= 7).
                        Self-field    : sphere-specific E.n sum rule (ISelfD= 2).
 1st derivatives      : Analytical E(r).r(x)/FMM algorithm (CHGder, D1EAlg=3).
                        Cavity 1st derivative terms included.
 2nd derivatives      : Analytical E(r).r(xy)/FMM algorithm (CHGder, D2EAlg=3).
                        Cavity 2nd derivative terms included.
 Solvent              : Water, Eps=  78.355300 Eps(inf)=   1.777849
 ------------------------------------------------------------------------------
 Spheres list:
 ISph  on   Nord     Re0    Alpha      Xe            Ye            Ze
    1   N      1    1.8900  1.000     -0.444137     -0.754317      0.093528
    2   N      2    1.8900  1.000     -1.760523     -0.831497      0.020777
    3   C      3    1.8500  1.000     -2.246337      0.404909     -0.058225
    4   C      4    1.8500  1.000     -1.126192      1.231373     -0.027136
    5   N      5    1.8900  1.000     -0.026830      0.472277      0.067387
    6   H      6    1.2000  1.000     -3.304718      0.604019     -0.128143
    7   H      7    1.2000  1.000     -1.069655      2.307194     -0.067622
    8   H      8    1.2000  1.000     -2.240238     -1.734574      0.027416
    9   H      9    1.2000  1.000      0.470525     -1.610357      0.199627
   10   C     10    1.8500  1.000      1.513586      0.039564     -0.087705
   11   O     11    1.5200  1.000      1.719168     -1.224577     -0.091235
   12   O     12    1.5200  1.000      2.395603      0.996253      0.058144
 ------------------------------------------------------------------------------
 ------------------------------------------------------------------------------
 Atomic radii for non-electrostatic terms: SMD-CDS.
 ------------------------------------------------------------------------------
 Nuclear repulsion after PCM non-electrostatic terms =      371.5927648228 Hartrees.
 One-electron integrals computed using PRISM.
 NBasis=   172 RedAO= T EigKep=  2.94D-05  NBF=   172
 NBsUse=   172 1.00D-06 EigRej= -1.00D+00 NBFU=   172
 ExpMin= 4.38D-02 ExpMax= 5.48D+03 ExpMxC= 8.25D+02 IAcc=3 IRadAn=         5 AccDes= 0.00D+00
 Harris functional with IExCor= 1009 and IRadAn=       5 diagonalized for initial guess.
 HarFok:  IExCor= 1009 AccDes= 0.00D+00 IRadAn=         5 IDoV= 1 UseB2=F ITyADJ=14
 ICtDFT=  3500011 ScaDFX=  1.000000  1.000000  1.000000  1.000000
 FoFCou: FMM=F IPFlag=           0 FMFlag=      100000 FMFlg1=           0
         NFxFlg=           0 DoJE=T BraDBF=F KetDBF=T FulRan=T
         wScrn=  0.000000 ICntrl=       500 IOpCl=  0 I1Cent=   200000004 NGrid=           0
         NMat0=    1 NMatS0=      1 NMatT0=    0 NMatD0=    1 NMtDS0=    0 NMtDT0=    0
 Petite list used in FoFCou.
 Keep R1 ints in memory in canonical form, NReq=134699993.
 Requested convergence on RMS density matrix=1.00D-08 within 128 cycles.
 Requested convergence on MAX density matrix=1.00D-06.
 Requested convergence on             energy=1.00D-06.
 No special actions if energy rises.
 Inv3:  Mode=1 IEnd=     3096768.
 Iteration    1 A*A^-1 deviation from unit magnitude is 3.33D-15 for    728.
 Iteration    1 A*A^-1 deviation from orthogonality  is 2.70D-15 for    968    462.
 Iteration    1 A^-1*A deviation from unit magnitude is 2.89D-15 for    184.
 Iteration    1 A^-1*A deviation from orthogonality  is 1.51D-14 for    547    470.
 Error on total polarization charges =  0.02849
 SCF Done:  E(RM062X) =  -430.988947766     A.U. after   14 cycles
            NFock= 14  Conv=0.79D-08     -V/T= 2.0095
 SMD-CDS (non-electrostatic) energy       (kcal/mol) =       5.20
 (included in total energy above)
 DoSCS=F DFT=T ScalE2(SS,OS)=  1.000000  1.000000
 Range of M.O.s used for correlation:     1   172
 NBasis=   172 NAE=    29 NBE=    29 NFC=     0 NFV=     0
 NROrb=    172 NOA=    29 NOB=    29 NVA=   143 NVB=   143

 **** Warning!!: The largest alpha MO coefficient is  0.64962337D+02

 Symmetrizing basis deriv contribution to polar:
 IMax=3 JMax=2 DiffMx= 0.00D+00
 G2DrvN: will do    13 centers at a time, making    1 passes.
 Calling FoFCou, ICntrl=  3107 FMM=F I1Cent=   0 AccDes= 0.00D+00.
 NEqPCM:  Using equilibrium solvation (IEInf=0, Eps=  78.3553, EpsInf=   1.7778)
 G2PCM: DoFxE=T DoFxN=T DoGrad=T DoDP/DQ/DG/TGxP=FFFF NFrqRd=   0 IEInf=0 SqF1=F DoCFld=F IF1Alg=4.
 End of G2Drv F.D. properties file   721 does not exist.
 End of G2Drv F.D. properties file   722 does not exist.
 End of G2Drv F.D. properties file   788 does not exist.
          IDoAtm=111111111111
 NEqPCM:  Using equilibrium solvation (IEInf=0, Eps=  78.3553, EpsInf=   1.7778)
          Differentiating once with respect to nuclear coordinates.
 Keep R1 ints in memory in canonical form, NReq=134627947.
          There are    39 degrees of freedom in the 1st order CPHF.  IDoFFX=6 NUNeed=     0.
     33 vectors produced by pass  0 Test12= 1.06D-14 2.56D-09 XBig12= 1.57D-01 6.87D-02.
 AX will form    33 AO Fock derivatives at one time.
     33 vectors produced by pass  1 Test12= 1.06D-14 2.56D-09 XBig12= 1.41D-02 4.80D-02.
     33 vectors produced by pass  2 Test12= 1.06D-14 2.56D-09 XBig12= 2.61D-04 2.53D-03.
     33 vectors produced by pass  3 Test12= 1.06D-14 2.56D-09 XBig12= 2.57D-06 3.22D-04.
     33 vectors produced by pass  4 Test12= 1.06D-14 2.56D-09 XBig12= 2.35D-08 2.21D-05.
     33 vectors produced by pass  5 Test12= 1.06D-14 2.56D-09 XBig12= 1.67D-10 1.47D-06.
     28 vectors produced by pass  6 Test12= 1.06D-14 2.56D-09 XBig12= 6.81D-13 1.03D-07.
      5 vectors produced by pass  7 Test12= 1.06D-14 2.56D-09 XBig12= 2.39D-15 5.85D-09.
 InvSVY:  IOpt=1 It=  1 EMax= 1.11D-15
 Solved reduced A of dimension   231 with    33 vectors.
 End of Minotr F.D. properties file   721 does not exist.
 End of Minotr F.D. properties file   722 does not exist.
 End of Minotr F.D. properties file   788 does not exist.

 **********************************************************************

            Population analysis using the SCF density.

 **********************************************************************

 Orbital symmetries:
       Occupied  (A) (A) (A) (A) (A) (A) (A) (A) (A) (A) (A) (A)
                 (A) (A) (A) (A) (A) (A) (A) (A) (A) (A) (A) (A)
                 (A) (A) (A) (A) (A)
       Virtual   (A) (A) (A) (A) (A) (A) (A) (A) (A) (A) (A) (A)
                 (A) (A) (A) (A) (A) (A) (A) (A) (A) (A) (A) (A)
                 (A) (A) (A) (A) (A) (A) (A) (A) (A) (A) (A) (A)
                 (A) (A) (A) (A) (A) (A) (A) (A) (A) (A) (A) (A)
                 (A) (A) (A) (A) (A) (A) (A) (A) (A) (A) (A) (A)
                 (A) (A) (A) (A) (A) (A) (A) (A) (A) (A) (A) (A)
                 (A) (A) (A) (A) (A) (A) (A) (A) (A) (A) (A) (A)
                 (A) (A) (A) (A) (A) (A) (A) (A) (A) (A) (A) (A)
                 (A) (A) (A) (A) (A) (A) (A) (A) (A) (A) (A) (A)
                 (A) (A) (A) (A) (A) (A) (A) (A) (A) (A) (A) (A)
                 (A) (A) (A) (A) (A) (A) (A) (A) (A) (A) (A) (A)
                 (A) (A) (A) (A) (A) (A) (A) (A) (A) (A) (A)
 The electronic state is 1-A.
 Alpha  occ. eigenvalues --  -19.71645 -19.68261 -14.95890 -14.95071 -14.94533
 Alpha  occ. eigenvalues --  -10.79298 -10.67081 -10.66837  -1.35554  -1.24867
 Alpha  occ. eigenvalues --   -1.14351  -1.13784  -1.00687  -0.85472  -0.82754
 Alpha  occ. eigenvalues --   -0.75560  -0.70741  -0.66534  -0.65778  -0.59791
 Alpha  occ. eigenvalues --   -0.58243  -0.57038  -0.55887  -0.55221  -0.47420
 Alpha  occ. eigenvalues --   -0.45177  -0.40889  -0.39968  -0.39188
 Alpha virt. eigenvalues --   -0.08058  -0.01391   0.00802   0.02749   0.02916
 Alpha virt. eigenvalues --    0.03658   0.04288   0.04996   0.05819   0.06299
 Alpha virt. eigenvalues --    0.06668   0.08378   0.10008   0.10718   0.11256
 Alpha virt. eigenvalues --    0.12578   0.14296   0.14976   0.16167   0.17961
 Alpha virt. eigenvalues --    0.18691   0.20001   0.20582   0.21410   0.22257
 Alpha virt. eigenvalues --    0.22964   0.23345   0.24587   0.25255   0.26782
 Alpha virt. eigenvalues --    0.27485   0.28136   0.28741   0.29122   0.30597
 Alpha virt. eigenvalues --    0.31585   0.31981   0.32564   0.33062   0.35615
 Alpha virt. eigenvalues --    0.36608   0.38736   0.41556   0.43285   0.45597
 Alpha virt. eigenvalues --    0.46908   0.53495   0.67787   0.68880   0.72031
 Alpha virt. eigenvalues --    0.75698   0.77294   0.80663   0.83487   0.85616
 Alpha virt. eigenvalues --    0.86044   0.87169   0.89337   0.90220   0.91054
 Alpha virt. eigenvalues --    0.92462   0.93984   1.00513   1.00908   1.07308
 Alpha virt. eigenvalues --    1.11725   1.15671   1.18320   1.18930   1.21431
 Alpha virt. eigenvalues --    1.23436   1.24144   1.25578   1.29054   1.29494
 Alpha virt. eigenvalues --    1.32921   1.33688   1.34177   1.35203   1.36712
 Alpha virt. eigenvalues --    1.37880   1.43706   1.44825   1.48496   1.51184
 Alpha virt. eigenvalues --    1.56798   1.59563   1.65272   1.68351   1.70361
 Alpha virt. eigenvalues --    1.77215   1.79278   1.82520   1.85015   1.88376
 Alpha virt. eigenvalues --    1.90454   1.92066   1.94644   1.95726   2.01960
 Alpha virt. eigenvalues --    2.03082   2.06464   2.10807   2.14841   2.15622
 Alpha virt. eigenvalues --    2.22026   2.26174   2.31791   2.32886   2.35863
 Alpha virt. eigenvalues --    2.36176   2.42066   2.45395   2.48190   2.50505
 Alpha virt. eigenvalues --    2.53777   2.55304   2.57544   2.59109   2.65064
 Alpha virt. eigenvalues --    2.70996   2.74711   2.76075   2.79489   2.90128
 Alpha virt. eigenvalues --    2.94172   2.96866   3.07991   3.08736   3.13068
 Alpha virt. eigenvalues --    3.24191   3.29964   3.31803   3.56225   3.75485
 Alpha virt. eigenvalues --    3.97559   4.12069   4.16559   4.29036   4.41069
 Alpha virt. eigenvalues --    4.46031   4.54339   4.69211
          Condensed to atoms (all electrons):
               1          2          3          4          5          6
     1  N    8.113135  -1.494405   0.200650  -0.098916   0.152725   0.012845
     2  N   -1.494405   8.411900   0.001771   0.126595   0.031476  -0.036761
     3  C    0.200650   0.001771   5.298761   0.110774   0.025695   0.364159
     4  C   -0.098916   0.126595   0.110774   5.484981   0.271232   0.000969
     5  N    0.152725   0.031476   0.025695   0.271232   6.607284  -0.004340
     6  H    0.012845  -0.036761   0.364159   0.000969  -0.004340   0.346196
     7  H    0.008576  -0.005325  -0.004004   0.380149  -0.036678  -0.000215
     8  H    0.007711   0.278838   0.012582  -0.015944   0.004572  -0.000870
     9  H    0.112001   0.047178  -0.003424   0.000492   0.004470  -0.000008
    10  C    0.118850  -0.102185  -0.015790  -0.060735  -0.095045   0.000023
    11  O    0.072816  -0.043349   0.009589  -0.014142  -0.136325   0.000055
    12  O   -0.021636  -0.011005   0.011562  -0.039976  -0.003740  -0.000001
               7          8          9         10         11         12
     1  N    0.008576   0.007711   0.112001   0.118850   0.072816  -0.021636
     2  N   -0.005325   0.278838   0.047178  -0.102185  -0.043349  -0.011005
     3  C   -0.004004   0.012582  -0.003424  -0.015790   0.009589   0.011562
     4  C    0.380149  -0.015944   0.000492  -0.060735  -0.014142  -0.039976
     5  N   -0.036678   0.004572   0.004470  -0.095045  -0.136325  -0.003740
     6  H   -0.000215  -0.000870  -0.000008   0.000023   0.000055  -0.000001
     7  H    0.358667  -0.000046  -0.000005  -0.001413  -0.000036  -0.000045
     8  H   -0.000046   0.231715  -0.000238   0.000959   0.000544   0.000010
     9  H   -0.000005  -0.000238   0.197826  -0.005740   0.096742   0.001280
    10  C   -0.001413   0.000959  -0.005740   4.613438   0.353037   0.472440
    11  O   -0.000036   0.000544   0.096742   0.353037   8.174279  -0.090598
    12  O   -0.000045   0.000010   0.001280   0.472440  -0.090598   8.260967
 Mulliken charges:
               1
     1  N   -0.184352
     2  N   -0.204728
     3  C   -0.012324
     4  C   -0.145480
     5  N    0.178673
     6  H    0.317947
     7  H    0.300376
     8  H    0.480169
     9  H    0.549428
    10  C    0.722162
    11  O   -0.422612
    12  O   -0.579259
 Sum of Mulliken charges =   1.00000
 Mulliken charges with hydrogens summed into heavy atoms:
               1
     1  N    0.365076
     2  N    0.275441
     3  C    0.305623
     4  C    0.154896
     5  N    0.178673
    10  C    0.722162
    11  O   -0.422612
    12  O   -0.579259
 APT charges:
               1
     1  N   -0.447180
     2  N   -0.321576
     3  C   -0.386829
     4  C   -0.489698
     5  N   -0.213529
     6  H    0.922597
     7  H    0.688228
     8  H    0.963988
     9  H    0.610411
    10  C    0.118398
    11  O   -0.257561
    12  O   -0.187250
 Sum of APT charges =   1.00000
 APT charges with hydrogens summed into heavy atoms:
               1
     1  N    0.163231
     2  N    0.642412
     3  C    0.535768
     4  C    0.198530
     5  N   -0.213529
    10  C    0.118398
    11  O   -0.257561
    12  O   -0.187250
 Electronic spatial extent (au):  <R**2>=            843.7855
 Charge=              1.0000 electrons
 Dipole moment (field-independent basis, Debye):
    X=            -14.9711    Y=             -2.7494    Z=              0.0411  Tot=             15.2215
 Quadrupole moment (field-independent basis, Debye-Ang):
   XX=            -33.4132   YY=            -31.6787   ZZ=            -43.8715
   XY=             -0.2287   XZ=              0.3855   YZ=             -1.5176
 Traceless Quadrupole moment (field-independent basis, Debye-Ang):
   XX=              2.9080   YY=              4.6424   ZZ=             -7.5504
   XY=             -0.2287   XZ=              0.3855   YZ=             -1.5176
 Octapole moment (field-independent basis, Debye-Ang**2):
  XXX=           -109.7341  YYY=            -11.0492  ZZZ=              0.3066  XYY=            -32.1666
  XXY=            -16.7159  XXZ=             -1.9988  XZZ=              1.4111  YZZ=             -2.4475
  YYZ=              1.3635  XYZ=             -0.3276
 Hexadecapole moment (field-independent basis, Debye-Ang**3):
 XXXX=           -638.8867 YYYY=           -185.9188 ZZZZ=            -40.7569 XXXY=             -4.5397
 XXXZ=              5.4345 YYYX=              9.5457 YYYZ=             -4.6441 ZZZX=             -0.0986
 ZZZY=             -0.3681 XXYY=           -145.8798 XXZZ=           -134.1607 YYZZ=            -50.5240
 XXYZ=             -3.2972 YYXZ=              1.7140 ZZXY=              1.9807
 N-N= 3.715927648228D+02 E-N=-1.736128446450D+03  KE= 4.269287218848D+02
  Exact polarizability:   0.000   0.000   0.000   0.000   0.000   0.000
 Approx polarizability:  93.470   2.656  90.856   2.549   0.265  40.357
 D2PCM: PCM CHGder 2nd derivatives, FixD1E=F FixD2E=F DoIter=F DoCFld=F I1PDM=0
 Calling FoFJK, ICntrl=    100147 FMM=F ISym2X=0 I1Cent= 0 IOpClX= 0 NMat=1 NMatS=1 NMatT=0.
 ***** Axes restored to original set *****
 -------------------------------------------------------------------
 Center     Atomic                   Forces (Hartrees/Bohr)
 Number     Number              X              Y              Z
 -------------------------------------------------------------------
      1        7           0.064795752   -0.067857886   -0.014192598
      2        7          -0.038961592    0.018432887   -0.003531471
      3        6          -0.006019534    0.006521439   -0.001785572
      4        6           0.004725310    0.040767675    0.004952881
      5        7           0.003410815   -0.074121707    0.010227501
      6        1          -0.000147660    0.004134185    0.000265071
      7        1           0.000364720    0.001224664    0.000951035
      8        1          -0.000555269   -0.003577630   -0.000624226
      9        1          -0.003071328    0.029855036    0.017088368
     10        6          -0.144810658    0.079161321   -0.036162536
     11        8           0.026327328    0.044342371   -0.000824318
     12        8           0.093942115   -0.078882355    0.023635866
 -------------------------------------------------------------------
 Cartesian Forces:  Max     0.144810658 RMS     0.042918705
 FormGI is forming the generalized inverse of G from B-inverse, IUseBI=4.

 GradGradGradGradGradGradGradGradGradGradGradGradGradGradGradGradGradGrad
 Berny optimization.
 Internal  Forces:  Max     0.123686174 RMS     0.021228288
 Search for a saddle point.
 Step number   1 out of a maximum of   72
 All quantities printed in internal units (Hartrees-Bohrs-Radians)
 Swapping is turned off.
 Second derivative matrix not updated -- analytic derivatives used.
 ITU=  0
     Eigenvalues ---   -0.06740  -0.00048   0.00521   0.01076   0.01271
     Eigenvalues ---    0.01530   0.02277   0.02969   0.03633   0.05496
     Eigenvalues ---    0.05755   0.09962   0.10427   0.10843   0.11280
     Eigenvalues ---    0.14148   0.20123   0.23096   0.24269   0.27226
     Eigenvalues ---    0.30306   0.37259   0.38871   0.39105   0.41639
     Eigenvalues ---    0.44334   0.45449   0.52060   0.54931   0.61631
 Eigenvectors required to have negative eigenvalues:
                          R11       R3        A2        R10       A3
   1                    0.70045  -0.57173  -0.20736   0.19295   0.17796
                          R12       A19       A18       A16       A20
   1                   -0.13296   0.11653  -0.07704  -0.06798  -0.06659
 RFO step:  Lambda0=1.120535966D-07 Lambda=-8.56897916D-02.
 Linear search not attempted -- option 19 set.
 Maximum step size (   0.300) exceeded in Quadratic search.
    -- Step size scaled by   0.458
 Iteration  1 RMS(Cart)=  0.06052363 RMS(Int)=  0.01349476
 Iteration  2 RMS(Cart)=  0.00547035 RMS(Int)=  0.00633757
 Iteration  3 RMS(Cart)=  0.00043982 RMS(Int)=  0.00633145
 Iteration  4 RMS(Cart)=  0.00000462 RMS(Int)=  0.00633144
 Iteration  5 RMS(Cart)=  0.00000039 RMS(Int)=  0.00633144
 Variable       Old X    -DE/DX   Delta X   Delta X   Delta X     New X
                                 (Linear)    (Quad)   (Total)
    R1        2.49567  -0.03125   0.00000  -0.02182  -0.02168   2.47399
    R2        2.44890   0.01105   0.00000  -0.00409  -0.00849   2.44041
    R3        2.37585  -0.01888   0.00000  -0.06262  -0.06114   2.31471
    R4        2.51480   0.01448   0.00000   0.01142   0.01372   2.52852
    R5        1.93244   0.00287   0.00000   0.00297   0.00297   1.93541
    R6        2.63123  -0.01199   0.00000  -0.00316  -0.00173   2.62949
    R7        2.03942   0.00071   0.00000   0.00044   0.00044   2.03986
    R8        2.53093   0.01537   0.00000  -0.00228  -0.00372   2.52722
    R9        2.03725   0.00123   0.00000   0.00114   0.00114   2.03839
   R10        3.03780   0.00251   0.00000  -0.07050  -0.07018   2.96762
   R11        2.53007   0.01089   0.00000   0.07062   0.06943   2.59950
   R12        2.42027  -0.04134   0.00000  -0.02114  -0.01980   2.40047
   R13        2.47437  -0.12369   0.00000  -0.11712  -0.11712   2.35726
    A1        1.95539  -0.00695   0.00000  -0.02863  -0.03004   1.92535
    A2        2.33231   0.04077   0.00000   0.11246   0.11180   2.44412
    A3        1.99533  -0.03372   0.00000  -0.08530  -0.08680   1.90853
    A4        1.88900   0.00936   0.00000   0.01325   0.01240   1.90140
    A5        2.11630  -0.00685   0.00000  -0.00405  -0.00388   2.11242
    A6        2.27788  -0.00253   0.00000  -0.00929  -0.00875   2.26914
    A7        1.83015   0.00285   0.00000   0.00772   0.00799   1.83814
    A8        2.13326   0.00273   0.00000  -0.00055  -0.00069   2.13258
    A9        2.31977  -0.00558   0.00000  -0.00717  -0.00730   2.31247
   A10        1.90234  -0.01255   0.00000  -0.03289  -0.03608   1.86626
   A11        2.25709   0.00577   0.00000   0.01754   0.01918   2.27627
   A12        2.12375   0.00678   0.00000   0.01535   0.01680   2.14055
   A13        1.84789   0.00729   0.00000   0.04055   0.04527   1.89316
   A14        1.62656   0.02852   0.00000   0.10214   0.10689   1.73345
   A15        2.77158  -0.03925   0.00000  -0.12863  -0.13592   2.63566
   A16        2.05327   0.00757   0.00000   0.01556   0.01893   2.07219
   A17        2.00398  -0.02445   0.00000  -0.06345  -0.06524   1.93875
   A18        2.02425  -0.00198   0.00000   0.01217   0.01306   2.03730
   A19        2.23109   0.02698   0.00000   0.05653   0.05916   2.29025
   A20        1.70531   0.02148   0.00000   0.02084   0.01820   1.72350
    D1        0.00030   0.00663   0.00000   0.03780   0.02727   0.02757
    D2        3.13856   0.00156   0.00000   0.01251   0.00965  -3.13498
    D3        3.12181   0.01277   0.00000  -0.06285  -0.08013   3.04168
    D4       -0.02311   0.00770   0.00000  -0.08814  -0.09774  -0.12086
    D5       -0.00004  -0.00916   0.00000  -0.04244  -0.02949  -0.02953
    D6       -2.97827   0.00711   0.00000  -0.04173  -0.04698  -3.02525
    D7       -3.12569  -0.01491   0.00000   0.03517   0.04122  -3.08447
    D8        0.17927   0.00137   0.00000   0.03588   0.02372   0.20300
    D9        2.85123  -0.00508   0.00000   0.06788   0.08543   2.93666
   D10       -0.31079   0.00142   0.00000  -0.03396  -0.02084  -0.33163
   D11       -0.00041  -0.00121   0.00000  -0.01624  -0.01377  -0.01418
   D12        3.14088  -0.00257   0.00000  -0.01546  -0.01160   3.12927
   D13       -3.13825   0.00450   0.00000   0.01218   0.00592  -3.13233
   D14        0.00303   0.00314   0.00000   0.01296   0.00809   0.01112
   D15        0.00039  -0.00431   0.00000  -0.00905  -0.00370  -0.00331
   D16       -3.14108   0.00183   0.00000   0.01490   0.01186  -3.12922
   D17       -3.14085  -0.00274   0.00000  -0.00995  -0.00619   3.13615
   D18        0.00087   0.00340   0.00000   0.01400   0.00937   0.01024
   D19       -0.00022   0.00814   0.00000   0.03090   0.02004   0.01982
   D20        2.67566   0.01020   0.00000   0.19828   0.18526   2.86093
   D21        3.14127   0.00256   0.00000   0.00913   0.00596  -3.13596
   D22       -0.46604   0.00461   0.00000   0.17651   0.17119  -0.29485
   D23       -0.02690  -0.00297   0.00000  -0.02670  -0.01552  -0.04242
   D24       -2.95412  -0.00909   0.00000  -0.05754  -0.05573  -3.00985
   D25       -2.72112  -0.00516   0.00000  -0.18930  -0.17442  -2.89554
   D26        0.63484  -0.01128   0.00000  -0.22014  -0.21463   0.42022
   D27        0.24881   0.00564   0.00000   0.03021   0.02807   0.27688
   D28       -0.11619   0.00195   0.00000   0.00825   0.00269  -0.11350
   D29        2.78085   0.00349   0.00000   0.03412   0.04000   2.82085
         Item               Value     Threshold  Converged?
 Maximum Force            0.123686     0.000450     NO 
 RMS     Force            0.021228     0.000300     NO 
 Maximum Displacement     0.230353     0.001800     NO 
 RMS     Displacement     0.063550     0.001200     NO 
 Predicted change in Energy=-3.762287D-02
 GradGradGradGradGradGradGradGradGradGradGradGradGradGradGradGradGradGrad

                          Input orientation:                          
 ---------------------------------------------------------------------
 Center     Atomic      Atomic             Coordinates (Angstroms)
 Number     Number       Type             X           Y           Z
 ---------------------------------------------------------------------
      1          7           0        0.818337   -0.852132   -0.037150
      2          7           0        2.127347   -0.838316   -0.021133
      3          6           0        2.547591    0.430485    0.041086
      4          6           0        1.389363    1.201643    0.043231
      5          7           0        0.357016    0.353966   -0.021545
      6          1           0        3.595241    0.688151    0.076303
      7          1           0        1.262061    2.272347    0.073402
      8          1           0        2.664785   -1.710025   -0.035760
      9          1           0       -0.110770   -1.640468   -0.162218
     10          6           0       -1.173513    0.038834    0.134411
     11          8           0       -1.384405   -1.213812    0.134569
     12          8           0       -1.957599    1.004403    0.040025
 ---------------------------------------------------------------------
                    Distance matrix (angstroms):
                    1          2          3          4          5
     1  N    0.000000
     2  N    1.309181   0.000000
     3  C    2.154425   1.338033   0.000000
     4  C    2.133196   2.170298   1.391467   0.000000
     5  N    1.291407   2.134387   2.192806   1.337346   0.000000
     6  H    3.177506   2.119979   1.079446   2.265097   3.256894
     7  H    3.157766   3.230152   2.246350   1.078667   2.123278
     8  H    2.036014   1.024173   2.145093   3.179741   3.096136
     9  H    1.224890   2.381705   3.375954   3.220281   2.053383
    10  C    2.188771   3.418956   3.742822   2.815808   1.570398
    11  O    2.238832   3.535200   4.262985   3.679206   2.348371
    12  O    3.340434   4.481755   4.541599   3.352770   2.405057
                    6          7          8          9         10
     6  H    0.000000
     7  H    2.820180   0.000000
     8  H    2.574792   4.223605   0.000000
     9  H    4.383364   4.153349   2.779305   0.000000
    10  C    4.813108   3.305197   4.221374   2.009345   0.000000
    11  O    5.330829   4.377308   4.083035   1.375596   1.270274
    12  O    5.561957   3.460493   5.360997   3.232185   1.247407
                   11         12
    11  O    0.000000
    12  O    2.293026   0.000000
 Stoichiometry    C3H4N3O2(1+)
 Framework group  C1[X(C3H4N3O2)]
 Deg. of freedom    30
 Full point group                 C1      NOp   1
 Largest Abelian subgroup         C1      NOp   1
 Largest concise Abelian subgroup C1      NOp   1
                         Standard orientation:                         
 ---------------------------------------------------------------------
 Center     Atomic      Atomic             Coordinates (Angstroms)
 Number     Number       Type             X           Y           Z
 ---------------------------------------------------------------------
      1          7           0       -0.482230   -0.824320    0.058081
      2          7           0       -1.790475   -0.797752    0.016336
      3          6           0       -2.197283    0.475417   -0.045967
      4          6           0       -1.031936    1.235342   -0.020284
      5          7           0       -0.009206    0.377337    0.059369
      6          1           0       -3.241526    0.743412   -0.100179
      7          1           0       -0.893854    2.304934   -0.041023
      8          1           0       -2.336390   -1.664300    0.014729
      9          1           0        0.436657   -1.622368    0.196360
     10          6           0        1.521033    0.048410   -0.068397
     11          8           0        1.719927   -1.206190   -0.072484
     12          8           0        2.312274    1.005745    0.047671
 ---------------------------------------------------------------------
 Rotational constants (GHZ):           5.4559773           1.7039050           1.3007808
 Standard basis: 6-31+G(d,p) (6D, 7F)
 There are   172 symmetry adapted cartesian basis functions of A   symmetry.
 There are   172 symmetry adapted basis functions of A   symmetry.
   172 basis functions,   284 primitive gaussians,   172 cartesian basis functions
    29 alpha electrons       29 beta electrons
       nuclear repulsion energy       375.0353977457 Hartrees.
 NAtoms=   12 NActive=   12 NUniq=   12 SFac= 1.00D+00 NAtFMM=   60 NAOKFM=F Big=F
 Integral buffers will be    131072 words long.
 Raffenetti 2 integral format.
 Two-electron integral symmetry is turned on.
 ------------------------------------------------------------------------------
 Polarizable Continuum Model (PCM)
 =================================
 Model                : PCM.
 Atomic radii         : SMD-Coulomb.
 Polarization charges : Total charges.
 Charge compensation  : None.
 Solution method      : Matrix inversion.
 Cavity type          : VdW (van der Waals Surface) (Alpha=1.000).
 Cavity algorithm     : GePol (No added spheres)
                        Default sphere list used, NSphG=   12.
                        Lebedev-Laikov grids with approx.  5.0 points / Ang**2.
                        Smoothing algorithm: York/Karplus (Gamma=1.0000).
                        Polarization charges: spherical gaussians, with
                                              point-specific exponents (IZeta= 3).
                        Self-potential: point-specific (ISelfS= 7).
                        Self-field    : sphere-specific E.n sum rule (ISelfD= 2).
 1st derivatives      : Analytical E(r).r(x)/FMM algorithm (CHGder, D1EAlg=3).
                        Cavity 1st derivative terms included.
 Solvent              : Water, Eps=  78.355300 Eps(inf)=   1.777849
 ------------------------------------------------------------------------------
 Spheres list:
 ISph  on   Nord     Re0    Alpha      Xe            Ye            Ze
    1   N      1    1.8900  1.000     -0.482230     -0.824320      0.058081
    2   N      2    1.8900  1.000     -1.790475     -0.797752      0.016336
    3   C      3    1.8500  1.000     -2.197283      0.475417     -0.045967
    4   C      4    1.8500  1.000     -1.031936      1.235342     -0.020284
    5   N      5    1.8900  1.000     -0.009206      0.377337      0.059369
    6   H      6    1.2000  1.000     -3.241526      0.743412     -0.100179
    7   H      7    1.2000  1.000     -0.893854      2.304934     -0.041023
    8   H      8    1.2000  1.000     -2.336390     -1.664300      0.014729
    9   H      9    1.2000  1.000      0.436657     -1.622368      0.196360
   10   C     10    1.8500  1.000      1.521033      0.048410     -0.068397
   11   O     11    1.5200  1.000      1.719927     -1.206190     -0.072484
   12   O     12    1.5200  1.000      2.312274      1.005745      0.047671
 ------------------------------------------------------------------------------
 ------------------------------------------------------------------------------
 Atomic radii for non-electrostatic terms: SMD-CDS.
 ------------------------------------------------------------------------------
 Nuclear repulsion after PCM non-electrostatic terms =      375.0442719147 Hartrees.
 One-electron integrals computed using PRISM.
 NBasis=   172 RedAO= T EigKep=  2.43D-05  NBF=   172
 NBsUse=   172 1.00D-06 EigRej= -1.00D+00 NBFU=   172
 Initial guess from the checkpoint file:  "/scratch/gongke2021/2-H-1-H-Tz-2-TS/Gau-32209.chk"
 B after Tr=    -0.000000   -0.000000    0.000000
         Rot=    0.999979   -0.002436    0.000689    0.005953 Ang=  -0.74 deg.
 ExpMin= 4.38D-02 ExpMax= 5.48D+03 ExpMxC= 8.25D+02 IAcc=2 IRadAn=         4 AccDes= 0.00D+00
 Harris functional with IExCor= 1009 and IRadAn=       4 diagonalized for initial guess.
 HarFok:  IExCor= 1009 AccDes= 0.00D+00 IRadAn=         4 IDoV= 1 UseB2=F ITyADJ=14
 ICtDFT=  3500011 ScaDFX=  1.000000  1.000000  1.000000  1.000000
 FoFCou: FMM=F IPFlag=           0 FMFlag=      100000 FMFlg1=           0
         NFxFlg=           0 DoJE=T BraDBF=F KetDBF=T FulRan=T
         wScrn=  0.000000 ICntrl=       500 IOpCl=  0 I1Cent=   200000004 NGrid=           0
         NMat0=    1 NMatS0=      1 NMatT0=    0 NMatD0=    1 NMtDS0=    0 NMtDT0=    0
 Petite list used in FoFCou.
 Keep R1 ints in memory in canonical form, NReq=134699993.
 Requested convergence on RMS density matrix=1.00D-08 within 128 cycles.
 Requested convergence on MAX density matrix=1.00D-06.
 Requested convergence on             energy=1.00D-06.
 No special actions if energy rises.
 Inv3:  Mode=1 IEnd=     3133452.
 Iteration    1 A*A^-1 deviation from unit magnitude is 2.66D-15 for    259.
 Iteration    1 A*A^-1 deviation from orthogonality  is 2.07D-15 for    699    553.
 Iteration    1 A^-1*A deviation from unit magnitude is 2.66D-15 for    202.
 Iteration    1 A^-1*A deviation from orthogonality  is 1.55D-15 for    436    120.
 Error on total polarization charges =  0.02803
 SCF Done:  E(RM062X) =  -431.025308604     A.U. after   13 cycles
            NFock= 13  Conv=0.39D-08     -V/T= 2.0090
 SMD-CDS (non-electrostatic) energy       (kcal/mol) =       5.57
 (included in total energy above)
 D1PCM: PCM CHGder 1st derivatives, ID1Alg=3 FixD1E=F DoIter=F DoCFld=F I1PDM=0.
 Calling FoFJK, ICntrl=      2127 FMM=F ISym2X=0 I1Cent= 0 IOpClX= 0 NMat=1 NMatS=1 NMatT=0.
 ***** Axes restored to original set *****
 -------------------------------------------------------------------
 Center     Atomic                   Forces (Hartrees/Bohr)
 Number     Number              X              Y              Z
 -------------------------------------------------------------------
      1        7           0.041851210   -0.045131695   -0.015382408
      2        7          -0.022693016    0.012635971    0.000065347
      3        6          -0.003666781    0.002827645   -0.001725541
      4        6           0.003489489    0.022810764    0.001057464
      5        7           0.001436350   -0.043192561    0.012259995
      6        1          -0.000210868    0.002436028    0.000244001
      7        1          -0.000187641    0.000746633    0.001025873
      8        1          -0.000057181   -0.001949761   -0.000507270
      9        1          -0.001956517    0.021454026    0.017416144
     10        6          -0.083590716    0.046990944   -0.029566035
     11        8           0.018061177    0.023162404   -0.000840499
     12        8           0.047524494   -0.042790399    0.015952930
 -------------------------------------------------------------------
 Cartesian Forces:  Max     0.083590716 RMS     0.025458053

 GradGradGradGradGradGradGradGradGradGradGradGradGradGradGradGradGradGrad
 Berny optimization.
 FormGI is forming the generalized inverse of G from B-inverse, IUseBI=4.
 Internal  Forces:  Max     0.064190776 RMS     0.012390771
 Search for a saddle point.
 Step number   2 out of a maximum of   72
 All quantities printed in internal units (Hartrees-Bohrs-Radians)
 Swapping is turned off.
 Update second derivatives using D2CorX and points    1    2
 ITU=  0  0
     Eigenvalues ---   -0.06730  -0.00690   0.00562   0.01080   0.01269
     Eigenvalues ---    0.01536   0.02275   0.02975   0.03638   0.05500
     Eigenvalues ---    0.05748   0.09962   0.10460   0.10839   0.11276
     Eigenvalues ---    0.14369   0.20183   0.23149   0.24257   0.27368
     Eigenvalues ---    0.31142   0.37227   0.38870   0.39103   0.41635
     Eigenvalues ---    0.44329   0.45404   0.52213   0.55584   0.61636
 Eigenvectors required to have negative eigenvalues:
                          R11       R3        A2        R10       A3
   1                    0.70085  -0.57415  -0.20825   0.19306   0.17564
                          R12       A19       A18       A16       A20
   1                   -0.13172   0.11351  -0.07983  -0.07255  -0.06197
 RFO step:  Lambda0=4.496490700D-07 Lambda=-3.89701089D-02.
 Linear search not attempted -- option 19 set.
 Maximum step size (   0.300) exceeded in Quadratic search.
    -- Step size scaled by   0.610
 Iteration  1 RMS(Cart)=  0.06608177 RMS(Int)=  0.01370566
 Iteration  2 RMS(Cart)=  0.00590901 RMS(Int)=  0.00738333
 Iteration  3 RMS(Cart)=  0.00041775 RMS(Int)=  0.00737904
 Iteration  4 RMS(Cart)=  0.00000393 RMS(Int)=  0.00737903
 Iteration  5 RMS(Cart)=  0.00000042 RMS(Int)=  0.00737903
 Variable       Old X    -DE/DX   Delta X   Delta X   Delta X     New X
                                 (Linear)    (Quad)   (Total)
    R1        2.47399  -0.01720   0.00000  -0.01223  -0.01306   2.46094
    R2        2.44041   0.00717   0.00000  -0.00766  -0.01074   2.42967
    R3        2.31471  -0.01163   0.00000  -0.06237  -0.06198   2.25273
    R4        2.52852   0.00814   0.00000   0.01028   0.01096   2.53948
    R5        1.93541   0.00164   0.00000   0.00239   0.00239   1.93780
    R6        2.62949  -0.00689   0.00000   0.00100   0.00265   2.63214
    R7        2.03986   0.00038   0.00000   0.00034   0.00034   2.04019
    R8        2.52722   0.00933   0.00000  -0.00834  -0.00820   2.51902
    R9        2.03839   0.00079   0.00000   0.00126   0.00126   2.03965
   R10        2.96762   0.00521   0.00000  -0.03736  -0.03539   2.93223
   R11        2.59950   0.00712   0.00000   0.06045   0.05740   2.65690
   R12        2.40047  -0.02238   0.00000  -0.02455  -0.02264   2.37783
   R13        2.35726  -0.06419   0.00000  -0.05953  -0.05953   2.29772
    A1        1.92535  -0.00544   0.00000  -0.03643  -0.03360   1.89175
    A2        2.44412   0.02904   0.00000   0.12374   0.11617   2.56028
    A3        1.90853  -0.02316   0.00000  -0.09546  -0.09330   1.81523
    A4        1.90140   0.00608   0.00000   0.01403   0.01214   1.91354
    A5        2.11242  -0.00407   0.00000  -0.00163  -0.00081   2.11161
    A6        2.26914  -0.00204   0.00000  -0.01266  -0.01140   2.25773
    A7        1.83814   0.00201   0.00000   0.00767   0.00763   1.84577
    A8        2.13258   0.00145   0.00000  -0.00234  -0.00232   2.13026
    A9        2.31247  -0.00346   0.00000  -0.00534  -0.00534   2.30713
   A10        1.86626  -0.00777   0.00000  -0.03615  -0.03666   1.82961
   A11        2.27627   0.00389   0.00000   0.02178   0.02226   2.29852
   A12        2.14055   0.00385   0.00000   0.01420   0.01436   2.15491
   A13        1.89316   0.00502   0.00000   0.05026   0.05030   1.94347
   A14        1.73345   0.02062   0.00000   0.10893   0.10970   1.84315
   A15        2.63566  -0.02627   0.00000  -0.13910  -0.14352   2.49214
   A16        2.07219   0.00835   0.00000   0.04468   0.04716   2.11935
   A17        1.93875  -0.01839   0.00000  -0.06925  -0.06920   1.86955
   A18        2.03730  -0.00090   0.00000   0.00847   0.00701   2.04431
   A19        2.29025   0.02045   0.00000   0.07342   0.07392   2.36417
   A20        1.72350   0.01309   0.00000   0.01311   0.01119   1.73469
    D1        0.02757   0.00225   0.00000   0.01929   0.00678   0.03434
    D2       -3.13498   0.00046   0.00000   0.00722   0.00361  -3.13137
    D3        3.04168   0.00516   0.00000  -0.09157  -0.10956   2.93212
    D4       -0.12086   0.00337   0.00000  -0.10365  -0.11273  -0.23359
    D5       -0.02953  -0.00341   0.00000  -0.01898  -0.00336  -0.03289
    D6       -3.02525   0.00267   0.00000  -0.06648  -0.07210  -3.09735
    D7       -3.08447  -0.00909   0.00000   0.04042   0.04704  -3.03743
    D8        0.20300  -0.00302   0.00000  -0.00709  -0.02170   0.18130
    D9        2.93666   0.00089   0.00000   0.12287   0.14008   3.07674
   D10       -0.33163   0.00456   0.00000   0.01524   0.02844  -0.30319
   D11       -0.01418  -0.00039   0.00000  -0.01261  -0.00846  -0.02264
   D12        3.12927  -0.00088   0.00000  -0.00788  -0.00348   3.12580
   D13       -3.13233   0.00163   0.00000   0.00068  -0.00516  -3.13749
   D14        0.01112   0.00114   0.00000   0.00541  -0.00017   0.01095
   D15       -0.00331  -0.00171   0.00000   0.00135   0.00627   0.00296
   D16       -3.12922   0.00096   0.00000   0.01428   0.00888  -3.12034
   D17        3.13615  -0.00114   0.00000  -0.00408   0.00057   3.13672
   D18        0.01024   0.00154   0.00000   0.00886   0.00318   0.01341
   D19        0.01982   0.00308   0.00000   0.01083  -0.00169   0.01813
   D20        2.86093   0.00601   0.00000   0.19437   0.17576   3.03669
   D21       -3.13596   0.00068   0.00000  -0.00073  -0.00388  -3.13983
   D22       -0.29485   0.00361   0.00000   0.18281   0.17357  -0.12128
   D23       -0.04242   0.00146   0.00000   0.00028   0.01377  -0.02866
   D24       -3.00985  -0.00669   0.00000  -0.07224  -0.06828  -3.07813
   D25       -2.89554  -0.00083   0.00000  -0.17516  -0.15575  -3.05129
   D26        0.42022  -0.00899   0.00000  -0.24769  -0.23780   0.18242
   D27        0.27688   0.00314   0.00000   0.00814   0.00258   0.27946
   D28       -0.11350  -0.00016   0.00000   0.00587   0.00061  -0.11289
   D29        2.82085   0.00573   0.00000   0.07991   0.09087   2.91173
         Item               Value     Threshold  Converged?
 Maximum Force            0.064191     0.000450     NO 
 RMS     Force            0.012391     0.000300     NO 
 Maximum Displacement     0.212267     0.001800     NO 
 RMS     Displacement     0.067387     0.001200     NO 
 Predicted change in Energy=-2.141483D-02
 GradGradGradGradGradGradGradGradGradGradGradGradGradGradGradGradGradGrad

                          Input orientation:                          
 ---------------------------------------------------------------------
 Center     Atomic      Atomic             Coordinates (Angstroms)
 Number     Number       Type             X           Y           Z
 ---------------------------------------------------------------------
      1          7           0        0.848850   -0.936049    0.000388
      2          7           0        2.148495   -0.855020   -0.015967
      3          6           0        2.521209    0.435153    0.033285
      4          6           0        1.338182    1.170114    0.052223
      5          7           0        0.368275    0.256375    0.016544
      6          1           0        3.559256    0.731666    0.044557
      7          1           0        1.153777    2.233387    0.072464
      8          1           0        2.729842   -1.699413   -0.039556
      9          1           0       -0.108041   -1.630720   -0.150865
     10          6           0       -1.171534    0.084708    0.101409
     11          8           0       -1.407585   -1.151190    0.089938
     12          8           0       -1.845272    1.096068    0.060800
 ---------------------------------------------------------------------
                    Distance matrix (angstroms):
                    1          2          3          4          5
     1  N    0.000000
     2  N    1.302271   0.000000
     3  C    2.162883   1.343833   0.000000
     4  C    2.162882   2.182298   1.392867   0.000000
     5  N    1.285725   2.098913   2.160408   1.333008   0.000000
     6  H    3.182691   2.124025   1.079625   2.263949   3.226305
     7  H    3.184887   3.245850   2.259436   1.079335   2.128079
     8  H    2.030382   1.025437   2.145974   3.190506   3.066798
     9  H    1.192092   2.389950   3.348834   3.158714   1.953466
    10  C    2.265856   3.452457   3.709960   2.734813   1.551671
    11  O    2.268437   3.569964   4.237348   3.595708   2.267225
    12  O    3.375121   4.445538   4.416301   3.184326   2.367875
                    6          7          8          9         10
     6  H    0.000000
     7  H    2.835891   0.000000
     8  H    2.570048   4.238331   0.000000
     9  H    4.366706   4.071042   2.840895   0.000000
    10  C    4.775161   3.166186   4.292283   2.034048   0.000000
    11  O    5.311941   4.244555   4.175598   1.405970   1.258291
    12  O    5.416823   3.207480   5.362504   3.240084   1.215903
                   11         12
    11  O    0.000000
    12  O    2.289670   0.000000
 Stoichiometry    C3H4N3O2(1+)
 Framework group  C1[X(C3H4N3O2)]
 Deg. of freedom    30
 Full point group                 C1      NOp   1
 Largest Abelian subgroup         C1      NOp   1
 Largest concise Abelian subgroup C1      NOp   1
                         Standard orientation:                         
 ---------------------------------------------------------------------
 Center     Atomic      Atomic             Coordinates (Angstroms)
 Number     Number       Type             X           Y           Z
 ---------------------------------------------------------------------
      1          7           0       -0.532898   -0.890089    0.015544
      2          7           0       -1.827852   -0.752278    0.012024
      3          6           0       -2.142954    0.553621   -0.022973
      4          6           0       -0.928795    1.236084   -0.011090
      5          7           0       -0.000480    0.280172    0.025978
      6          1           0       -3.166715    0.895601   -0.046464
      7          1           0       -0.697795    2.290410   -0.011591
      8          1           0       -2.445852   -1.570567    0.012858
      9          1           0        0.390028   -1.628332    0.171392
     10          6           0        1.531576    0.042295   -0.036514
     11          8           0        1.713176   -1.202815   -0.040658
     12          8           0        2.248072    1.022347    0.030964
 ---------------------------------------------------------------------
 Rotational constants (GHZ):           5.4127040           1.7502444           1.3233453
 Standard basis: 6-31+G(d,p) (6D, 7F)
 There are   172 symmetry adapted cartesian basis functions of A   symmetry.
 There are   172 symmetry adapted basis functions of A   symmetry.
   172 basis functions,   284 primitive gaussians,   172 cartesian basis functions
    29 alpha electrons       29 beta electrons
       nuclear repulsion energy       377.4241384969 Hartrees.
 NAtoms=   12 NActive=   12 NUniq=   12 SFac= 1.00D+00 NAtFMM=   60 NAOKFM=F Big=F
 Integral buffers will be    131072 words long.
 Raffenetti 2 integral format.
 Two-electron integral symmetry is turned on.
 ------------------------------------------------------------------------------
 Polarizable Continuum Model (PCM)
 =================================
 Model                : PCM.
 Atomic radii         : SMD-Coulomb.
 Polarization charges : Total charges.
 Charge compensation  : None.
 Solution method      : Matrix inversion.
 Cavity type          : VdW (van der Waals Surface) (Alpha=1.000).
 Cavity algorithm     : GePol (No added spheres)
                        Default sphere list used, NSphG=   12.
                        Lebedev-Laikov grids with approx.  5.0 points / Ang**2.
                        Smoothing algorithm: York/Karplus (Gamma=1.0000).
                        Polarization charges: spherical gaussians, with
                                              point-specific exponents (IZeta= 3).
                        Self-potential: point-specific (ISelfS= 7).
                        Self-field    : sphere-specific E.n sum rule (ISelfD= 2).
 1st derivatives      : Analytical E(r).r(x)/FMM algorithm (CHGder, D1EAlg=3).
                        Cavity 1st derivative terms included.
 Solvent              : Water, Eps=  78.355300 Eps(inf)=   1.777849
 ------------------------------------------------------------------------------
 Spheres list:
 ISph  on   Nord     Re0    Alpha      Xe            Ye            Ze
    1   N      1    1.8900  1.000     -0.532898     -0.890089      0.015544
    2   N      2    1.8900  1.000     -1.827852     -0.752278      0.012024
    3   C      3    1.8500  1.000     -2.142954      0.553621     -0.022973
    4   C      4    1.8500  1.000     -0.928795      1.236084     -0.011090
    5   N      5    1.8900  1.000     -0.000480      0.280172      0.025978
    6   H      6    1.2000  1.000     -3.166715      0.895601     -0.046464
    7   H      7    1.2000  1.000     -0.697795      2.290410     -0.011591
    8   H      8    1.2000  1.000     -2.445852     -1.570567      0.012858
    9   H      9    1.2000  1.000      0.390028     -1.628332      0.171392
   10   C     10    1.8500  1.000      1.531576      0.042295     -0.036514
   11   O     11    1.5200  1.000      1.713176     -1.202815     -0.040658
   12   O     12    1.5200  1.000      2.248072      1.022347      0.030964
 ------------------------------------------------------------------------------
 ------------------------------------------------------------------------------
 Atomic radii for non-electrostatic terms: SMD-CDS.
 ------------------------------------------------------------------------------
 Nuclear repulsion after PCM non-electrostatic terms =      377.4332702651 Hartrees.
 One-electron integrals computed using PRISM.
 NBasis=   172 RedAO= T EigKep=  2.29D-05  NBF=   172
 NBsUse=   172 1.00D-06 EigRej= -1.00D+00 NBFU=   172
 Initial guess from the checkpoint file:  "/scratch/gongke2021/2-H-1-H-Tz-2-TS/Gau-32209.chk"
 B after Tr=     0.000000   -0.000000    0.000000
         Rot=    0.999962   -0.001209    0.000491    0.008576 Ang=  -0.99 deg.
 ExpMin= 4.38D-02 ExpMax= 5.48D+03 ExpMxC= 8.25D+02 IAcc=2 IRadAn=         4 AccDes= 0.00D+00
 Harris functional with IExCor= 1009 and IRadAn=       4 diagonalized for initial guess.
 HarFok:  IExCor= 1009 AccDes= 0.00D+00 IRadAn=         4 IDoV= 1 UseB2=F ITyADJ=14
 ICtDFT=  3500011 ScaDFX=  1.000000  1.000000  1.000000  1.000000
 FoFCou: FMM=F IPFlag=           0 FMFlag=      100000 FMFlg1=           0
         NFxFlg=           0 DoJE=T BraDBF=F KetDBF=T FulRan=T
         wScrn=  0.000000 ICntrl=       500 IOpCl=  0 I1Cent=   200000004 NGrid=           0
         NMat0=    1 NMatS0=      1 NMatT0=    0 NMatD0=    1 NMtDS0=    0 NMtDT0=    0
 Petite list used in FoFCou.
 Keep R1 ints in memory in canonical form, NReq=134699993.
 Requested convergence on RMS density matrix=1.00D-08 within 128 cycles.
 Requested convergence on MAX density matrix=1.00D-06.
 Requested convergence on             energy=1.00D-06.
 No special actions if energy rises.
 Inv3:  Mode=1 IEnd=     3158028.
 Iteration    1 A*A^-1 deviation from unit magnitude is 3.11D-15 for    379.
 Iteration    1 A*A^-1 deviation from orthogonality  is 2.66D-15 for    724    467.
 Iteration    1 A^-1*A deviation from unit magnitude is 2.89D-15 for     52.
 Iteration    1 A^-1*A deviation from orthogonality  is 2.33D-15 for    922    791.
 Error on total polarization charges =  0.02769
 SCF Done:  E(RM062X) =  -431.042764202     A.U. after   13 cycles
            NFock= 13  Conv=0.45D-08     -V/T= 2.0086
 SMD-CDS (non-electrostatic) energy       (kcal/mol) =       5.73
 (included in total energy above)
 D1PCM: PCM CHGder 1st derivatives, ID1Alg=3 FixD1E=F DoIter=F DoCFld=F I1PDM=0.
 Calling FoFJK, ICntrl=      2127 FMM=F ISym2X=0 I1Cent= 0 IOpClX= 0 NMat=1 NMatS=1 NMatT=0.
 ***** Axes restored to original set *****
 -------------------------------------------------------------------
 Center     Atomic                   Forces (Hartrees/Bohr)
 Number     Number              X              Y              Z
 -------------------------------------------------------------------
      1        7           0.021031958   -0.021203883   -0.011698099
      2        7          -0.006382301    0.006933393    0.000901645
      3        6          -0.001224462    0.000532749   -0.001465958
      4        6           0.007188172    0.004890278   -0.000421583
      5        7          -0.005640126   -0.005717738    0.008465730
      6        1          -0.000105240    0.000789939    0.000280296
      7        1          -0.000428618    0.000354979    0.000938383
      8        1          -0.000296635   -0.000579468   -0.000245033
      9        1          -0.002610751    0.007332154    0.014337816
     10        6          -0.033833022    0.016983026   -0.016021325
     11        8           0.005559531    0.005777096   -0.002728757
     12        8           0.016741494   -0.016092523    0.007656884
 -------------------------------------------------------------------
 Cartesian Forces:  Max     0.033833022 RMS     0.010491001

 GradGradGradGradGradGradGradGradGradGradGradGradGradGradGradGradGradGrad
 Berny optimization.
 FormGI is forming the generalized inverse of G from B-inverse, IUseBI=4.
 Internal  Forces:  Max     0.022911845 RMS     0.004754887
 Search for a saddle point.
 Step number   3 out of a maximum of   72
 All quantities printed in internal units (Hartrees-Bohrs-Radians)
 Swapping is turned off.
 Update second derivatives using D2CorX and points    2    3
 ITU=  0  0  0
     Eigenvalues ---   -0.06679  -0.00480   0.00886   0.01055   0.01264
     Eigenvalues ---    0.01567   0.02329   0.03134   0.03591   0.05508
     Eigenvalues ---    0.05686   0.09985   0.10612   0.10867   0.11273
     Eigenvalues ---    0.15101   0.20216   0.23284   0.24208   0.27313
     Eigenvalues ---    0.31235   0.37138   0.38868   0.39097   0.41576
     Eigenvalues ---    0.44309   0.45306   0.52301   0.55979   0.61658
 Eigenvectors required to have negative eigenvalues:
                          R11       R3        A2        R10       A3
   1                    0.70194  -0.57559  -0.20744   0.19090   0.17123
                          R12       A19       A18       A16       A20
   1                   -0.12993   0.10890  -0.08277  -0.07827  -0.05518
 RFO step:  Lambda0=1.188543185D-05 Lambda=-9.47270427D-03.
 Linear search not attempted -- option 19 set.
 Iteration  1 RMS(Cart)=  0.06035669 RMS(Int)=  0.02499353
 Iteration  2 RMS(Cart)=  0.01534325 RMS(Int)=  0.00272390
 Iteration  3 RMS(Cart)=  0.00051591 RMS(Int)=  0.00268533
 Iteration  4 RMS(Cart)=  0.00000087 RMS(Int)=  0.00268533
 Variable       Old X    -DE/DX   Delta X   Delta X   Delta X     New X
                                 (Linear)    (Quad)   (Total)
    R1        2.46094  -0.00454   0.00000   0.00639   0.00653   2.46747
    R2        2.42967   0.00808   0.00000   0.02243   0.02375   2.45342
    R3        2.25273  -0.00143   0.00000  -0.04365  -0.04339   2.20933
    R4        2.53948   0.00133   0.00000  -0.00909  -0.00974   2.52974
    R5        1.93780   0.00032   0.00000  -0.00121  -0.00121   1.93659
    R6        2.63214  -0.00277   0.00000  -0.00358  -0.00402   2.62811
    R7        2.04019   0.00012   0.00000  -0.00011  -0.00011   2.04008
    R8        2.51902   0.00658   0.00000   0.00503   0.00544   2.52446
    R9        2.03965   0.00044   0.00000   0.00146   0.00146   2.04110
   R10        2.93223   0.00695   0.00000   0.18102   0.18171   3.11395
   R11        2.65690   0.00310   0.00000   0.01443   0.01345   2.67035
   R12        2.37783  -0.00559   0.00000  -0.03168  -0.03249   2.34533
   R13        2.29772  -0.02291   0.00000  -0.04746  -0.04746   2.25026
    A1        1.89175  -0.00160   0.00000  -0.01270  -0.01271   1.87905
    A2        2.56028   0.01177   0.00000   0.02382   0.01370   2.57398
    A3        1.81523  -0.00965   0.00000  -0.04024  -0.04341   1.77183
    A4        1.91354   0.00318   0.00000   0.01348   0.01386   1.92740
    A5        2.11161  -0.00214   0.00000  -0.00648  -0.00701   2.10460
    A6        2.25773  -0.00104   0.00000  -0.00781  -0.00810   2.24963
    A7        1.84577   0.00101   0.00000  -0.00366  -0.00383   1.84194
    A8        2.13026   0.00030   0.00000   0.00262   0.00267   2.13293
    A9        2.30713  -0.00131   0.00000   0.00113   0.00118   2.30831
   A10        1.82961  -0.00049   0.00000   0.00776   0.00852   1.83813
   A11        2.29852   0.00058   0.00000   0.00348   0.00300   2.30153
   A12        2.15491  -0.00010   0.00000  -0.01092  -0.01138   2.14353
   A13        1.94347  -0.00211   0.00000  -0.00571  -0.00682   1.93665
   A14        1.84315   0.00677   0.00000   0.00844   0.00495   1.84810
   A15        2.49214  -0.00461   0.00000   0.00878   0.00590   2.49804
   A16        2.11935   0.00582   0.00000   0.09297   0.09216   2.21151
   A17        1.86955  -0.00652   0.00000  -0.05050  -0.05345   1.81610
   A18        2.04431  -0.00214   0.00000  -0.03639  -0.03798   2.00633
   A19        2.36417   0.00918   0.00000   0.09827   0.09646   2.46063
   A20        1.73469   0.00466   0.00000   0.02453   0.02093   1.75562
    D1        0.03434  -0.00012   0.00000   0.02067   0.01874   0.05309
    D2       -3.13137  -0.00025   0.00000  -0.01162  -0.01189   3.13993
    D3        2.93212   0.00145   0.00000  -0.20822  -0.21276   2.71936
    D4       -0.23359   0.00131   0.00000  -0.24051  -0.24339  -0.47698
    D5       -0.03289  -0.00021   0.00000  -0.02348  -0.02043  -0.05332
    D6       -3.09735  -0.00044   0.00000  -0.12409  -0.12056   3.06528
    D7       -3.03743  -0.00388   0.00000   0.09703   0.09632  -2.94111
    D8        0.18130  -0.00411   0.00000  -0.00358  -0.00382   0.17748
    D9        3.07674   0.00274   0.00000   0.31519   0.31702  -2.88942
   D10       -0.30319   0.00472   0.00000   0.09305   0.09417  -0.20902
   D11       -0.02264   0.00037   0.00000  -0.01008  -0.00981  -0.03245
   D12        3.12580  -0.00009   0.00000  -0.02160  -0.02091   3.10489
   D13       -3.13749   0.00053   0.00000   0.02566   0.02402  -3.11348
   D14        0.01095   0.00007   0.00000   0.01414   0.01292   0.02387
   D15        0.00296  -0.00059   0.00000  -0.00411  -0.00291   0.00005
   D16       -3.12034  -0.00020   0.00000  -0.02469  -0.02536   3.13749
   D17        3.13672  -0.00005   0.00000   0.00908   0.00978  -3.13669
   D18        0.01341   0.00034   0.00000  -0.01150  -0.01266   0.00075
   D19        0.01813   0.00048   0.00000   0.01707   0.01454   0.03267
   D20        3.03669   0.00184   0.00000   0.17690   0.17445  -3.07205
   D21       -3.13983   0.00014   0.00000   0.03566   0.03459  -3.10524
   D22       -0.12128   0.00150   0.00000   0.19549   0.19450   0.07322
   D23       -0.02866   0.00225   0.00000  -0.10433  -0.10135  -0.13001
   D24       -3.07813  -0.00294   0.00000  -0.21204  -0.20711   2.99794
   D25       -3.05129   0.00126   0.00000  -0.25826  -0.25610   2.97579
   D26        0.18242  -0.00393   0.00000  -0.36597  -0.36187  -0.17945
   D27        0.27946  -0.00087   0.00000  -0.15200  -0.15900   0.12046
   D28       -0.11289   0.00016   0.00000   0.14210   0.13482   0.02193
   D29        2.91173   0.00554   0.00000   0.26520   0.27145  -3.10001
         Item               Value     Threshold  Converged?
 Maximum Force            0.022912     0.000450     NO 
 RMS     Force            0.004755     0.000300     NO 
 Maximum Displacement     0.345027     0.001800     NO 
 RMS     Displacement     0.070574     0.001200     NO 
 Predicted change in Energy=-7.248612D-03
 GradGradGradGradGradGradGradGradGradGradGradGradGradGradGradGradGradGrad

                          Input orientation:                          
 ---------------------------------------------------------------------
 Center     Atomic      Atomic             Coordinates (Angstroms)
 Number     Number       Type             X           Y           Z
 ---------------------------------------------------------------------
      1          7           0        0.864373   -0.950409    0.088567
      2          7           0        2.164060   -0.854196    0.008067
      3          6           0        2.537915    0.431197    0.000284
      4          6           0        1.356023    1.163118    0.039941
      5          7           0        0.378277    0.253273    0.068050
      6          1           0        3.575347    0.728542   -0.027692
      7          1           0        1.166670    2.226422    0.052568
      8          1           0        2.750222   -1.694805    0.009333
      9          1           0       -0.091285   -1.591651   -0.117316
     10          6           0       -1.260102    0.077903    0.050593
     11          8           0       -1.431029   -1.142995   -0.092642
     12          8           0       -1.875017    1.088678    0.185467
 ---------------------------------------------------------------------
                    Distance matrix (angstroms):
                    1          2          3          4          5
     1  N    0.000000
     2  N    1.305727   0.000000
     3  C    2.171951   1.338679   0.000000
     4  C    2.170503   2.173361   1.390738   0.000000
     5  N    1.298291   2.102167   2.168014   1.335888   0.000000
     6  H    3.190889   2.120865   1.079566   2.262483   3.233621
     7  H    3.191384   3.238360   2.259620   1.080106   2.124881
     8  H    2.028997   1.024798   2.136595   3.180008   3.069947
     9  H    1.169129   2.376161   3.319403   3.115796   1.912745
    10  C    2.360564   3.549015   3.814745   2.832299   1.647831
    11  O    2.310584   3.608076   4.270742   3.619861   2.291064
    12  O    3.416361   4.485574   4.465483   3.235172   2.406038
                    6          7          8          9         10
     6  H    0.000000
     7  H    2.837572   0.000000
     8  H    2.560237   4.229128   0.000000
     9  H    4.339991   4.023555   2.846198   0.000000
    10  C    4.879655   3.241198   4.384848   2.044929   0.000000
    11  O    5.345154   4.257006   4.218739   1.413087   1.241098
    12  O    5.466407   3.250228   5.401077   3.233812   1.190789
                   11         12
    11  O    0.000000
    12  O    2.292342   0.000000
 Stoichiometry    C3H4N3O2(1+)
 Framework group  C1[X(C3H4N3O2)]
 Deg. of freedom    30
 Full point group                 C1      NOp   1
 Largest Abelian subgroup         C1      NOp   1
 Largest concise Abelian subgroup C1      NOp   1
                         Standard orientation:                         
 ---------------------------------------------------------------------
 Center     Atomic      Atomic             Coordinates (Angstroms)
 Number     Number       Type             X           Y           Z
 ---------------------------------------------------------------------
      1          7           0       -0.554388   -0.896311   -0.098818
      2          7           0       -1.849501   -0.746777   -0.026405
      3          6           0       -2.166944    0.551989    0.040675
      4          6           0       -0.953834    1.232029    0.048466
      5          7           0       -0.016480    0.282301   -0.014620
      6          1           0       -3.190664    0.893181    0.073044
      7          1           0       -0.718100    2.285286    0.089786
      8          1           0       -2.471749   -1.559610   -0.074570
      9          1           0        0.369841   -1.588388    0.084738
     10          6           0        1.612356    0.034061    0.010235
     11          8           0        1.728095   -1.198706    0.095160
     12          8           0        2.272378    1.022027   -0.068954
 ---------------------------------------------------------------------
 Rotational constants (GHZ):           5.4196045           1.6945037           1.2938330
 Standard basis: 6-31+G(d,p) (6D, 7F)
 There are   172 symmetry adapted cartesian basis functions of A   symmetry.
 There are   172 symmetry adapted basis functions of A   symmetry.
   172 basis functions,   284 primitive gaussians,   172 cartesian basis functions
    29 alpha electrons       29 beta electrons
       nuclear repulsion energy       374.9655599116 Hartrees.
 NAtoms=   12 NActive=   12 NUniq=   12 SFac= 1.00D+00 NAtFMM=   60 NAOKFM=F Big=F
 Integral buffers will be    131072 words long.
 Raffenetti 2 integral format.
 Two-electron integral symmetry is turned on.
 ------------------------------------------------------------------------------
 Polarizable Continuum Model (PCM)
 =================================
 Model                : PCM.
 Atomic radii         : SMD-Coulomb.
 Polarization charges : Total charges.
 Charge compensation  : None.
 Solution method      : Matrix inversion.
[...]
 RMS     Force            0.000006     0.000300     YES
 Maximum Displacement     0.000484     0.001800     YES
 RMS     Displacement     0.000115     0.001200     YES
 Predicted change in Energy=-7.485865D-09
 Optimization completed.
    -- Stationary point found.
                           ----------------------------
                           !   Optimized Parameters   !
                           ! (Angstroms and Degrees)  !
 --------------------------                            --------------------------
 ! Name  Definition              Value          Derivative Info.                !
 --------------------------------------------------------------------------------
 ! R1    R(1,2)                  1.2992         -DE/DX =    0.0                 !
 ! R2    R(1,5)                  1.293          -DE/DX =    0.0                 !
 ! R3    R(1,9)                  1.1759         -DE/DX =    0.0                 !
 ! R4    R(2,3)                  1.3435         -DE/DX =    0.0                 !
 ! R5    R(2,8)                  1.0252         -DE/DX =    0.0                 !
 ! R6    R(3,4)                  1.3893         -DE/DX =    0.0                 !
 ! R7    R(3,6)                  1.0796         -DE/DX =    0.0                 !
 ! R8    R(4,5)                  1.3383         -DE/DX =    0.0                 !
 ! R9    R(4,7)                  1.0797         -DE/DX =    0.0                 !
 ! R10   R(5,10)                 1.6343         -DE/DX =    0.0                 !
 ! R11   R(9,11)                 1.4071         -DE/DX =    0.0                 !
 ! R12   R(10,11)                1.2442         -DE/DX =    0.0                 !
 ! R13   R(10,12)                1.1927         -DE/DX =    0.0                 !
 ! A1    A(2,1,5)              108.2586         -DE/DX =    0.0                 !
 ! A2    A(2,1,9)              149.8269         -DE/DX =    0.0                 !
 ! A3    A(5,1,9)              101.9145         -DE/DX =    0.0                 !
 ! A4    A(1,2,3)              110.0544         -DE/DX =    0.0                 !
 ! A5    A(1,2,8)              120.6852         -DE/DX =    0.0                 !
 ! A6    A(3,2,8)              129.2604         -DE/DX =    0.0                 !
 ! A7    A(2,3,4)              105.6843         -DE/DX =    0.0                 !
 ! A8    A(2,3,6)              122.1524         -DE/DX =    0.0                 !
 ! A9    A(4,3,6)              132.1633         -DE/DX =    0.0                 !
 ! A10   A(3,4,5)              105.0761         -DE/DX =    0.0                 !
 ! A11   A(3,4,7)              131.7943         -DE/DX =    0.0                 !
 ! A12   A(5,4,7)              123.1296         -DE/DX =    0.0                 !
 ! A13   A(1,5,4)              110.9264         -DE/DX =    0.0                 !
 ! A14   A(1,5,10)             106.8638         -DE/DX =    0.0                 !
 ! A15   A(4,5,10)             142.2098         -DE/DX =    0.0                 !
 ! A16   A(1,9,11)             126.2038         -DE/DX =    0.0                 !
 ! A17   A(5,10,11)            103.7779         -DE/DX =    0.0                 !
 ! A18   A(5,10,12)            115.2787         -DE/DX =    0.0                 !
 ! A19   A(11,10,12)           140.9433         -DE/DX =    0.0                 !
 ! A20   A(9,11,10)            101.24           -DE/DX =    0.0                 !
 ! D1    D(5,1,2,3)             -0.0025         -DE/DX =    0.0                 !
 ! D2    D(5,1,2,8)            179.9948         -DE/DX =    0.0                 !
 ! D3    D(9,1,2,3)           -179.9491         -DE/DX =    0.0                 !
 ! D4    D(9,1,2,8)              0.0481         -DE/DX =    0.0                 !
 ! D5    D(2,1,5,4)              0.0016         -DE/DX =    0.0                 !
 ! D6    D(2,1,5,10)          -179.9844         -DE/DX =    0.0                 !
 ! D7    D(9,1,5,4)            179.9742         -DE/DX =    0.0                 !
 ! D8    D(9,1,5,10)            -0.0118         -DE/DX =    0.0                 !
 ! D9    D(2,1,9,11)           179.9599         -DE/DX =    0.0                 !
 ! D10   D(5,1,9,11)             0.0116         -DE/DX =    0.0                 !
 ! D11   D(1,2,3,4)              0.0023         -DE/DX =    0.0                 !
 ! D12   D(1,2,3,6)           -179.9965         -DE/DX =    0.0                 !
 ! D13   D(8,2,3,4)           -179.9946         -DE/DX =    0.0                 !
 ! D14   D(8,2,3,6)              0.0065         -DE/DX =    0.0                 !
 ! D15   D(2,3,4,5)             -0.0012         -DE/DX =    0.0                 !
 ! D16   D(2,3,4,7)           -180.0026         -DE/DX =    0.0                 !
 ! D17   D(6,3,4,5)            179.9974         -DE/DX =    0.0                 !
 ! D18   D(6,3,4,7)             -0.004          -DE/DX =    0.0                 !
 ! D19   D(3,4,5,1)             -0.0002         -DE/DX =    0.0                 !
 ! D20   D(3,4,5,10)           179.978          -DE/DX =    0.0                 !
 ! D21   D(7,4,5,1)            180.001          -DE/DX =    0.0                 !
 ! D22   D(7,4,5,10)            -0.0208         -DE/DX =    0.0                 !
 ! D23   D(1,5,10,11)            0.0105         -DE/DX =    0.0                 !
 ! D24   D(1,5,10,12)         -179.9877         -DE/DX =    0.0                 !
 ! D25   D(4,5,10,11)         -179.9682         -DE/DX =    0.0                 !
 ! D26   D(4,5,10,12)            0.0336         -DE/DX =    0.0                 !
 ! D27   D(1,9,11,10)           -0.0045         -DE/DX =    0.0                 !
 ! D28   D(5,10,11,9)           -0.0039         -DE/DX =    0.0                 !
 ! D29   D(12,10,11,9)         179.9935         -DE/DX =    0.0                 !
 --------------------------------------------------------------------------------
 GradGradGradGradGradGradGradGradGradGradGradGradGradGradGradGradGradGrad


 ----------------------------------------------------------------------

 Electric dipole moment (input orientation):
 (Debye = 10**-18 statcoulomb cm , SI units = C m)
                  (au)            (Debye)         (10**-30 SI)
   Tot        0.544451D+01      0.138386D+02      0.461605D+02
   x          0.537027D+01      0.136499D+02      0.455310D+02
   y         -0.891866D+00     -0.226690D+01     -0.756156D+01
   z         -0.866547D-01     -0.220254D+00     -0.734689D+00

 Dipole polarizability, Alpha (input orientation).
 (esu units = cm**3 , SI units = C**2 m**2 J**-1)
 Alpha(0;0):
               (au)            (10**-24 esu)      (10**-40 SI)
   iso        0.750237D+02      0.111174D+02      0.123697D+02
   aniso      0.541384D+02      0.802249D+01      0.892622D+01
   xx         0.973739D+02      0.144293D+02      0.160548D+02
   yx        -0.103728D+01     -0.153709D+00     -0.171024D+00
   yy         0.883031D+02      0.130852D+02      0.145592D+02
   zx        -0.642046D+00     -0.951414D-01     -0.105859D+00
   zy         0.168425D+01      0.249580D+00      0.277695D+00
   zz         0.393943D+02      0.583763D+01      0.649523D+01

 ----------------------------------------------------------------------

 Dipole orientation:
     7         -0.25734070         -1.48052327          1.91598614
     7         -0.18119123         -0.90758181          4.30209591
     6          0.15207958          1.59310697          4.58677316
     6          0.28280890          2.57308946          2.15472514
     7          0.01680112          0.57622432          0.62570951
     1          0.26896767          2.47054925          6.42489851
     1          0.53657824          4.47743317          1.46791042
     1         -0.36456310         -2.28188468          5.65517715
     1         -0.46134509         -3.00471894          0.31180328
     6         -0.08941406         -0.21662963         -2.35736383
     8         -0.40062456         -2.54668364         -2.30675720
     8          0.13810965          1.48749989         -3.81487578

 Electric dipole moment (dipole orientation):
 (Debye = 10**-18 statcoulomb cm , SI units = C m)
                  (au)            (Debye)         (10**-30 SI)
   Tot        0.544451D+01      0.138386D+02      0.461605D+02
   x          0.000000D+00      0.000000D+00      0.000000D+00
   y          0.000000D+00      0.000000D+00      0.000000D+00
   z          0.544451D+01      0.138386D+02      0.461605D+02

 Dipole polarizability, Alpha (dipole orientation).
 (esu units = cm**3 , SI units = C**2 m**2 J**-1)
 Alpha(0;0):
               (au)            (10**-24 esu)      (10**-40 SI)
   iso        0.750237D+02      0.111174D+02      0.123697D+02
   aniso      0.541384D+02      0.802249D+01      0.892622D+01
   xx         0.401852D+02      0.595483D+01      0.662564D+01
   yx         0.641210D+01      0.950175D+00      0.105721D+01
   yy         0.874061D+02      0.129522D+02      0.144113D+02
   zx         0.601942D-01      0.891986D-02      0.992468D-02
   zy         0.455867D+00      0.675525D-01      0.751623D-01
   zz         0.974799D+02      0.144450D+02      0.160723D+02

 ----------------------------------------------------------------------
 1\1\GINC-NODE5\Freq\RM062X\6-31+G(d,p)\C3H4N3O2(1+)\GONGKE2021\13-May-
 2023\0\\#N Geom=AllCheck Guess=TCheck SCRF=Check GenChk RM062X/6-31+G(
 d,p) Freq\\2-H-1-H-Tz\\1,1\N,0.8698885216,-0.9505415906,-0.0101538407\
 N,2.1655826189,-0.8558438983,-0.0203324175\C,2.5334483057,0.4356592383
 ,0.0200866697\C,1.3499453297,1.1622825222,0.0572840247\N,0.3767623981,
 0.2438305808,0.035910269\H,3.5698172459,0.7381394287,0.0196549721\H,1.
 1584387904,2.2241242255,0.0956881364\H,2.7513300301,-1.6964867982,-0.0
 551464467\H,-0.1010882638,-1.6137849617,-0.0222847195\C,-1.2498112321,
 0.08506869,0.0477468056\O,-1.4277135986,-1.145747808,0.0077806089\O,-1
 .8611450758,1.1083777912,0.0889857279\\Version=ES64L-G16RevA.03\State=
 1-A\HF=-431.0484024\RMSD=2.817e-09\RMSF=1.466e-05\ZeroPoint=0.0831356\
 Thermal=0.0891275\Dipole=5.3702686,-0.8918662,-0.0866547\DipoleDeriv=-
 0.6971791,-0.6403247,-0.0144558,-1.0067531,-0.7644401,-0.0160563,-0.02
 69696,-0.0201996,0.0085029,-0.2199013,0.6934035,0.0255156,0.5334794,-0
 .0801581,-0.0062098,0.0200675,-0.0077661,-0.0589186,0.2134961,0.200657
 3,0.0050726,-0.4333331,-0.1025109,-0.0002909,-0.0167413,-0.0068648,0.0
 366691,-0.2414711,-0.4420425,-0.0123124,0.2036309,0.1854372,0.0031341,
 0.0098824,0.0099145,0.0315042,-1.4389196,0.100698,0.0186851,0.3022092,
 0.2760881,0.0062348,0.0256923,0.0082819,0.0071229,0.3022652,0.037013,0
 .0006718,0.064602,0.2118319,-0.0018204,0.0016103,-0.0015363,0.2451101,
 0.1909722,0.0014561,0.0006435,-0.0076825,0.3209961,0.0025692,0.0003363
 ,0.002481,0.2484637,0.505905,-0.2047599,-0.0078055,-0.2274357,0.612470
 8,0.0086269,-0.0085802,0.0083776,0.4298684,1.8641441,0.1551739,-0.0099
 032,0.2155866,0.6039464,0.0037959,-0.0079725,0.0045677,0.4265333,3.590
 6874,-0.2892277,-0.041452,-0.6286194,3.274583,0.0978841,-0.0531009,0.0
 943129,0.5936983,-1.6331356,-0.1520571,0.0068554,0.1461781,-1.9277144,
 -0.0504276,0.017126,-0.0472685,-0.4918437,-1.4368634,0.54001,0.0284848
 ,0.8381375,-1.61053,-0.0474399,0.0386497,-0.0443003,-0.4767107\Polar=9
 7.3738667,-1.0372787,88.3030703,-0.6420461,1.6842478,39.3942529\Quadru
 pole=4.053347,2.1379296,-6.1912766,-1.0155019,-0.1413154,0.2965569\PG=
 C01 [X(C3H4N3O2)]\NImag=1\\0.85748614,0.02802706,0.75186425,-0.0067855
 4,0.02136380,0.11812535,-0.41646325,0.01375891,0.00417408,0.85284798,-
 0.05850346,-0.13172034,-0.00177625,-0.16699656,0.94239366,0.00168458,-
 0.00253404,-0.06133118,-0.01328200,0.02973203,0.12504296,-0.06796072,-
 0.02014057,0.00019501,-0.16065972,-0.06762352,-0.00134286,0.94819355,-
 0.09829986,-0.06937917,-0.00194092,-0.04531615,-0.34983073,-0.00920293
 ,0.09254161,0.63259674,-0.00249378,-0.00273452,0.01636782,-0.00057628,
 -0.00897637,-0.06725618,-0.00526206,0.01596865,0.13873590,-0.02801576,
 -0.07333966,-0.00208480,0.03422185,0.09075494,0.00287804,-0.29323234,0
 .08586972,0.00523854,0.60344137,-0.00757087,-0.10704340,-0.00411059,0.
 00740011,-0.06217802,-0.00258071,0.12330473,-0.19165233,-0.00536922,-0
 .06571536,0.95854414,0.00018569,-0.00342816,0.01506602,0.00001406,-0.0
 0345060,0.01085639,0.00652305,-0.00498011,-0.07257685,-0.00712029,0.02
 888634,0.13684587,-0.14805453,0.06595377,0.00293730,-0.13156180,0.0491
 8219,0.00321995,-0.08660537,0.02801244,0.00198927,-0.25293888,-0.10765
 793,-0.00171809,0.70068136,0.13193319,-0.37238920,-0.01121250,0.048151
 74,-0.08021610,-0.00383501,-0.06385098,0.06385324,0.00241360,-0.106879
 51,-0.24494884,-0.00510576,0.01906328,0.79090268,0.00520456,-0.0105620
 5,-0.08458186,0.00318436,-0.00384421,0.01668918,-0.00115772,0.00147046
 ,0.01275073,-0.00168298,-0.00509626,-0.06391746,-0.00535091,0.02254645
 ,0.12712014,0.00488867,0.00299211,0.00011908,0.00212460,0.00094262,-0.
 00000770,-0.36291397,-0.08863244,0.00039194,-0.00442721,-0.00681273,-0
 .00016913,-0.00193497,0.00094493,0.00010928,0.36234759,-0.00126737,-0.
 00599991,-0.00041202,-0.03263119,-0.00460228,0.00023948,-0.07675887,-0
 .08068874,-0.00079911,0.01292162,0.01239107,0.00023056,0.00710899,-0.0
 0181549,-0.00032328,0.09179622,0.07834350,-0.00002719,-0.00045983,0.00
 645501,-0.00115708,-0.00011039,-0.00169410,0.00080029,-0.00067475,-0.0
 3402833,0.00050538,0.00043531,0.00175233,0.00031976,-0.00025705,0.0054
 3597,-0.00037273,0.00087432,0.02491588,-0.00499497,-0.00449412,-0.0000
 1486,-0.00526371,0.00392306,0.00024177,0.00601807,0.01927930,0.0006122
 2,-0.06946982,0.06754409,0.00269391,0.01007902,-0.02837023,-0.00112161
 ,0.00015101,-0.00066881,-0.00004540,0.06090088,-0.00211958,0.00351025,
 -0.00014185,-0.00029128,0.00178384,-0.00011105,-0.00087190,0.00087189,
 -0.00000572,0.05876813,-0.37037233,-0.01217209,0.00329683,-0.01274896,
 -0.00032689,0.00019269,-0.00005527,0.00006526,-0.05798559,0.37757036,0
 .00006490,-0.00011629,0.00830428,0.00009880,-0.00015414,0.00508937,-0.
 00007924,-0.00021555,0.00130471,0.00239556,-0.01226313,-0.03356748,-0.
 00003776,0.00000104,-0.00422161,-0.00001601,0.00007416,-0.00201220,-0.
 00236490,0.01270072,0.02512285,-0.01710372,0.03281258,0.00122089,-0.18
 272280,0.15853480,0.00709773,0.01588317,-0.00523050,-0.00035488,0.0015
 5853,-0.00533224,-0.00014653,-0.00326497,-0.00613643,-0.00010137,0.000
 14071,0.00064378,-0.00000552,0.00106444,0.00026950,0.00000470,0.187051
 14,-0.00263168,0.01501204,0.00080259,0.17327602,-0.32127228,-0.0120695
 9,0.01323019,-0.00718438,-0.00034217,-0.00137961,-0.00358322,-0.000281
 64,-0.01134699,0.00399942,0.00000820,-0.00053475,0.00055454,0.00011064
 ,0.00053595,0.00007098,-0.00002532,-0.17501974,0.31015830,0.00000590,0
 .00043416,-0.00761841,0.00760367,-0.01191304,-0.02134800,0.00027634,-0
 .00015198,-0.00120100,-0.00001045,-0.00024106,0.00505745,-0.00027818,-
 0.00004795,0.00723530,-0.00004597,0.00009850,-0.00251474,0.00001403,-0
 .00002264,0.00064647,-0.00772096,0.01175064,0.02006869,-0.02034617,-0.
 05615154,-0.00187390,-0.01650900,0.01178250,0.00045265,0.00188524,0.01
 729002,0.00060376,0.01510133,0.01336538,0.00032862,-0.00991309,-0.0260
 3758,-0.00076195,-0.00126472,0.00171018,0.00009352,0.00110774,-0.00032
 509,-0.00001346,-0.00319316,0.00228430,0.00009863,-0.04024069,-0.04432
 112,-0.09786937,-0.00225731,0.00091756,0.01097246,0.00072007,0.0035845
 5,0.00288414,-0.00003199,0.00573648,-0.00253178,-0.00022785,-0.0227754
 6,-0.03609895,-0.00106213,-0.00052762,0.00073837,-0.00003399,-0.000584
 46,-0.00038837,-0.00003490,-0.00092850,0.00088323,0.00007752,0.0531163
 1,0.16247914,-0.00146094,-0.00211056,-0.01737310,0.00008624,0.00059486
 ,-0.01062410,0.00012465,-0.00017235,0.00277605,0.00006859,-0.00031114,
 0.00237464,-0.00064861,-0.00103907,0.00216351,0.00001552,-0.00005998,0
 .00192275,-0.00002369,-0.00003734,0.00079287,-0.00000871,0.00004334,-0
 .00110708,0.00263900,0.00364964,0.03837037,-0.05895642,0.03596429,0.00
 183645,0.03438781,-0.01771852,-0.00092890,0.00877138,0.00203931,0.0000
 3036,0.00110055,-0.03238362,-0.00117738,0.03159693,0.03126260,0.000227
 18,0.00022454,-0.00329454,-0.00010871,0.00069537,-0.00176697,-0.000088
 17,-0.00152151,0.00603197,0.00023849,0.04211113,0.02036797,0.00021679,
 0.28487154,-0.01285081,0.00900719,0.00052193,0.00673531,-0.01616353,-0
 .00072050,-0.00388587,-0.00645649,-0.00034368,-0.01376243,0.00282469,0
 .00040223,-0.00622281,-0.07351583,-0.00082329,0.00039184,-0.00023897,-
 0.00003325,0.00019803,-0.00032924,0.00005000,0.00160183,0.00051171,-0.
 00004943,0.08202189,-0.01954403,-0.00145783,-0.28598158,1.15901374,0.0
 0017943,-0.00000975,-0.00167999,-0.00010263,-0.00046260,0.00291762,-0.
 00017785,-0.00040532,0.00469979,-0.00053566,0.00060462,-0.00472651,-0.
 00104391,-0.00122321,-0.04753678,0.00001703,0.00000661,0.00060080,-0.0
 0001966,0.00007082,-0.00184635,0.00008576,-0.00009671,0.00148041,0.002
 31447,-0.00079680,-0.00252887,-0.01062183,0.03562033,0.20133971,-0.094
 50843,-0.01574685,0.00053111,0.00008123,-0.01218298,-0.00038997,-0.007
 99893,-0.00646670,-0.00014909,-0.00772993,0.00682518,0.00035000,-0.048
 50353,-0.03917774,-0.00066682,0.00057676,-0.00021995,-0.00002398,-0.00
 014557,0.00053666,0.00002042,0.00196084,-0.00215375,-0.00009597,0.0334
 8146,-0.01125203,-0.00095166,-0.10183220,-0.06955865,-0.00208128,0.204
 35436,0.05386791,0.00097388,-0.00078287,-0.01011543,0.01066714,0.00040
 163,-0.00190195,0.00269729,0.00014294,0.00288865,0.01351254,0.00033358
 ,-0.05789372,-0.03921479,-0.00121098,-0.00058891,0.00166959,0.00009192
 ,0.00033207,0.00039070,0.00000866,-0.00062480,-0.00051648,-0.00000520,
 -0.07119586,-0.02334030,0.00064504,-0.03987748,-0.47879496,-0.01329575
 ,0.10326734,0.63260587,0.00290074,-0.00003828,0.00700288,-0.00032530,0
 .00042961,0.00192170,0.00001183,0.00019223,-0.00089452,0.00021295,0.00
 028267,0.00303990,-0.00130538,-0.00140545,0.01431056,-0.00003482,0.000
 08780,-0.00083095,0.00001334,0.00000598,0.00004707,-0.00004416,0.00001
 178,-0.00018660,-0.00299171,0.00000513,-0.01984997,-0.00106987,-0.0129
 8500,-0.07569403,0.00183728,0.01886174,0.04607614,-0.00597084,-0.00963
 597,-0.00025483,-0.01048320,0.00790494,0.00037672,-0.00138037,-0.00108
 674,-0.00002999,0.00039032,0.00703326,0.00023608,-0.05958016,0.0390967
 4,0.00211798,0.00008700,0.00065995,0.00002166,-0.00014246,0.00029661,0
 .00001515,0.00014734,-0.00229192,-0.00008553,-0.00222007,-0.00333367,-
 0.00005717,-0.24144911,0.30131325,0.01198613,0.02026395,0.02184219,0.0
 0079510,0.30033760,0.01373659,0.00403377,-0.00005401,0.00511096,0.0001
 6617,-0.00003938,0.00237259,0.00228854,0.00007759,0.00413704,-0.004962
 51,-0.00020651,0.03327941,0.00219281,-0.00077600,-0.00016395,-0.000296
 42,-0.00000818,0.00029073,-0.00030386,-0.00002523,-0.00059027,0.001366
 16,0.00007048,-0.02786050,0.00181546,0.00025540,0.28535658,-0.57631428
 ,-0.02001225,0.04612947,-0.12065047,-0.00544820,-0.36179865,0.69066462
 ,0.00054165,0.00019551,0.00126319,0.00028209,-0.00006888,-0.00026366,0
 .00008855,0.00011256,-0.00067813,0.00013513,-0.00023682,-0.00020431,0.
 00191655,-0.00083508,0.01455232,-0.00000650,-0.00001705,-0.00000242,0.
 00001485,-0.00002518,0.00034000,-0.00002692,0.00008825,-0.00051248,-0.
 00088963,-0.00000738,0.00308292,0.01144558,-0.02018152,-0.07702580,0.0
 0161995,-0.00519069,0.02505781,-0.01512131,0.02616630,0.03439058\\-0.0
 0000017,0.00001357,-0.00001166,-0.00001806,-0.00001867,-0.00000207,0.0
 0000431,-0.00001545,0.00000167,-0.00000058,0.00000391,0.00000226,0.000
 02409,-0.00000127,-0.00000292,0.00000566,-0.00002164,-0.00000217,0.000
 01873,-0.00000221,0.00000068,-0.00000765,-0.00001363,0.00000243,-0.000
 01600,-0.00000537,0.00000702,-0.00002750,0.00003045,0.00000743,-0.0000
 1193,0.00003980,0.00000172,0.00002910,-0.00000949,-0.00000439\\\@


 SACRED COWS MAKE GREAT HAMBURGERS -- ROBERT REISNER
 Job cpu time:       0 days  0 hours 17 minutes 19.0 seconds.
 Elapsed time:       0 days  0 hours  0 minutes 44.1 seconds.
 File lengths (MBytes):  RWF=     63 Int=      0 D2E=      0 Chk=      9 Scr=      1
 Normal termination of Gaussian 16 at Sat May 13 19:15:20 2023.
