 Entering Gaussian System, Link 0=/opt/soft/g16/g16
 Initial command:
 /opt/soft/g16/l1.exe "/scratch/gongke2021/RC-2-N-test/Gau-19568.inp" -scrdir="/scratch/gongke2021/RC-2-N-test/"
 Entering Link 1 = /opt/soft/g16/l1.exe PID=     19569.
  
 Copyright (c) 1988,1990,1992,1993,1995,1998,2003,2009,2016,
            Gaussian, Inc.  All Rights Reserved.
  
 This is part of the Gaussian(R) 16 program.  It is based on
 the Gaussian(R) 09 system (copyright 2009, Gaussian, Inc.),
 the Gaussian(R) 03 system (copyright 2003, Gaussian, Inc.),
 the Gaussian(R) 98 system (copyright 1998, Gaussian, Inc.),
 the Gaussian(R) 94 system (copyright 1995, Gaussian, Inc.),
 the Gaussian 92(TM) system (copyright 1992, Gaussian, Inc.),
 the Gaussian 90(TM) system (copyright 1990, Gaussian, Inc.),
 the Gaussian 88(TM) system (copyright 1988, Gaussian, Inc.),
 the Gaussian 86(TM) system (copyright 1986, Carnegie Mellon
 University), and the Gaussian 82(TM) system (copyright 1983,
 Carnegie Mellon University). Gaussian is a federally registered
 trademark of Gaussian, Inc.
  
 This software contains proprietary and confidential information,
 including trade secrets, belonging to Gaussian, Inc.
  
 This software is provided under written license and may be
 used, copied, transmitted, or stored only in accord with that
 written license.
  
 The following legend is applicable only to US Government
 contracts under FAR:
  
                    RESTRICTED RIGHTS LEGEND
  
 Use, reproduction and disclosure by the US Government is
 subject to restrictions as set forth in subparagraphs (a)
 and (c) of the Commercial Computer Software - Restricted
 Rights clause in FAR 52.227-19.
  
 Gaussian, Inc.
 340 Quinnipiac St., Bldg. 40, Wallingford CT 06492
  
  
 ---------------------------------------------------------------
 Warning -- This program may not be used in any manner that
 competes with the business of Gaussian, Inc. or will provide
 assistance to any competitor of Gaussian, Inc.  The licensee
 of this program is prohibited from giving any competitor of
 Gaussian, Inc. access to this program.  By using this program,
 the user acknowledges that Gaussian, Inc. is engaged in the
 business of creating and licensing software in the field of
 computational chemistry and represents and warrants to the
 licensee that it is not a competitor of Gaussian, Inc. and that
 it will not use this program in any manner prohibited above.
 ---------------------------------------------------------------
  

 Cite this work as:
 Gaussian 16, Revision A.03,
 M. J. Frisch, G. W. Trucks, H. B. Schlegel, G. E. Scuseria, 
 M. A. Robb, J. R. Cheeseman, G. Scalmani, V. Barone, 
 G. A. Petersson, H. Nakatsuji, X. Li, M. Caricato, A. V. Marenich, 
 J. Bloino, B. G. Janesko, R. Gomperts, B. Mennucci, H. P. Hratchian, 
 J. V. Ortiz, A. F. Izmaylov, J. L. Sonnenberg, D. Williams-Young, 
 F. Ding, F. Lipparini, F. Egidi, J. Goings, B. Peng, A. Petrone, 
 T. Henderson, D. Ranasinghe, V. G. Zakrzewski, J. Gao, N. Rega, 
 G. Zheng, W. Liang, M. Hada, M. Ehara, K. Toyota, R. Fukuda, 
 J. Hasegawa, M. Ishida, T. Nakajima, Y. Honda, O. Kitao, H. Nakai, 
 T. Vreven, K. Throssell, J. A. Montgomery, Jr., J. E. Peralta, 
 F. Ogliaro, M. J. Bearpark, J. J. Heyd, E. N. Brothers, K. N. Kudin, 
 V. N. Staroverov, T. A. Keith, R. Kobayashi, J. Normand, 
 K. Raghavachari, A. P. Rendell, J. C. Burant, S. S. Iyengar, 
 J. Tomasi, M. Cossi, J. M. Millam, M. Klene, C. Adamo, R. Cammi, 
 J. W. Ochterski, R. L. Martin, K. Morokuma, O. Farkas, 
 J. B. Foresman, and D. J. Fox, Gaussian, Inc., Wallingford CT, 2016.
 
 ******************************************
 Gaussian 16:  ES64L-G16RevA.03 25-Dec-2016
                 7-Jul-2023 
 ******************************************
 %mem=10GB
 %nprocshared=24
 Will use up to   24 processors via shared memory.
 -----------------------------------------------------
 # opt freq 6-31+g(d,p) scrf=(smd,solvent=water) m062x
 -----------------------------------------------------
 1/18=20,19=15,26=3,38=1/1,3;
 2/9=110,12=2,17=6,18=5,40=1/2;
 3/5=1,6=6,7=111,11=2,25=1,30=1,70=32201,71=1,72=1,74=-55/1,2,3;
 4//1;
 5/5=2,38=5,53=1/2;
 6/7=2,8=2,9=2,10=2,28=1/1;
 7//1,2,3,16;
 1/18=20,19=15,26=3/3(2);
 2/9=110/2;
 99//99;
 2/9=110/2;
 3/5=1,6=6,7=111,11=2,25=1,30=1,70=32205,71=1,72=1,74=-55/1,2,3;
 4/5=5,16=3,69=1/1;
 5/5=2,38=5,53=1/2;
 7//1,2,3,16;
 1/18=20,19=15,26=3/3(-5);
 2/9=110/2;
 6/7=2,8=2,9=2,10=2,19=2,28=1/1;
 99/9=1/99;
 --
 TS
 --
 Symbolic Z-matrix:
 Charge = -1 Multiplicity = 2
 N                     0.84642   0.37453  -0.02999 
 N                     0.67095  -0.88039   0.55894 
 C                     1.82673  -1.5781    0.23557 
 C                     2.67883  -0.69055  -0.36601 
 N                     2.11484   0.53137  -0.51665 
 H                     1.94322  -2.61668   0.50206 
 H                     3.69306  -0.86335  -0.69566 
 H                    -0.25604  -1.30095   0.40204 
 C                    -0.04485   1.43774   0.23295 
 O                    -1.09266   1.11113   0.86476 
 O                     0.27199   2.56686  -0.20519 
 O                    -3.17818   0.1494   -0.60622 
 H                    -4.01158   0.2611   -0.1309 
 H                    -2.49862   0.61628  -0.07132 
 O                    -1.86658  -2.21501  -0.00556 
 H                    -1.71263  -2.73134  -0.80728 
 H                    -2.4237   -1.45711  -0.28244 
 
 Add virtual bond connecting atoms H14        and O10        Dist= 3.33D+00.
 Add virtual bond connecting atoms O15        and H8         Dist= 3.58D+00.
 Add virtual bond connecting atoms H17        and O12        Dist= 3.41D+00.

 GradGradGradGradGradGradGradGradGradGradGradGradGradGradGradGradGradGrad
 Berny optimization.
 Initialization pass.
                           ----------------------------
                           !    Initial Parameters    !
                           ! (Angstroms and Degrees)  !
 --------------------------                            --------------------------
 ! Name  Definition              Value          Derivative Info.                !
 --------------------------------------------------------------------------------
 ! R1    R(1,2)                  1.3973         estimate D2E/DX2                !
 ! R2    R(1,5)                  1.3676         estimate D2E/DX2                !
 ! R3    R(1,9)                  1.4121         estimate D2E/DX2                !
 ! R4    R(2,3)                  1.3882         estimate D2E/DX2                !
 ! R5    R(2,8)                  1.0299         estimate D2E/DX2                !
 ! R6    R(3,4)                  1.3696         estimate D2E/DX2                !
 ! R7    R(3,6)                  1.0785         estimate D2E/DX2                !
 ! R8    R(4,5)                  1.3542         estimate D2E/DX2                !
 ! R9    R(4,7)                  1.0804         estimate D2E/DX2                !
 ! R10   R(8,15)                 1.8962         estimate D2E/DX2                !
 ! R11   R(9,10)                 1.2664         estimate D2E/DX2                !
 ! R12   R(9,11)                 1.2519         estimate D2E/DX2                !
 ! R13   R(10,14)                1.7601         estimate D2E/DX2                !
 ! R14   R(12,13)                0.9659         estimate D2E/DX2                !
 ! R15   R(12,14)                0.9828         estimate D2E/DX2                !
 ! R16   R(12,17)                1.8041         estimate D2E/DX2                !
 ! R17   R(15,16)                0.966          estimate D2E/DX2                !
 ! R18   R(15,17)                0.9805         estimate D2E/DX2                !
 ! A1    A(2,1,5)              111.6814         estimate D2E/DX2                !
 ! A2    A(2,1,9)              121.2303         estimate D2E/DX2                !
 ! A3    A(5,1,9)              124.4251         estimate D2E/DX2                !
 ! A4    A(1,2,3)              104.3977         estimate D2E/DX2                !
 ! A5    A(1,2,8)              114.5529         estimate D2E/DX2                !
 ! A6    A(3,2,8)              120.5723         estimate D2E/DX2                !
 ! A7    A(2,3,4)              107.1338         estimate D2E/DX2                !
 ! A8    A(2,3,6)              121.087          estimate D2E/DX2                !
 ! A9    A(4,3,6)              131.7109         estimate D2E/DX2                !
 ! A10   A(3,4,5)              111.993          estimate D2E/DX2                !
 ! A11   A(3,4,7)              127.9129         estimate D2E/DX2                !
 ! A12   A(5,4,7)              120.0892         estimate D2E/DX2                !
 ! A13   A(1,5,4)              104.0758         estimate D2E/DX2                !
 ! A14   A(1,9,10)             114.8947         estimate D2E/DX2                !
 ! A15   A(1,9,11)             117.0123         estimate D2E/DX2                !
 ! A16   A(10,9,11)            128.0698         estimate D2E/DX2                !
 ! A17   A(9,10,14)            117.9111         estimate D2E/DX2                !
 ! A18   A(13,12,14)           105.8928         estimate D2E/DX2                !
 ! A19   A(13,12,17)           112.0549         estimate D2E/DX2                !
 ! A20   A(14,12,17)            92.0733         estimate D2E/DX2                !
 ! A21   A(8,15,16)            107.5004         estimate D2E/DX2                !
 ! A22   A(8,15,17)             99.8277         estimate D2E/DX2                !
 ! A23   A(16,15,17)           105.6255         estimate D2E/DX2                !
 ! A24   L(2,8,15,10,-1)       185.5818         estimate D2E/DX2                !
 ! A25   L(10,14,12,15,-1)     167.5723         estimate D2E/DX2                !
 ! A26   L(12,17,15,1,-1)      168.8142         estimate D2E/DX2                !
 ! A27   L(2,8,15,10,-2)       177.1253         estimate D2E/DX2                !
 ! A28   L(10,14,12,15,-2)     182.8883         estimate D2E/DX2                !
 ! A29   L(12,17,15,1,-2)      174.5621         estimate D2E/DX2                !
 ! D1    D(5,1,2,3)             -8.8743         estimate D2E/DX2                !
 ! D2    D(5,1,2,8)           -142.8694         estimate D2E/DX2                !
 ! D3    D(9,1,2,3)           -171.1499         estimate D2E/DX2                !
 ! D4    D(9,1,2,8)             54.855          estimate D2E/DX2                !
 ! D5    D(2,1,5,4)              6.9056         estimate D2E/DX2                !
 ! D6    D(9,1,5,4)            168.509          estimate D2E/DX2                !
 ! D7    D(2,1,9,10)            -9.9139         estimate D2E/DX2                !
 ! D8    D(2,1,9,11)           171.6976         estimate D2E/DX2                !
 ! D9    D(5,1,9,10)          -169.8564         estimate D2E/DX2                !
 ! D10   D(5,1,9,11)            11.7552         estimate D2E/DX2                !
 ! D11   D(1,2,3,4)              7.0899         estimate D2E/DX2                !
 ! D12   D(1,2,3,6)           -175.5815         estimate D2E/DX2                !
 ! D13   D(8,2,3,4)            137.6259         estimate D2E/DX2                !
 ! D14   D(8,2,3,6)            -45.0456         estimate D2E/DX2                !
 ! D15   D(1,2,15,16)           89.5867         estimate D2E/DX2                !
 ! D16   D(1,2,15,17)          -20.2741         estimate D2E/DX2                !
 ! D17   D(3,2,15,16)          -34.0366         estimate D2E/DX2                !
 ! D18   D(3,2,15,17)         -143.8974         estimate D2E/DX2                !
 ! D19   D(2,3,4,5)             -3.2615         estimate D2E/DX2                !
 ! D20   D(2,3,4,7)            175.9223         estimate D2E/DX2                !
 ! D21   D(6,3,4,5)            179.8035         estimate D2E/DX2                !
 ! D22   D(6,3,4,7)             -1.0127         estimate D2E/DX2                !
 ! D23   D(3,4,5,1)             -2.1559         estimate D2E/DX2                !
 ! D24   D(7,4,5,1)            178.5883         estimate D2E/DX2                !
 ! D25   D(1,9,10,14)          -89.744          estimate D2E/DX2                !
 ! D26   D(11,9,10,14)          88.4322         estimate D2E/DX2                !
 ! D27   D(9,10,12,13)        -157.3379         estimate D2E/DX2                !
 ! D28   D(9,10,12,17)          91.2807         estimate D2E/DX2                !
 ! D29   D(13,12,15,8)        -127.4193         estimate D2E/DX2                !
 ! D30   D(13,12,15,16)        122.9774         estimate D2E/DX2                !
 ! D31   D(14,12,15,8)         -21.0617         estimate D2E/DX2                !
 ! D32   D(14,12,15,16)       -130.665          estimate D2E/DX2                !
 --------------------------------------------------------------------------------
 Trust Radius=3.00D-01 FncErr=1.00D-07 GrdErr=1.00D-06 EigMax=2.50D+02 EigMin=1.00D-04
 Number of steps in this run=     89 maximum allowed number of steps=    102.
 GradGradGradGradGradGradGradGradGradGradGradGradGradGradGradGradGradGrad

                          Input orientation:                          
 ---------------------------------------------------------------------
 Center     Atomic      Atomic             Coordinates (Angstroms)
 Number     Number       Type             X           Y           Z
 ---------------------------------------------------------------------
      1          7           0        0.846420    0.374531   -0.029991
      2          7           0        0.670954   -0.880393    0.558938
      3          6           0        1.826726   -1.578099    0.235565
      4          6           0        2.678827   -0.690554   -0.366008
      5          7           0        2.114841    0.531367   -0.516653
      6          1           0        1.943223   -2.616676    0.502063
      7          1           0        3.693064   -0.863346   -0.695661
      8          1           0       -0.256039   -1.300945    0.402041
      9          6           0       -0.044850    1.437737    0.232954
     10          8           0       -1.092660    1.111125    0.864763
     11          8           0        0.271992    2.566860   -0.205194
     12          8           0       -3.178181    0.149395   -0.606215
     13          1           0       -4.011578    0.261099   -0.130898
     14          1           0       -2.498617    0.616280   -0.071322
     15          8           0       -1.866583   -2.215006   -0.005556
     16          1           0       -1.712628   -2.731341   -0.807281
     17          1           0       -2.423700   -1.457105   -0.282442
 ---------------------------------------------------------------------
                    Distance matrix (angstroms):
                    1          2          3          4          5
     1  N    0.000000
     2  N    1.397305   0.000000
     3  C    2.200973   1.388226   0.000000
     4  C    2.145933   2.218810   1.369563   0.000000
     5  N    1.367600   2.287962   2.258028   1.354203   0.000000
     6  H    3.230074   2.153272   1.078534   2.237098   3.313217
     7  H    3.174719   3.272225   2.204829   1.080373   2.113778
     8  H    2.051655   1.029950   2.107709   3.094498   3.134077
     9  C    1.412059   2.447931   3.549376   3.508104   2.459204
    10  O    2.259023   2.677687   4.018785   4.357173   3.540126
    11  O    2.273097   3.553396   4.448837   4.053327   2.763391
    12  O    4.071871   4.151371   5.361149   5.921803   5.307542
    13  H    4.860370   4.868776   6.132107   6.761837   6.144498
    14  H    3.354016   3.561381   4.859843   5.347951   4.635680
    15  O    3.750558   2.922146   3.755572   4.807768   4.863694
    16  H    4.098701   3.312707   3.865814   4.862552   5.037782
    17  H    3.756635   3.258435   4.283584   5.160462   4.960568
                    6          7          8          9         10
     6  H    0.000000
     7  H    2.751482   0.000000
     8  H    2.564743   4.122118   0.000000
     9  C    4.523618   4.486570   2.752012   0.000000
    10  O    4.821269   5.407089   2.594634   1.266398   0.000000
    11  O    5.492019   4.869354   3.950629   1.251911   2.264122
    12  O    5.925218   6.946053   3.414525   3.490243   2.727288
    13  H    6.643936   7.806718   4.102204   4.153528   3.199057
    14  H    5.523651   6.396562   2.988140   2.605446   1.760069
    15  O    3.864406   5.763064   1.896179   4.088781   3.524140
    16  H    3.884942   5.720434   2.372792   4.609206   4.236111
    17  H    4.585855   6.159391   2.278521   3.782152   3.111841
                   11         12         13         14         15
    11  O    0.000000
    12  O    4.231861   0.000000
    13  H    4.865288   0.965896   0.000000
    14  H    3.391011   0.982802   1.555234   0.000000
    15  O    5.242099   2.769742   3.278385   2.901719   0.000000
    16  H    5.689654   3.238350   3.833714   3.516530   0.965954
    17  H    4.844070   1.804138   2.344472   2.085452   0.980540
                   16         17
    16  H    0.000000
    17  H    1.550728   0.000000
 Stoichiometry    C3H7N3O4(1-,2)
 Framework group  C1[X(C3H7N3O4)]
 Deg. of freedom    45
 Full point group                 C1      NOp   1
 Largest Abelian subgroup         C1      NOp   1
 Largest concise Abelian subgroup C1      NOp   1
                         Standard orientation:                         
 ---------------------------------------------------------------------
 Center     Atomic      Atomic             Coordinates (Angstroms)
 Number     Number       Type             X           Y           Z
 ---------------------------------------------------------------------
      1          7           0        0.846420    0.374531   -0.029991
      2          7           0        0.670954   -0.880393    0.558938
      3          6           0        1.826727   -1.578098    0.235565
      4          6           0        2.678827   -0.690553   -0.366008
      5          7           0        2.114841    0.531368   -0.516653
      6          1           0        1.943224   -2.616675    0.502063
      7          1           0        3.693064   -0.863345   -0.695661
      8          1           0       -0.256038   -1.300945    0.402041
      9          6           0       -0.044850    1.437737    0.232954
     10          8           0       -1.092660    1.111125    0.864763
     11          8           0        0.271991    2.566860   -0.205194
     12          8           0       -3.178181    0.149394   -0.606215
     13          1           0       -4.011578    0.261097   -0.130898
     14          1           0       -2.498617    0.616279   -0.071322
     15          8           0       -1.866582   -2.215007   -0.005556
     16          1           0       -1.712627   -2.731342   -0.807281
     17          1           0       -2.423699   -1.457106   -0.282442
 ---------------------------------------------------------------------
 Rotational constants (GHZ):           1.5250663           0.9667363           0.6383227
 Standard basis: 6-31+G(d,p) (6D, 7F)
 There are   225 symmetry adapted cartesian basis functions of A   symmetry.
 There are   225 symmetry adapted basis functions of A   symmetry.
   225 basis functions,   369 primitive gaussians,   225 cartesian basis functions
    40 alpha electrons       39 beta electrons
       nuclear repulsion energy       549.1306197432 Hartrees.
 NAtoms=   17 NActive=   17 NUniq=   17 SFac= 1.00D+00 NAtFMM=   60 NAOKFM=F Big=F
 Integral buffers will be    131072 words long.
 Raffenetti 2 integral format.
 Two-electron integral symmetry is turned on.
 ------------------------------------------------------------------------------
 Polarizable Continuum Model (PCM)
 =================================
 Model                : PCM.
 Atomic radii         : SMD-Coulomb.
 Polarization charges : Total charges.
 Charge compensation  : None.
 Solution method      : On-the-fly selection.
 Cavity type          : VdW (van der Waals Surface) (Alpha=1.000).
 Cavity algorithm     : GePol (No added spheres)
                        Default sphere list used, NSphG=   17.
                        Lebedev-Laikov grids with approx.  5.0 points / Ang**2.
                        Smoothing algorithm: York/Karplus (Gamma=1.0000).
                        Polarization charges: spherical gaussians, with
                                              point-specific exponents (IZeta= 3).
                        Self-potential: point-specific (ISelfS= 7).
                        Self-field    : sphere-specific E.n sum rule (ISelfD= 2).
 1st derivatives      : Analytical E(r).r(x)/FMM algorithm (CHGder, D1EAlg=3).
                        Cavity 1st derivative terms included.
 Solvent              : Water, Eps=  78.355300 Eps(inf)=   1.777849
 ------------------------------------------------------------------------------
 Spheres list:
 ISph  on   Nord     Re0    Alpha      Xe            Ye            Ze
    1   N      1    1.8900  1.000      0.846420      0.374531     -0.029991
    2   N      2    1.8900  1.000      0.670954     -0.880393      0.558938
    3   C      3    1.8500  1.000      1.826727     -1.578098      0.235565
    4   C      4    1.8500  1.000      2.678827     -0.690553     -0.366008
    5   N      5    1.8900  1.000      2.114841      0.531368     -0.516653
    6   H      6    1.2000  1.000      1.943224     -2.616675      0.502063
    7   H      7    1.2000  1.000      3.693064     -0.863345     -0.695661
    8   H      8    1.2000  1.000     -0.256038     -1.300945      0.402041
    9   C      9    1.8500  1.000     -0.044850      1.437737      0.232954
   10   O     10    1.5200  1.000     -1.092660      1.111125      0.864763
   11   O     11    1.5200  1.000      0.271991      2.566860     -0.205194
   12   O     12    1.5200  1.000     -3.178181      0.149394     -0.606215
   13   H     13    1.2000  1.000     -4.011578      0.261097     -0.130898
   14   H     14    1.2000  1.000     -2.498617      0.616279     -0.071322
   15   O     15    1.5200  1.000     -1.866582     -2.215007     -0.005556
   16   H     16    1.2000  1.000     -1.712627     -2.731342     -0.807281
   17   H     17    1.2000  1.000     -2.423699     -1.457106     -0.282442
 ------------------------------------------------------------------------------
 ------------------------------------------------------------------------------
 Atomic radii for non-electrostatic terms: SMD-CDS.
 ------------------------------------------------------------------------------
 Nuclear repulsion after PCM non-electrostatic terms =      549.1391924241 Hartrees.
 One-electron integrals computed using PRISM.
 NBasis=   225 RedAO= T EigKep=  3.09D-05  NBF=   225
 NBsUse=   225 1.00D-06 EigRej= -1.00D+00 NBFU=   225
 ExpMin= 4.38D-02 ExpMax= 5.48D+03 ExpMxC= 8.25D+02 IAcc=3 IRadAn=         5 AccDes= 0.00D+00
 Harris functional with IExCor= 1009 and IRadAn=       5 diagonalized for initial guess.
 HarFok:  IExCor= 1009 AccDes= 0.00D+00 IRadAn=         5 IDoV= 1 UseB2=F ITyADJ=14
 ICtDFT=  3500011 ScaDFX=  1.000000  1.000000  1.000000  1.000000
 FoFCou: FMM=F IPFlag=           0 FMFlag=      100000 FMFlg1=           0
         NFxFlg=           0 DoJE=T BraDBF=F KetDBF=T FulRan=T
         wScrn=  0.000000 ICntrl=       500 IOpCl=  0 I1Cent=   200000004 NGrid=           0
         NMat0=    1 NMatS0=      1 NMatT0=    0 NMatD0=    1 NMtDS0=    0 NMtDT0=    0
 Petite list used in FoFCou.
 Initial guess <Sx>= 0.0000 <Sy>= 0.0000 <Sz>= 0.5000 <S**2>= 0.7500 S= 0.5000
 Requested convergence on RMS density matrix=1.00D-08 within 128 cycles.
 Requested convergence on MAX density matrix=1.00D-06.
 Requested convergence on             energy=1.00D-06.
 No special actions if energy rises.
 Inv3:  Mode=1 IEnd=     5746368.
 Iteration    1 A*A^-1 deviation from unit magnitude is 3.11D-15 for    477.
 Iteration    1 A*A^-1 deviation from orthogonality  is 2.47D-15 for    825    641.
 Iteration    1 A^-1*A deviation from unit magnitude is 2.89D-15 for    477.
 Iteration    1 A^-1*A deviation from orthogonality  is 1.79D-15 for    938    150.
 Error on total polarization charges =  0.06078
 SCF Done:  E(UM062X) =  -583.607482456     A.U. after   18 cycles
            NFock= 18  Conv=0.72D-08     -V/T= 2.0085
 <Sx>= 0.0000 <Sy>= 0.0000 <Sz>= 0.5000 <S**2>= 0.7639 S= 0.5069
 <L.S>=  0.00000000000    
 SMD-CDS (non-electrostatic) energy       (kcal/mol) =       5.38
 (included in total energy above)
 Annihilation of the first spin contaminant:
 S**2 before annihilation     0.7639,   after     0.7501

 **********************************************************************

            Population analysis using the SCF density.

 **********************************************************************

 Orbital symmetries:
 Alpha Orbitals:
       Occupied  (A) (A) (A) (A) (A) (A) (A) (A) (A) (A) (A) (A)
                 (A) (A) (A) (A) (A) (A) (A) (A) (A) (A) (A) (A)
                 (A) (A) (A) (A) (A) (A) (A) (A) (A) (A) (A) (A)
                 (A) (A) (A) (A)
       Virtual   (A) (A) (A) (A) (A) (A) (A) (A) (A) (A) (A) (A)
                 (A) (A) (A) (A) (A) (A) (A) (A) (A) (A) (A) (A)
                 (A) (A) (A) (A) (A) (A) (A) (A) (A) (A) (A) (A)
                 (A) (A) (A) (A) (A) (A) (A) (A) (A) (A) (A) (A)
                 (A) (A) (A) (A) (A) (A) (A) (A) (A) (A) (A) (A)
                 (A) (A) (A) (A) (A) (A) (A) (A) (A) (A) (A) (A)
                 (A) (A) (A) (A) (A) (A) (A) (A) (A) (A) (A) (A)
                 (A) (A) (A) (A) (A) (A) (A) (A) (A) (A) (A) (A)
                 (A) (A) (A) (A) (A) (A) (A) (A) (A) (A) (A) (A)
                 (A) (A) (A) (A) (A) (A) (A) (A) (A) (A) (A) (A)
                 (A) (A) (A) (A) (A) (A) (A) (A) (A) (A) (A) (A)
                 (A) (A) (A) (A) (A) (A) (A) (A) (A) (A) (A) (A)
                 (A) (A) (A) (A) (A) (A) (A) (A) (A) (A) (A) (A)
                 (A) (A) (A) (A) (A) (A) (A) (A) (A) (A) (A) (A)
                 (A) (A) (A) (A) (A) (A) (A) (A) (A) (A) (A) (A)
                 (A) (A) (A) (A) (A)
 Beta  Orbitals:
       Occupied  (A) (A) (A) (A) (A) (A) (A) (A) (A) (A) (A) (A)
                 (A) (A) (A) (A) (A) (A) (A) (A) (A) (A) (A) (A)
                 (A) (A) (A) (A) (A) (A) (A) (A) (A) (A) (A) (A)
                 (A) (A) (A)
       Virtual   (A) (A) (A) (A) (A) (A) (A) (A) (A) (A) (A) (A)
                 (A) (A) (A) (A) (A) (A) (A) (A) (A) (A) (A) (A)
                 (A) (A) (A) (A) (A) (A) (A) (A) (A) (A) (A) (A)
                 (A) (A) (A) (A) (A) (A) (A) (A) (A) (A) (A) (A)
                 (A) (A) (A) (A) (A) (A) (A) (A) (A) (A) (A) (A)
                 (A) (A) (A) (A) (A) (A) (A) (A) (A) (A) (A) (A)
                 (A) (A) (A) (A) (A) (A) (A) (A) (A) (A) (A) (A)
                 (A) (A) (A) (A) (A) (A) (A) (A) (A) (A) (A) (A)
                 (A) (A) (A) (A) (A) (A) (A) (A) (A) (A) (A) (A)
                 (A) (A) (A) (A) (A) (A) (A) (A) (A) (A) (A) (A)
                 (A) (A) (A) (A) (A) (A) (A) (A) (A) (A) (A) (A)
                 (A) (A) (A) (A) (A) (A) (A) (A) (A) (A) (A) (A)
                 (A) (A) (A) (A) (A) (A) (A) (A) (A) (A) (A) (A)
                 (A) (A) (A) (A) (A) (A) (A) (A) (A) (A) (A) (A)
                 (A) (A) (A) (A) (A) (A) (A) (A) (A) (A) (A) (A)
                 (A) (A) (A) (A) (A) (A)
 The electronic state is 2-A.
 Alpha  occ. eigenvalues --  -19.64246 -19.64166 -19.61095 -19.60851 -14.85201
 Alpha  occ. eigenvalues --  -14.81968 -14.78423 -10.68771 -10.57796 -10.57268
 Alpha  occ. eigenvalues --   -1.21797  -1.15995  -1.13100  -1.11698  -1.08473
 Alpha  occ. eigenvalues --   -0.99874  -0.93091  -0.75994  -0.69976  -0.67767
 Alpha  occ. eigenvalues --   -0.61495  -0.59835  -0.58462  -0.57082  -0.53551
 Alpha  occ. eigenvalues --   -0.52862  -0.50776  -0.49350  -0.48665  -0.47412
 Alpha  occ. eigenvalues --   -0.45804  -0.40447  -0.39701  -0.38884  -0.38382
 Alpha  occ. eigenvalues --   -0.36895  -0.34998  -0.34498  -0.33720  -0.18449
 Alpha virt. eigenvalues --    0.02494   0.04161   0.04501   0.05311   0.06164
 Alpha virt. eigenvalues --    0.06670   0.06811   0.08969   0.09192   0.10554
 Alpha virt. eigenvalues --    0.10804   0.10882   0.12061   0.14157   0.15295
 Alpha virt. eigenvalues --    0.15527   0.16604   0.18085   0.19039   0.19560
 Alpha virt. eigenvalues --    0.20619   0.21308   0.22268   0.22642   0.23404
 Alpha virt. eigenvalues --    0.24075   0.24922   0.25008   0.25553   0.26008
 Alpha virt. eigenvalues --    0.27098   0.27209   0.27798   0.28718   0.29335
 Alpha virt. eigenvalues --    0.29776   0.30536   0.31618   0.31827   0.32826
 Alpha virt. eigenvalues --    0.33551   0.34309   0.34952   0.35227   0.36697
 Alpha virt. eigenvalues --    0.37909   0.39538   0.40726   0.41627   0.42573
 Alpha virt. eigenvalues --    0.43903   0.45636   0.47868   0.50078   0.53785
 Alpha virt. eigenvalues --    0.54016   0.65690   0.70176   0.75651   0.78902
 Alpha virt. eigenvalues --    0.83291   0.84399   0.88371   0.89627   0.92204
 Alpha virt. eigenvalues --    0.94176   0.95643   0.96240   0.98219   1.00753
 Alpha virt. eigenvalues --    1.03011   1.04685   1.06342   1.06845   1.08034
 Alpha virt. eigenvalues --    1.08953   1.11240   1.13718   1.16232   1.17447
 Alpha virt. eigenvalues --    1.18669   1.19825   1.21485   1.22107   1.23117
 Alpha virt. eigenvalues --    1.24445   1.27078   1.29250   1.30450   1.31703
 Alpha virt. eigenvalues --    1.33469   1.34809   1.36557   1.37887   1.38508
 Alpha virt. eigenvalues --    1.39306   1.40187   1.41174   1.43967   1.45120
 Alpha virt. eigenvalues --    1.47752   1.50672   1.53037   1.54887   1.56152
 Alpha virt. eigenvalues --    1.60174   1.61627   1.62573   1.63640   1.64310
 Alpha virt. eigenvalues --    1.65825   1.68094   1.77173   1.80733   1.82672
 Alpha virt. eigenvalues --    1.84138   1.88188   1.89231   1.90878   1.92707
 Alpha virt. eigenvalues --    1.95823   1.98872   1.99280   2.01891   2.03116
 Alpha virt. eigenvalues --    2.05606   2.07907   2.12753   2.15919   2.16365
 Alpha virt. eigenvalues --    2.20035   2.24876   2.29740   2.30633   2.31291
 Alpha virt. eigenvalues --    2.32334   2.35543   2.40779   2.42915   2.45355
 Alpha virt. eigenvalues --    2.46052   2.49049   2.52914   2.55307   2.57032
 Alpha virt. eigenvalues --    2.60215   2.61898   2.64419   2.66010   2.68921
 Alpha virt. eigenvalues --    2.70229   2.71679   2.72966   2.75158   2.75747
 Alpha virt. eigenvalues --    2.79201   2.82452   2.86754   2.89847   2.94536
 Alpha virt. eigenvalues --    2.95348   3.06248   3.07826   3.10489   3.13262
 Alpha virt. eigenvalues --    3.15709   3.26392   3.28179   3.32894   3.44453
 Alpha virt. eigenvalues --    3.48115   3.51908   3.63857   3.67173   3.74630
 Alpha virt. eigenvalues --    4.06054   4.18511   4.21833   4.28796   4.35428
 Alpha virt. eigenvalues --    4.42951   4.44576   4.58499   4.67806   4.71242
  Beta  occ. eigenvalues --  -19.64244 -19.64160 -19.61045 -19.60781 -14.84886
  Beta  occ. eigenvalues --  -14.81578 -14.77857 -10.68754 -10.57602 -10.57360
  Beta  occ. eigenvalues --   -1.20949  -1.15434  -1.13085  -1.11682  -1.08255
  Beta  occ. eigenvalues --   -0.98357  -0.92128  -0.74837  -0.69414  -0.66889
  Beta  occ. eigenvalues --   -0.61347  -0.59737  -0.57779  -0.55581  -0.52878
  Beta  occ. eigenvalues --   -0.52456  -0.50381  -0.49077  -0.48269  -0.46330
  Beta  occ. eigenvalues --   -0.45735  -0.39903  -0.39655  -0.37214  -0.36497
  Beta  occ. eigenvalues --   -0.34993  -0.34027  -0.33118  -0.31753
  Beta virt. eigenvalues --   -0.01620   0.02218   0.04101   0.04383   0.04937
  Beta virt. eigenvalues --    0.06507   0.06686   0.07360   0.08460   0.08743
  Beta virt. eigenvalues --    0.10695   0.10891   0.11534   0.12085   0.14291
  Beta virt. eigenvalues --    0.15192   0.15445   0.16327   0.18057   0.18949
  Beta virt. eigenvalues --    0.19413   0.20708   0.21377   0.22339   0.22821
  Beta virt. eigenvalues --    0.23355   0.24045   0.24799   0.24922   0.25752
  Beta virt. eigenvalues --    0.25812   0.27092   0.27248   0.27825   0.28765
  Beta virt. eigenvalues --    0.29343   0.29894   0.30551   0.31612   0.31992
  Beta virt. eigenvalues --    0.32854   0.33500   0.34175   0.34924   0.35118
  Beta virt. eigenvalues --    0.36531   0.38225   0.39489   0.40564   0.41528
  Beta virt. eigenvalues --    0.42816   0.43912   0.45657   0.48204   0.50127
  Beta virt. eigenvalues --    0.53906   0.54255   0.66028   0.70557   0.75177
  Beta virt. eigenvalues --    0.80236   0.83390   0.84538   0.88483   0.89813
  Beta virt. eigenvalues --    0.92382   0.94605   0.96081   0.96455   0.99579
  Beta virt. eigenvalues --    1.02404   1.03951   1.05070   1.06843   1.07132
  Beta virt. eigenvalues --    1.08301   1.09391   1.11545   1.13965   1.16419
  Beta virt. eigenvalues --    1.17417   1.18633   1.20021   1.21638   1.22217
  Beta virt. eigenvalues --    1.23149   1.24547   1.27327   1.29561   1.30745
  Beta virt. eigenvalues --    1.31979   1.33541   1.34980   1.36794   1.38101
  Beta virt. eigenvalues --    1.38851   1.39474   1.40333   1.41354   1.44740
  Beta virt. eigenvalues --    1.45562   1.48264   1.51317   1.53299   1.55152
  Beta virt. eigenvalues --    1.56408   1.60371   1.61678   1.62625   1.64064
  Beta virt. eigenvalues --    1.64439   1.65924   1.68184   1.77556   1.80860
  Beta virt. eigenvalues --    1.82875   1.84403   1.88337   1.89504   1.91082
  Beta virt. eigenvalues --    1.92885   1.96059   1.99062   1.99970   2.02148
  Beta virt. eigenvalues --    2.03429   2.05945   2.08353   2.13339   2.16652
  Beta virt. eigenvalues --    2.16802   2.20516   2.25366   2.29778   2.30768
  Beta virt. eigenvalues --    2.31776   2.32852   2.35998   2.40947   2.43318
  Beta virt. eigenvalues --    2.45552   2.46387   2.49418   2.53421   2.55824
  Beta virt. eigenvalues --    2.57331   2.60219   2.62169   2.64468   2.66281
  Beta virt. eigenvalues --    2.69152   2.70719   2.71917   2.73367   2.75425
  Beta virt. eigenvalues --    2.76067   2.79460   2.82665   2.87392   2.90448
  Beta virt. eigenvalues --    2.94946   2.95618   3.06261   3.07841   3.10623
  Beta virt. eigenvalues --    3.13451   3.16361   3.26565   3.28475   3.33306
  Beta virt. eigenvalues --    3.44527   3.48672   3.51950   3.63842   3.67153
  Beta virt. eigenvalues --    3.75218   4.06327   4.18539   4.21825   4.28828
  Beta virt. eigenvalues --    4.35449   4.43029   4.45061   4.58863   4.68154
  Beta virt. eigenvalues --    4.71588
          Condensed to atoms (all electrons):
               1          2          3          4          5          6
     1  N    8.325391  -0.408734   0.068433  -0.010122  -0.816534   0.006578
     2  N   -0.408734   7.804034  -0.119995   0.169587  -0.257517  -0.041242
     3  C    0.068433  -0.119995   5.792443   0.029759   0.059616   0.384280
     4  C   -0.010122   0.169587   0.029759   5.576500   0.043740  -0.009997
     5  N   -0.816534  -0.257517   0.059616   0.043740   8.410876   0.001356
     6  H    0.006578  -0.041242   0.384280  -0.009997   0.001356   0.429782
     7  H    0.000001   0.006919  -0.032447   0.402648  -0.048911   0.000041
     8  H   -0.007377   0.285297  -0.032811   0.003515   0.009902  -0.000510
     9  C    0.109334  -0.000546  -0.018188  -0.005839  -0.032148  -0.000091
    10  O   -0.127692  -0.048956   0.025138  -0.025946   0.032490  -0.000092
    11  O   -0.127768   0.005669   0.003175  -0.005998  -0.020979   0.000024
    12  O   -0.008663   0.005887  -0.000633   0.001203  -0.003678  -0.000001
    13  H    0.000522  -0.000185   0.000095  -0.000056   0.000035   0.000000
    14  H    0.003674   0.000260  -0.000426   0.000334   0.000146   0.000000
    15  O   -0.013925  -0.027140   0.010361  -0.003048   0.018294   0.000052
    16  H    0.000178   0.000663  -0.000050   0.000768  -0.000646  -0.000010
    17  H    0.008348  -0.009383  -0.001364  -0.000014   0.000294   0.000001
               7          8          9         10         11         12
     1  N    0.000001  -0.007377   0.109334  -0.127692  -0.127768  -0.008663
     2  N    0.006919   0.285297  -0.000546  -0.048956   0.005669   0.005887
     3  C   -0.032447  -0.032811  -0.018188   0.025138   0.003175  -0.000633
     4  C    0.402648   0.003515  -0.005839  -0.025946  -0.005998   0.001203
     5  N   -0.048911   0.009902  -0.032148   0.032490  -0.020979  -0.003678
     6  H    0.000041  -0.000510  -0.000091  -0.000092   0.000024  -0.000001
     7  H    0.457157  -0.000065   0.000856   0.000013  -0.000073  -0.000000
     8  H   -0.000065   0.305036  -0.001647   0.003880   0.000164  -0.000152
     9  C    0.000856  -0.001647   4.425829   0.357560   0.391344   0.006067
    10  O    0.000013   0.003880   0.357560   8.737768  -0.110930  -0.035987
    11  O   -0.000073   0.000164   0.391344  -0.110930   8.605656   0.000190
    12  O   -0.000000  -0.000152   0.006067  -0.035987   0.000190   8.448892
    13  H   -0.000000   0.000001  -0.001111   0.000761   0.000050   0.282282
    14  H   -0.000000   0.000033  -0.006659   0.023563   0.000312   0.240268
    15  O    0.000005   0.008538  -0.011038  -0.002538   0.000141  -0.041728
    16  H   -0.000000  -0.001768   0.000022   0.000060   0.000012   0.002139
    17  H    0.000000  -0.001002  -0.000213   0.002501   0.000055   0.017961
              13         14         15         16         17
     1  N    0.000522   0.003674  -0.013925   0.000178   0.008348
     2  N   -0.000185   0.000260  -0.027140   0.000663  -0.009383
     3  C    0.000095  -0.000426   0.010361  -0.000050  -0.001364
     4  C   -0.000056   0.000334  -0.003048   0.000768  -0.000014
     5  N    0.000035   0.000146   0.018294  -0.000646   0.000294
     6  H    0.000000   0.000000   0.000052  -0.000010   0.000001
     7  H   -0.000000  -0.000000   0.000005  -0.000000   0.000000
     8  H    0.000001   0.000033   0.008538  -0.001768  -0.001002
     9  C   -0.001111  -0.006659  -0.011038   0.000022  -0.000213
    10  O    0.000761   0.023563  -0.002538   0.000060   0.002501
    11  O    0.000050   0.000312   0.000141   0.000012   0.000055
    12  O    0.282282   0.240268  -0.041728   0.002139   0.017961
    13  H    0.291416  -0.014531   0.001477   0.000006  -0.002253
    14  H   -0.014531   0.266698   0.000895   0.000051  -0.002243
    15  O    0.001477   0.000895   8.442853   0.286317   0.258285
    16  H    0.000006   0.000051   0.286317   0.291012  -0.018836
    17  H   -0.002253  -0.002243   0.258285  -0.018836   0.264678
          Atomic-Atomic Spin Densities.
               1          2          3          4          5          6
     1  N    0.183713  -0.021050   0.036355   0.065992  -0.152719   0.000226
     2  N   -0.021050   0.304534  -0.136952  -0.058325   0.057426   0.001134
     3  C    0.036355  -0.136952   0.423519   0.075399  -0.042680  -0.004811
     4  C    0.065992  -0.058325   0.075399  -0.139131  -0.103486   0.003485
     5  N   -0.152719   0.057426  -0.042680  -0.103486   0.682149  -0.000807
     6  H    0.000226   0.001134  -0.004811   0.003485  -0.000807  -0.011621
     7  H    0.003261   0.000063  -0.002968   0.005574  -0.004977   0.000011
     8  H   -0.017520   0.023086  -0.019746   0.008102  -0.002991   0.000205
     9  C    0.050740  -0.009203  -0.009224   0.005257  -0.014391   0.000030
    10  O   -0.025970   0.015450  -0.003771   0.000112   0.008966   0.000019
    11  O   -0.022928   0.006569  -0.002059  -0.000375   0.015979  -0.000001
    12  O    0.002663  -0.001321   0.000957  -0.000280   0.000144  -0.000001
    13  H   -0.000002   0.000007  -0.000001  -0.000001   0.000000   0.000000
    14  H   -0.000759   0.000116  -0.000364   0.000098  -0.000021   0.000000
    15  O   -0.002155   0.003544  -0.000122   0.000560  -0.000033   0.000005
    16  H    0.000135  -0.000301   0.000254   0.000015   0.000001   0.000000
    17  H   -0.000003  -0.000111   0.000050  -0.000042   0.000001  -0.000000
               7          8          9         10         11         12
     1  N    0.003261  -0.017520   0.050740  -0.025970  -0.022928   0.002663
     2  N    0.000063   0.023086  -0.009203   0.015450   0.006569  -0.001321
     3  C   -0.002968  -0.019746  -0.009224  -0.003771  -0.002059   0.000957
     4  C    0.005574   0.008102   0.005257   0.000112  -0.000375  -0.000280
     5  N   -0.004977  -0.002991  -0.014391   0.008966   0.015979   0.000144
     6  H    0.000011   0.000205   0.000030   0.000019  -0.000001  -0.000001
     7  H    0.002189   0.000004  -0.000091   0.000004   0.000002  -0.000000
     8  H    0.000004   0.018533   0.002324  -0.000111  -0.000022  -0.000434
     9  C   -0.000091   0.002324   0.036954  -0.010837  -0.016614  -0.000651
    10  O    0.000004  -0.000111  -0.010837   0.032526   0.003885  -0.001808
    11  O    0.000002  -0.000022  -0.016614   0.003885   0.050309  -0.000402
    12  O   -0.000000  -0.000434  -0.000651  -0.001808  -0.000402   0.003505
    13  H    0.000000  -0.000000   0.000021  -0.000080   0.000002   0.000039
    14  H    0.000000   0.000194   0.000128   0.002844   0.000130  -0.001711
    15  O    0.000000  -0.001480  -0.000058   0.000223  -0.000019   0.000073
    16  H   -0.000000  -0.000223  -0.000034  -0.000039  -0.000001   0.000017
    17  H   -0.000000   0.000003  -0.000009  -0.000036   0.000001  -0.000001
              13         14         15         16         17
     1  N   -0.000002  -0.000759  -0.002155   0.000135  -0.000003
     2  N    0.000007   0.000116   0.003544  -0.000301  -0.000111
     3  C   -0.000001  -0.000364  -0.000122   0.000254   0.000050
     4  C   -0.000001   0.000098   0.000560   0.000015  -0.000042
     5  N    0.000000  -0.000021  -0.000033   0.000001   0.000001
     6  H    0.000000   0.000000   0.000005   0.000000  -0.000000
     7  H    0.000000   0.000000   0.000000  -0.000000  -0.000000
     8  H   -0.000000   0.000194  -0.001480  -0.000223   0.000003
     9  C    0.000021   0.000128  -0.000058  -0.000034  -0.000009
    10  O   -0.000080   0.002844   0.000223  -0.000039  -0.000036
    11  O    0.000002   0.000130  -0.000019  -0.000001   0.000001
    12  O    0.000039  -0.001711   0.000073   0.000017  -0.000001
    13  H   -0.000088   0.000042   0.000002  -0.000000   0.000002
    14  H    0.000042   0.000635   0.000015  -0.000005   0.000008
    15  O    0.000002   0.000015   0.002409   0.000066   0.000112
    16  H   -0.000000  -0.000005   0.000066  -0.000036  -0.000025
    17  H    0.000002   0.000008   0.000112  -0.000025  -0.000035
 Mulliken charges and spin densities:
               1          2
     1  N   -0.001644   0.099979
     2  N   -0.364617   0.184666
     3  C   -0.167386   0.313834
     4  C   -0.167034  -0.137046
     5  N   -0.396336   0.442561
     6  H    0.229831  -0.012126
     7  H    0.213856   0.003071
     8  H    0.428966   0.009923
     9  C    0.786466   0.034341
    10  O   -0.831596   0.021377
    11  O   -0.741045   0.034456
    12  O   -0.914045   0.000791
    13  H    0.441492  -0.000057
    14  H    0.487624   0.001351
    15  O   -0.927801   0.003142
    16  H    0.440084  -0.000177
    17  H    0.483185  -0.000086
 Sum of Mulliken charges =  -1.00000   1.00000
 Mulliken charges and spin densities with hydrogens summed into heavy atoms:
               1          2
     1  N   -0.001644   0.099979
     2  N    0.064348   0.194589
     3  C    0.062445   0.301708
     4  C    0.046823  -0.133975
     5  N   -0.396336   0.442561
     9  C    0.786466   0.034341
    10  O   -0.831596   0.021377
    11  O   -0.741045   0.034456
    12  O    0.015070   0.002085
    15  O   -0.004532   0.002880
 Electronic spatial extent (au):  <R**2>=           1749.4797
 Charge=             -1.0000 electrons
 Dipole moment (field-independent basis, Debye):
    X=             -0.5854    Y=            -11.4757    Z=             -1.0670  Tot=             11.5401
 Quadrupole moment (field-independent basis, Debye-Ang):
   XX=            -59.3569   YY=            -81.5211   ZZ=            -68.2372
   XY=             -8.6955   XZ=              2.0948   YZ=              6.3324
 Traceless Quadrupole moment (field-independent basis, Debye-Ang):
   XX=             10.3482   YY=            -11.8160   ZZ=              1.4678
   XY=             -8.6955   XZ=              2.0948   YZ=              6.3324
 Octapole moment (field-independent basis, Debye-Ang**2):
  XXX=            -54.5202  YYY=            -85.3272  ZZZ=             -3.2636  XYY=             -3.5226
  XXY=            -17.4102  XXZ=              7.8059  XZZ=             -4.5499  YZZ=             -8.6831
  YYZ=             -7.8827  XYZ=             -4.5143
 Hexadecapole moment (field-independent basis, Debye-Ang**3):
 XXXX=           -993.8986 YYYY=           -919.4374 ZZZZ=           -154.9107 XXXY=            -70.7117
 XXXZ=            -60.0507 YYYX=            -31.1777 YYYZ=             46.1810 ZZZX=              7.5822
 ZZZY=              9.0143 XXYY=           -365.6999 XXZZ=           -269.4550 YYZZ=           -157.2234
 XXYZ=             32.3630 YYXZ=             43.5588 ZZXY=             15.9853
 N-N= 5.491391924241D+02 E-N=-2.480243941700D+03  KE= 5.786974142593D+02
                          Isotropic Fermi Contact Couplings
        Atom                 a.u.       MegaHertz       Gauss      10(-4) cm-1
     1  N(14)              0.03146      10.16611       3.62752       3.39105
     2  N(14)              0.07750      25.04160       8.93547       8.35298
     3  C(13)              0.04136      46.49652      16.59111      15.50957
     4  C(13)             -0.02987     -33.58360     -11.98346     -11.20228
     5  N(14)              0.10210      32.98880      11.77123      11.00388
     6  H(1)              -0.00420     -18.77468      -6.69927      -6.26256
     7  H(1)               0.00072       3.23211       1.15330       1.07812
     8  H(1)               0.01148      51.32937      18.31560      17.12164
     9  C(13)              0.00425       4.77778       1.70483       1.59369
    10  O(17)              0.00516      -3.12681      -1.11573      -1.04299
    11  O(17)              0.00765      -4.63845      -1.65511      -1.54722
    12  O(17)              0.00100      -0.60482      -0.21581      -0.20174
    13  H(1)              -0.00001      -0.06038      -0.02155      -0.02014
    14  H(1)              -0.00013      -0.60038      -0.21423      -0.20027
    15  O(17)              0.00199      -1.20390      -0.42958      -0.40158
    16  H(1)              -0.00004      -0.16818      -0.06001      -0.05610
    17  H(1)              -0.00003      -0.12750      -0.04550      -0.04253
 --------------------------------------------------------
       Center         ----  Spin Dipole Couplings  ----
                      3XX-RR        3YY-RR        3ZZ-RR
 --------------------------------------------------------
     1   Atom       -0.135130     -0.214682      0.349812
     2   Atom       -0.267563     -0.244287      0.511850
     3   Atom       -0.096486     -0.097112      0.193598
     4   Atom        0.024835      0.044501     -0.069337
     5   Atom       -0.320653     -0.361018      0.681671
     6   Atom       -0.018953      0.024621     -0.005668
     7   Atom        0.001801      0.003463     -0.005263
     8   Atom        0.029772     -0.013168     -0.016604
     9   Atom        0.010886     -0.021103      0.010216
    10   Atom       -0.005201     -0.042045      0.047246
    11   Atom       -0.006812     -0.066292      0.073104
    12   Atom        0.002744     -0.002154     -0.000590
    13   Atom        0.002059     -0.001031     -0.001028
    14   Atom        0.005088     -0.002561     -0.002527
    15   Atom        0.006833     -0.000392     -0.006441
    16   Atom        0.001300      0.000126     -0.001426
    17   Atom        0.003581     -0.001247     -0.002334
 --------------------------------------------------------
                        XY            XZ            YZ
 --------------------------------------------------------
     1   Atom        0.051394      0.249272      0.124998
     2   Atom        0.024024      0.108980      0.150546
     3   Atom        0.033069      0.117286      0.103799
     4   Atom       -0.015327     -0.039233     -0.034418
     5   Atom        0.097093      0.372015      0.289037
     6   Atom       -0.002527      0.006306     -0.005076
     7   Atom       -0.001752     -0.002582     -0.002597
     8   Atom        0.024921     -0.005472     -0.001634
     9   Atom       -0.013829      0.036900     -0.005742
    10   Atom        0.018545      0.068634      0.029231
    11   Atom        0.011559      0.094812      0.019723
    12   Atom        0.001420      0.003096      0.001645
    13   Atom       -0.000098      0.000118      0.000034
    14   Atom        0.000071      0.001878      0.000512
    15   Atom        0.008720      0.001040      0.000523
    16   Atom        0.002631      0.001243      0.001335
    17   Atom        0.001491      0.001095      0.000150
 --------------------------------------------------------


 ---------------------------------------------------------------------------------
              Anisotropic Spin Dipole Couplings in Principal Axis System
 ---------------------------------------------------------------------------------

       Atom             a.u.   MegaHertz   Gauss  10(-4) cm-1        Axes

              Baa    -0.2420    -9.332    -3.330    -3.113  0.5253  0.7604 -0.3819
     1 N(14)  Bbb    -0.2394    -9.232    -3.294    -3.080  0.7606 -0.6208 -0.1901
              Bcc     0.4813    18.564     6.624     6.192  0.3816  0.1906  0.9045
 
              Baa    -0.2836   -10.936    -3.902    -3.648  0.9512 -0.2997 -0.0736
     2 N(14)  Bbb    -0.2723   -10.501    -3.747    -3.503  0.2779  0.9355 -0.2182
              Bcc     0.5558    21.437     7.649     7.151  0.1343  0.1871  0.9731
 
              Baa    -0.1391   -18.668    -6.661    -6.227  0.8602  0.3147 -0.4014
     3 C(13)  Bbb    -0.1285   -17.240    -6.152    -5.751 -0.3994  0.9051 -0.1463
              Bcc     0.2676    35.909    12.813    11.978  0.3173  0.2861  0.9042
 
              Baa    -0.0938   -12.581    -4.489    -4.197  0.3335  0.2624  0.9055
     4 C(13)  Bbb     0.0386     5.183     1.849     1.729  0.9122  0.1526 -0.3802
              Bcc     0.0551     7.399     2.640     2.468 -0.2379  0.9528 -0.1885
 
              Baa    -0.4439   -17.120    -6.109    -5.711  0.9477 -0.1711 -0.2693
     5 N(14)  Bbb    -0.4357   -16.804    -5.996    -5.605  0.0935  0.9559 -0.2784
              Bcc     0.8796    33.924    12.105    11.316  0.3051  0.2387  0.9219
 
              Baa    -0.0215   -11.458    -4.088    -3.822  0.9299  0.0105 -0.3676
     6 H(1)   Bbb    -0.0043    -2.271    -0.810    -0.758  0.3589  0.1920  0.9134
              Bcc     0.0257    13.729     4.899     4.580 -0.0802  0.9813 -0.1747
 
              Baa    -0.0070    -3.725    -1.329    -1.243  0.3216  0.2790  0.9048
     7 H(1)   Bbb     0.0023     1.234     0.440     0.411  0.8400  0.3569 -0.4086
              Bcc     0.0047     2.492     0.889     0.831 -0.4370  0.8915 -0.1195
 
              Baa    -0.0247   -13.166    -4.698    -4.392 -0.4226  0.9003 -0.1042
     8 H(1)   Bbb    -0.0171    -9.107    -3.250    -3.038  0.0438  0.1351  0.9899
              Bcc     0.0417    22.273     7.947     7.429  0.9053  0.4137 -0.0965
 
              Baa    -0.0308    -4.130    -1.474    -1.378  0.6280  0.6130 -0.4794
     9 C(13)  Bbb    -0.0194    -2.601    -0.928    -0.868 -0.3252  0.7664  0.5540
              Bcc     0.0502     6.732     2.402     2.246  0.7070 -0.1920  0.6806
 
              Baa    -0.0530     3.838     1.369     1.280  0.6929  0.4095 -0.5935
    10 O(17)  Bbb    -0.0497     3.598     1.284     1.200 -0.4664  0.8822  0.0642
              Bcc     0.1028    -7.436    -2.653    -2.480  0.5499  0.2324  0.8022
 
              Baa    -0.0706     5.111     1.824     1.705  0.6461  0.5725 -0.5048
    11 O(17)  Bbb    -0.0679     4.916     1.754     1.640 -0.5301  0.8124  0.2428
              Bcc     0.1386   -10.027    -3.578    -3.345  0.5490  0.1107  0.8284
 
              Baa    -0.0033     0.236     0.084     0.079  0.1511  0.7542 -0.6391
    12 O(17)  Bbb    -0.0019     0.139     0.049     0.046 -0.5622  0.5973  0.5720
              Bcc     0.0052    -0.375    -0.134    -0.125  0.8131  0.2729  0.5142
 
              Baa    -0.0011    -0.571    -0.204    -0.191  0.0486  0.7163 -0.6961
    13 H(1)   Bbb    -0.0010    -0.531    -0.190    -0.177 -0.0055  0.6971  0.7170
              Bcc     0.0021     1.103     0.393     0.368  0.9988 -0.0310  0.0378
 
              Baa    -0.0033    -1.754    -0.626    -0.585 -0.1775 -0.5554  0.8125
    14 H(1)   Bbb    -0.0022    -1.197    -0.427    -0.399 -0.1455  0.8313  0.5365
              Bcc     0.0055     2.951     1.053     0.984  0.9733  0.0230  0.2283
 
              Baa    -0.0066     0.475     0.170     0.159 -0.2559  0.2831  0.9243
    15 O(17)  Bbb    -0.0062     0.446     0.159     0.149 -0.4952  0.7828 -0.3769
              Bcc     0.0127    -0.921    -0.329    -0.307  0.8302  0.5541  0.0602
 
              Baa    -0.0023    -1.204    -0.429    -0.401  0.2495 -0.6683  0.7008
    16 H(1)   Bbb    -0.0018    -0.935    -0.334    -0.312 -0.6344  0.4339  0.6397
              Bcc     0.0040     2.139     0.763     0.713  0.7316  0.6042  0.3157
 
              Baa    -0.0025    -1.358    -0.484    -0.453 -0.2033  0.1215  0.9716
    17 H(1)   Bbb    -0.0016    -0.877    -0.313    -0.293 -0.2375  0.9565 -0.1693
              Bcc     0.0042     2.235     0.797     0.745  0.9499  0.2651  0.1656
 

 ---------------------------------------------------------------------------------

 D1PCM: PCM CHGder 1st derivatives, ID1Alg=3 FixD1E=F DoIter=F DoCFld=F I1PDM=0.
 Calling FoFJK, ICntrl=      2127 FMM=F ISym2X=0 I1Cent= 0 IOpClX= 1 NMat=1 NMatS=1 NMatT=0.
 ***** Axes restored to original set *****
 -------------------------------------------------------------------
 Center     Atomic                   Forces (Hartrees/Bohr)
 Number     Number              X              Y              Z
 -------------------------------------------------------------------
      1        7          -0.000009807   -0.000008930    0.000094785
      2        7           0.000004152    0.000053070   -0.000027883
      3        6          -0.000013835    0.000036373    0.000042677
      4        6          -0.000015716   -0.000033258   -0.000044510
      5        7           0.000016692   -0.000075659   -0.000061479
      6        1          -0.000017795   -0.000009118    0.000012959
      7        1           0.000003761   -0.000013196    0.000006351
      8        1          -0.000071633   -0.000104289    0.000008109
      9        6          -0.000022789    0.000014325   -0.000053586
     10        8           0.000086167   -0.000169222    0.000065057
     11        8           0.000011725    0.000108912   -0.000011050
     12        8          -0.000021496    0.000101642   -0.000001880
     13        1           0.000020688    0.000011550   -0.000001774
     14        1          -0.000021073    0.000026952   -0.000060933
     15        8           0.000146816    0.000199494    0.000033032
     16        1          -0.000033787    0.000014867    0.000011901
     17        1          -0.000062070   -0.000153513   -0.000011776
 -------------------------------------------------------------------
 Cartesian Forces:  Max     0.000199494 RMS     0.000064147

 GradGradGradGradGradGradGradGradGradGradGradGradGradGradGradGradGradGrad
 Berny optimization.
 FormGI is forming the generalized inverse of G from B-inverse, IUseBI=4.
 Internal  Forces:  Max     0.000117530 RMS     0.000042074
 Search for a local minimum.
 Step number   1 out of a maximum of   89
 All quantities printed in internal units (Hartrees-Bohrs-Radians)
 Mixed Optimization -- En-DIIS/RFO-DIIS
 Second derivative matrix not updated -- first step.
 ITU=  0
     Eigenvalues ---    0.00236   0.00565   0.00655   0.01073   0.01344
     Eigenvalues ---    0.01741   0.01946   0.02181   0.02198   0.02436
     Eigenvalues ---    0.02460   0.02845   0.04119   0.04658   0.05316
     Eigenvalues ---    0.05768   0.06286   0.06450   0.07398   0.08154
     Eigenvalues ---    0.09022   0.10286   0.12435   0.14138   0.15971
     Eigenvalues ---    0.15999   0.20599   0.23309   0.23386   0.24993
     Eigenvalues ---    0.35949   0.36172   0.39287   0.41659   0.42963
     Eigenvalues ---    0.43994   0.48354   0.49664   0.50569   0.50734
     Eigenvalues ---    0.52551   0.54212   0.54224   0.75127   0.82535
 RFO step:  Lambda=-2.26746173D-06 EMin= 2.36271290D-03
 Linear search not attempted -- first point.
 Iteration  1 RMS(Cart)=  0.00231295 RMS(Int)=  0.00000212
 Iteration  2 RMS(Cart)=  0.00000300 RMS(Int)=  0.00000061
 Iteration  3 RMS(Cart)=  0.00000000 RMS(Int)=  0.00000061
 Variable       Old X    -DE/DX   Delta X   Delta X   Delta X     New X
                                 (Linear)    (Quad)   (Total)
    R1        2.64052  -0.00005   0.00000  -0.00015  -0.00015   2.64037
    R2        2.58439   0.00003   0.00000   0.00005   0.00005   2.58444
    R3        2.66840   0.00000   0.00000  -0.00009  -0.00009   2.66831
    R4        2.62337  -0.00004   0.00000  -0.00009  -0.00009   2.62327
    R5        1.94632  -0.00001   0.00000   0.00005   0.00005   1.94637
    R6        2.58810  -0.00001   0.00000   0.00001   0.00001   2.58810
    R7        2.03813   0.00000   0.00000   0.00001   0.00001   2.03814
    R8        2.55907  -0.00001   0.00000   0.00001   0.00001   2.55908
    R9        2.04161   0.00000   0.00000   0.00001   0.00001   2.04161
   R10        3.58326  -0.00012   0.00000  -0.00169  -0.00169   3.58157
   R11        2.39315   0.00002   0.00000  -0.00002  -0.00002   2.39312
   R12        2.36577   0.00010   0.00000   0.00012   0.00012   2.36589
   R13        3.32605   0.00005   0.00000   0.00031   0.00031   3.32635
   R14        1.82528  -0.00002   0.00000  -0.00003  -0.00003   1.82524
   R15        1.85723  -0.00001   0.00000  -0.00006  -0.00006   1.85717
   R16        3.40933   0.00004   0.00000   0.00113   0.00113   3.41045
   R17        1.82539  -0.00001   0.00000  -0.00002  -0.00002   1.82537
   R18        1.85295  -0.00006   0.00000  -0.00004  -0.00004   1.85291
    A1        1.94921  -0.00002   0.00000   0.00005   0.00005   1.94925
    A2        2.11587  -0.00006   0.00000  -0.00067  -0.00068   2.11519
    A3        2.17163   0.00008   0.00000   0.00071   0.00071   2.17233
    A4        1.82208   0.00003   0.00000   0.00012   0.00012   1.82220
    A5        1.99932   0.00001   0.00000   0.00021   0.00021   1.99953
    A6        2.10438  -0.00003   0.00000   0.00018   0.00018   2.10456
    A7        1.86984   0.00001   0.00000   0.00004   0.00004   1.86988
    A8        2.11337  -0.00002   0.00000  -0.00009  -0.00009   2.11328
    A9        2.29879   0.00001   0.00000   0.00007   0.00007   2.29886
   A10        1.95465  -0.00002   0.00000  -0.00001  -0.00001   1.95463
   A11        2.23250   0.00001   0.00000   0.00003   0.00003   2.23253
   A12        2.09595   0.00000   0.00000  -0.00002  -0.00002   2.09593
   A13        1.81646   0.00001   0.00000  -0.00000  -0.00000   1.81646
   A14        2.00529  -0.00006   0.00000  -0.00096  -0.00096   2.00433
   A15        2.04225   0.00009   0.00000   0.00069   0.00069   2.04294
   A16        2.23524  -0.00002   0.00000   0.00027   0.00027   2.23551
   A17        2.05794  -0.00005   0.00000  -0.00102  -0.00102   2.05692
   A18        1.84818   0.00003   0.00000  -0.00003  -0.00003   1.84815
   A19        1.95573  -0.00005   0.00000  -0.00011  -0.00011   1.95562
   A20        1.60698  -0.00005   0.00000  -0.00022  -0.00022   1.60676
   A21        1.87624   0.00001   0.00000   0.00013   0.00013   1.87637
   A22        1.74232   0.00010   0.00000   0.00143   0.00143   1.74375
   A23        1.84351  -0.00003   0.00000  -0.00017  -0.00017   1.84334
   A24        3.23901   0.00001   0.00000   0.00025   0.00024   3.23926
   A25        2.92469  -0.00001   0.00000  -0.00167  -0.00167   2.92301
   A26        2.94636  -0.00008   0.00000  -0.00095  -0.00095   2.94541
   A27        3.09142  -0.00006   0.00000  -0.00336  -0.00336   3.08806
   A28        3.19200  -0.00001   0.00000   0.00044   0.00044   3.19245
   A29        3.04668  -0.00007   0.00000  -0.00066  -0.00066   3.04603
    D1       -0.15488   0.00003   0.00000   0.00115   0.00115  -0.15373
    D2       -2.49354   0.00004   0.00000   0.00064   0.00064  -2.49290
    D3       -2.98713   0.00001   0.00000   0.00075   0.00075  -2.98638
    D4        0.95740   0.00002   0.00000   0.00024   0.00024   0.95764
    D5        0.12053  -0.00002   0.00000  -0.00065  -0.00065   0.11988
    D6        2.94104  -0.00003   0.00000  -0.00052  -0.00052   2.94051
    D7       -0.17303  -0.00002   0.00000  -0.00269  -0.00269  -0.17572
    D8        2.99669  -0.00005   0.00000  -0.00266  -0.00266   2.99403
    D9       -2.96455  -0.00001   0.00000  -0.00298  -0.00298  -2.96753
   D10        0.20517  -0.00005   0.00000  -0.00295  -0.00295   0.20222
   D11        0.12374  -0.00003   0.00000  -0.00118  -0.00118   0.12257
   D12       -3.06448  -0.00002   0.00000  -0.00071  -0.00071  -3.06518
   D13        2.40202  -0.00001   0.00000  -0.00061  -0.00061   2.40142
   D14       -0.78619   0.00000   0.00000  -0.00014  -0.00014  -0.78633
   D15        1.56358  -0.00000   0.00000   0.00077   0.00077   1.56435
   D16       -0.35385  -0.00000   0.00000   0.00083   0.00083  -0.35302
   D17       -0.59405   0.00001   0.00000   0.00204   0.00204  -0.59201
   D18       -2.51148   0.00001   0.00000   0.00210   0.00210  -2.50938
   D19       -0.05692   0.00003   0.00000   0.00087   0.00087  -0.05606
   D20        3.07042   0.00000   0.00000   0.00007   0.00007   3.07049
   D21        3.13816   0.00001   0.00000   0.00034   0.00034   3.13850
   D22       -0.01768  -0.00001   0.00000  -0.00046  -0.00046  -0.01814
   D23       -0.03763  -0.00001   0.00000  -0.00014  -0.00014  -0.03777
   D24        3.11695   0.00001   0.00000   0.00058   0.00058   3.11754
   D25       -1.56633  -0.00010   0.00000  -0.00131  -0.00131  -1.56764
   D26        1.54343  -0.00006   0.00000  -0.00134  -0.00134   1.54209
   D27       -2.74606   0.00004   0.00000   0.00233   0.00233  -2.74373
   D28        1.59315   0.00011   0.00000   0.00290   0.00290   1.59605
   D29       -2.22389   0.00003   0.00000  -0.00005  -0.00005  -2.22394
   D30        2.14636  -0.00000   0.00000  -0.00054  -0.00054   2.14582
   D31       -0.36760   0.00002   0.00000  -0.00034  -0.00034  -0.36794
   D32       -2.28053  -0.00001   0.00000  -0.00083  -0.00083  -2.28137
         Item               Value     Threshold  Converged?
 Maximum Force            0.000118     0.000450     YES
 RMS     Force            0.000042     0.000300     YES
 Maximum Displacement     0.007404     0.001800     NO 
 RMS     Displacement     0.002314     0.001200     NO 
 Predicted change in Energy=-1.132127D-06
 GradGradGradGradGradGradGradGradGradGradGradGradGradGradGradGradGradGrad

                          Input orientation:                          
 ---------------------------------------------------------------------
 Center     Atomic      Atomic             Coordinates (Angstroms)
 Number     Number       Type             X           Y           Z
 ---------------------------------------------------------------------
      1          7           0        0.845812    0.374376   -0.029728
      2          7           0        0.671231   -0.880066    0.560295
      3          6           0        1.826630   -1.577945    0.236178
      4          6           0        2.677446   -0.691229   -0.368435
      5          7           0        2.113218    0.530556   -0.519308
      6          1           0        1.943662   -2.616131    0.503971
      7          1           0        3.691151   -0.864311   -0.699579
      8          1           0       -0.256010   -1.300841    0.405304
      9          6           0       -0.045266    1.437299    0.234744
     10          8           0       -1.092728    1.108782    0.866119
     11          8           0        0.271016    2.567387   -0.201502
     12          8           0       -3.176951    0.150153   -0.608507
     13          1           0       -4.011178    0.261809   -0.134675
     14          1           0       -2.498366    0.616887   -0.072300
     15          8           0       -1.865426   -2.213970   -0.004683
     16          1           0       -1.710236   -2.730991   -0.805713
     17          1           0       -2.422792   -1.456835   -0.283078
 ---------------------------------------------------------------------
                    Distance matrix (angstroms):
                    1          2          3          4          5
     1  N    0.000000
     2  N    1.397223   0.000000
     3  C    2.200970   1.388176   0.000000
     4  C    2.145955   2.218806   1.369566   0.000000
     5  N    1.367625   2.287952   2.258023   1.354206   0.000000
     6  H    3.230054   2.153178   1.078536   2.237137   3.313230
     7  H    3.174744   3.272224   2.204848   1.080375   2.113770
     8  H    2.051736   1.029976   2.107790   3.094425   3.134034
     9  C    1.412009   2.447351   3.549040   3.508221   2.459640
    10  O    2.258280   2.675928   4.017209   4.356417   3.540034
    11  O    2.273585   3.553229   4.449188   4.054300   2.764668
    12  O    4.070366   4.151620   5.360562   5.919419   5.304578
    13  H    4.859428   4.869478   6.132065   6.760224   6.142345
    14  H    3.353230   3.561937   4.859839   5.346765   4.634002
    15  O    3.748463   2.921152   3.754173   4.805075   4.860748
    16  H    4.096198   3.311086   3.863221   4.858354   5.033738
    17  H    3.755169   3.258361   4.282742   5.158088   4.957915
                    6          7          8          9         10
     6  H    0.000000
     7  H    2.751567   0.000000
     8  H    2.564816   4.122064   0.000000
     9  C    4.523120   4.486778   2.751529   0.000000
    10  O    4.819314   5.406478   2.592052   1.266386   0.000000
    11  O    5.492203   4.870519   3.950843   1.251976   2.264318
    12  O    5.925421   6.943216   3.415419   3.489307   2.727174
    13  H    6.644587   7.804687   4.103016   4.152915   3.199423
    14  H    5.524139   6.395120   2.988971   2.604813   1.760231
    15  O    3.863886   5.760209   1.895287   4.086817   3.520802
    16  H    3.883225   5.715833   2.372059   4.607528   4.233225
    17  H    4.585776   6.156692   2.278848   3.781108   3.110003
                   11         12         13         14         15
    11  O    0.000000
    12  O    4.230502   0.000000
    13  H    4.863881   0.965878   0.000000
    14  H    3.389781   0.982769   1.555176   0.000000
    15  O    5.240658   2.770159   3.278816   2.901541   0.000000
    16  H    5.688869   3.239002   3.834251   3.516722   0.965942
    17  H    4.843306   1.804735   2.344937   2.085777   0.980518
                   16         17
    16  H    0.000000
    17  H    1.550599   0.000000
 Stoichiometry    C3H7N3O4(1-,2)
 Framework group  C1[X(C3H7N3O4)]
 Deg. of freedom    45
 Full point group                 C1      NOp   1
 Largest Abelian subgroup         C1      NOp   1
 Largest concise Abelian subgroup C1      NOp   1
                         Standard orientation:                         
 ---------------------------------------------------------------------
 Center     Atomic      Atomic             Coordinates (Angstroms)
 Number     Number       Type             X           Y           Z
 ---------------------------------------------------------------------
      1          7           0        0.845641    0.375209   -0.030047
      2          7           0        0.672109   -0.879194    0.560371
      3          6           0        1.828127   -1.576180    0.236542
      4          6           0        2.678213   -0.688926   -0.368309
      5          7           0        2.112940    0.532324   -0.519606
      6          1           0        1.946040   -2.614180    0.504675
      7          1           0        3.692085   -0.861240   -0.699341
      8          1           0       -0.254760   -1.300819    0.405463
      9          6           0       -0.046367    1.437447    0.234035
     10          8           0       -1.093580    1.108230    0.865458
     11          8           0        0.268964    2.567667   -0.202556
     12          8           0       -3.176894    0.147331   -0.608976
     13          1           0       -4.011244    0.258420   -0.135225
     14          1           0       -2.498742    0.614823   -0.072882
     15          8           0       -1.863365   -2.215467   -0.004320
     16          1           0       -1.707685   -2.732611   -0.805175
     17          1           0       -2.421368   -1.458901   -0.282989
 ---------------------------------------------------------------------
 Rotational constants (GHZ):           1.5249654           0.9672313           0.6387818
 Standard basis: 6-31+G(d,p) (6D, 7F)
 There are   225 symmetry adapted cartesian basis functions of A   symmetry.
 There are   225 symmetry adapted basis functions of A   symmetry.
   225 basis functions,   369 primitive gaussians,   225 cartesian basis functions
    40 alpha electrons       39 beta electrons
       nuclear repulsion energy       549.1893941382 Hartrees.
 NAtoms=   17 NActive=   17 NUniq=   17 SFac= 1.00D+00 NAtFMM=   60 NAOKFM=F Big=F
 Integral buffers will be    131072 words long.
 Raffenetti 2 integral format.
 Two-electron integral symmetry is turned on.
 ------------------------------------------------------------------------------
 Polarizable Continuum Model (PCM)
 =================================
 Model                : PCM.
 Atomic radii         : SMD-Coulomb.
 Polarization charges : Total charges.
 Charge compensation  : None.
 Solution method      : On-the-fly selection.
 Cavity type          : VdW (van der Waals Surface) (Alpha=1.000).
 Cavity algorithm     : GePol (No added spheres)
                        Default sphere list used, NSphG=   17.
                        Lebedev-Laikov grids with approx.  5.0 points / Ang**2.
                        Smoothing algorithm: York/Karplus (Gamma=1.0000).
                        Polarization charges: spherical gaussians, with
                                              point-specific exponents (IZeta= 3).
                        Self-potential: point-specific (ISelfS= 7).
                        Self-field    : sphere-specific E.n sum rule (ISelfD= 2).
 1st derivatives      : Analytical E(r).r(x)/FMM algorithm (CHGder, D1EAlg=3).
                        Cavity 1st derivative terms included.
 Solvent              : Water, Eps=  78.355300 Eps(inf)=   1.777849
 ------------------------------------------------------------------------------
 Spheres list:
 ISph  on   Nord     Re0    Alpha      Xe            Ye            Ze
    1   N      1    1.8900  1.000      0.845641      0.375209     -0.030047
    2   N      2    1.8900  1.000      0.672109     -0.879194      0.560371
    3   C      3    1.8500  1.000      1.828127     -1.576180      0.236542
    4   C      4    1.8500  1.000      2.678213     -0.688926     -0.368309
    5   N      5    1.8900  1.000      2.112940      0.532324     -0.519606
    6   H      6    1.2000  1.000      1.946040     -2.614180      0.504675
    7   H      7    1.2000  1.000      3.692085     -0.861240     -0.699341
    8   H      8    1.2000  1.000     -0.254760     -1.300819      0.405463
    9   C      9    1.8500  1.000     -0.046367      1.437447      0.234035
   10   O     10    1.5200  1.000     -1.093580      1.108230      0.865458
   11   O     11    1.5200  1.000      0.268964      2.567667     -0.202556
   12   O     12    1.5200  1.000     -3.176894      0.147331     -0.608976
   13   H     13    1.2000  1.000     -4.011244      0.258420     -0.135225
   14   H     14    1.2000  1.000     -2.498742      0.614823     -0.072882
   15   O     15    1.5200  1.000     -1.863365     -2.215467     -0.004320
   16   H     16    1.2000  1.000     -1.707685     -2.732611     -0.805175
   17   H     17    1.2000  1.000     -2.421368     -1.458901     -0.282989
 ------------------------------------------------------------------------------
 ------------------------------------------------------------------------------
 Atomic radii for non-electrostatic terms: SMD-CDS.
 ------------------------------------------------------------------------------
 Nuclear repulsion after PCM non-electrostatic terms =      549.1979658556 Hartrees.
 One-electron integrals computed using PRISM.
 NBasis=   225 RedAO= T EigKep=  3.08D-05  NBF=   225
 NBsUse=   225 1.00D-06 EigRej= -1.00D+00 NBFU=   225
 Initial guess from the checkpoint file:  "/scratch/gongke2021/RC-2-N-test/Gau-19569.chk"
 B after Tr=     0.000000   -0.000000    0.000000
         Rot=    1.000000   -0.000055   -0.000010   -0.000444 Ang=  -0.05 deg.
 Initial guess <Sx>= 0.0000 <Sy>= 0.0000 <Sz>= 0.5000 <S**2>= 0.7638 S= 0.5069
 Requested convergence on RMS density matrix=1.00D-08 within 128 cycles.
 Requested convergence on MAX density matrix=1.00D-06.
 Requested convergence on             energy=1.00D-06.
 No special actions if energy rises.
 Inv3:  Mode=1 IEnd=     5721483.
 Iteration    1 A*A^-1 deviation from unit magnitude is 3.11D-15 for    378.
 Iteration    1 A*A^-1 deviation from orthogonality  is 2.29D-15 for    929    730.
 Iteration    1 A^-1*A deviation from unit magnitude is 2.55D-15 for    544.
 Iteration    1 A^-1*A deviation from orthogonality  is 1.44D-15 for    375     58.
 Error on total polarization charges =  0.06077
 SCF Done:  E(UM062X) =  -583.607483146     A.U. after   11 cycles
            NFock= 11  Conv=0.43D-08     -V/T= 2.0085
 <Sx>= 0.0000 <Sy>= 0.0000 <Sz>= 0.5000 <S**2>= 0.7638 S= 0.5069
 <L.S>=  0.00000000000    
 SMD-CDS (non-electrostatic) energy       (kcal/mol) =       5.38
 (included in total energy above)
 Annihilation of the first spin contaminant:
 S**2 before annihilation     0.7638,   after     0.7501
 D1PCM: PCM CHGder 1st derivatives, ID1Alg=3 FixD1E=F DoIter=F DoCFld=F I1PDM=0.
 Calling FoFJK, ICntrl=      2127 FMM=F ISym2X=0 I1Cent= 0 IOpClX= 1 NMat=1 NMatS=1 NMatT=0.
 ***** Axes restored to original set *****
 -------------------------------------------------------------------
 Center     Atomic                   Forces (Hartrees/Bohr)
 Number     Number              X              Y              Z
 -------------------------------------------------------------------
      1        7           0.000053550    0.000007363    0.000017088
      2        7           0.000060827    0.000000871    0.000031624
      3        6          -0.000046244    0.000012577   -0.000020003
      4        6           0.000018817   -0.000008375    0.000025402
      5        7          -0.000007382   -0.000027184   -0.000038929
      6        1          -0.000013149   -0.000010827   -0.000003036
      7        1          -0.000002678   -0.000018013   -0.000006397
      8        1          -0.000054690   -0.000083892   -0.000016447
      9        6          -0.000019204   -0.000010823   -0.000072360
     10        8           0.000000553   -0.000019100    0.000119139
     11        8           0.000003772   -0.000023016   -0.000008772
     12        8          -0.000030884    0.000092280   -0.000021011
     13        1           0.000003566    0.000014421    0.000003714
     14        1          -0.000000901    0.000009992   -0.000049498
     15        8           0.000103843    0.000197417    0.000028836
     16        1          -0.000021373   -0.000006406    0.000001563
     17        1          -0.000048422   -0.000127285    0.000009085
 -------------------------------------------------------------------
 Cartesian Forces:  Max     0.000197417 RMS     0.000050152

 GradGradGradGradGradGradGradGradGradGradGradGradGradGradGradGradGradGrad
 Berny optimization.
 Using GEDIIS/GDIIS optimizer.
 FormGI is forming the generalized inverse of G from B-inverse, IUseBI=4.
 Internal  Forces:  Max     0.000130666 RMS     0.000030490
 Search for a local minimum.
 Step number   2 out of a maximum of   89
 All quantities printed in internal units (Hartrees-Bohrs-Radians)
 Mixed Optimization -- En-DIIS/RFO-DIIS
 Swapping is turned off.
 Update second derivatives using D2CorX and points    1    2
 DE= -6.90D-07 DEPred=-1.13D-06 R= 6.09D-01
 TightC=F SS=  1.41D+00  RLast= 9.62D-03 DXNew= 5.0454D-01 2.8867D-02
 Trust test= 6.09D-01 RLast= 9.62D-03 DXMaxT set to 3.00D-01
 ITU=  1  0
     Eigenvalues ---    0.00223   0.00558   0.00645   0.00969   0.01224
     Eigenvalues ---    0.01710   0.01978   0.02188   0.02266   0.02429
     Eigenvalues ---    0.02504   0.02999   0.03285   0.04189   0.05154
     Eigenvalues ---    0.05683   0.06301   0.06607   0.07093   0.08176
     Eigenvalues ---    0.08730   0.09892   0.12379   0.15965   0.15998
     Eigenvalues ---    0.16722   0.20561   0.23140   0.23789   0.25393
     Eigenvalues ---    0.35949   0.36172   0.39242   0.41708   0.42973
     Eigenvalues ---    0.43915   0.48404   0.49656   0.50481   0.50729
     Eigenvalues ---    0.52544   0.54218   0.54255   0.75164   0.83178
 En-DIIS/RFO-DIIS/Sim-DIIS IScMMF=       -3 using points:     2    1
 RFO step:  Lambda=-2.00110898D-06.
 DidBck=F Rises=F RFO-DIIS coefs:    2.26330   -1.26330
 Iteration  1 RMS(Cart)=  0.00315143 RMS(Int)=  0.00000528
 Iteration  2 RMS(Cart)=  0.00000674 RMS(Int)=  0.00000192
 Iteration  3 RMS(Cart)=  0.00000000 RMS(Int)=  0.00000192
 Variable       Old X    -DE/DX   Delta X   Delta X   Delta X     New X
                                 (Linear)    (Quad)   (Total)
    R1        2.64037  -0.00003  -0.00019   0.00003  -0.00017   2.64020
    R2        2.58444   0.00000   0.00006  -0.00002   0.00004   2.58448
    R3        2.66831   0.00002  -0.00012   0.00010  -0.00002   2.66829
    R4        2.62327  -0.00004  -0.00012  -0.00005  -0.00017   2.62310
    R5        1.94637   0.00001   0.00006   0.00007   0.00013   1.94651
    R6        2.58810   0.00001   0.00001   0.00001   0.00001   2.58812
    R7        2.03814   0.00000   0.00001  -0.00000   0.00001   2.03814
    R8        2.55908   0.00000   0.00001  -0.00001   0.00000   2.55908
    R9        2.04161   0.00000   0.00001  -0.00000   0.00001   2.04162
   R10        3.58157  -0.00007  -0.00213  -0.00087  -0.00300   3.57858
   R11        2.39312   0.00006  -0.00003   0.00010   0.00007   2.39319
   R12        2.36589  -0.00002   0.00016  -0.00011   0.00004   2.36594
   R13        3.32635   0.00003   0.00039   0.00033   0.00072   3.32707
   R14        1.82524  -0.00000  -0.00004   0.00002  -0.00003   1.82522
   R15        1.85717  -0.00001  -0.00008  -0.00002  -0.00009   1.85707
   R16        3.41045   0.00005   0.00143   0.00078   0.00221   3.41266
   R17        1.82537   0.00001  -0.00003   0.00004   0.00001   1.82538
   R18        1.85291  -0.00003  -0.00005  -0.00005  -0.00010   1.85281
    A1        1.94925  -0.00000   0.00006   0.00005   0.00011   1.94936
    A2        2.11519  -0.00003  -0.00085   0.00030  -0.00056   2.11463
    A3        2.17233   0.00003   0.00089  -0.00023   0.00067   2.17301
    A4        1.82220   0.00002   0.00015  -0.00014   0.00001   1.82221
    A5        1.99953  -0.00004   0.00026  -0.00043  -0.00017   1.99936
    A6        2.10456   0.00001   0.00023  -0.00023   0.00000   2.10457
    A7        1.86988  -0.00000   0.00005   0.00003   0.00008   1.86996
    A8        2.11328  -0.00000  -0.00011  -0.00000  -0.00011   2.11317
    A9        2.29886   0.00000   0.00009  -0.00005   0.00003   2.29889
   A10        1.95463  -0.00001  -0.00002  -0.00004  -0.00006   1.95457
   A11        2.23253   0.00001   0.00003   0.00003   0.00007   2.23259
   A12        2.09593   0.00000  -0.00003   0.00003  -0.00000   2.09593
   A13        1.81646  -0.00001  -0.00000  -0.00003  -0.00003   1.81643
   A14        2.00433   0.00006  -0.00121   0.00089  -0.00033   2.00400
   A15        2.04294  -0.00003   0.00087  -0.00056   0.00031   2.04325
[...]
   xx         0.132973D+03      0.197046D+02      0.219243D+02
   yx        -0.178903D+02     -0.265107D+01     -0.294971D+01
   yy         0.915171D+02      0.135614D+02      0.150891D+02
   zx         0.147212D+02      0.218146D+01      0.242720D+01
   zy         0.160840D+02      0.238340D+01      0.265190D+01
   zz         0.139012D+03      0.205994D+02      0.229200D+02

 ----------------------------------------------------------------------
 1\1\GINC-NODE4\Freq\UM062X\6-31+G(d,p)\C3H7N3O4(1-,2)\GONGKE2021\07-Ju
 l-2023\0\\#N Geom=AllCheck Guess=TCheck SCRF=Check GenChk UM062X/6-31+
 G(d,p) Freq\\TS\\-1,2\N,0.8504042714,0.3649476915,-0.0215940472\N,0.68
 48852979,-0.8906101866,0.567948073\C,1.8433204491,-1.5813478657,0.2390
 8651\C,2.6863549134,-0.6894604827,-0.3687709896\N,2.1139845428,0.52888
 47936,-0.5179392163\H,1.967983338,-2.6187198122,0.5065445869\H,3.69968
 16462,-0.8564852736,-0.7041535978\H,-0.2417202069,-1.3142672673,0.4141
 430301\C,-0.05499596,1.4174586609,0.2320903226\O,-1.096190942,1.080898
 527,0.8698831331\O,0.2438151893,2.5472207935,-0.2174868741\O,-3.193460
 0793,0.1681644692,-0.614990093\H,-4.0267156143,0.2769787516,-0.1388340
 082\H,-2.513139589,0.6275977966,-0.0748741445\O,-1.8602825548,-2.18938
 08104,-0.0055298852\H,-1.7179807985,-2.7184117265,-0.8011027608\H,-2.4
 247329033,-1.4385390589,-0.2853170389\\Version=ES64L-G16RevA.03\State=
 2-A\HF=-583.6074738\S2=0.763826\S2-1=0.\S2A=0.750061\RMSD=2.422e-09\RM
 SF=1.570e-05\ZeroPoint=0.1202893\Thermal=0.1328761\Dipole=-0.2089853,-
 4.5116643,-0.3993879\DipoleDeriv=-1.026012,1.1971744,-0.0102195,0.9256
 479,-1.0144708,-0.2443107,0.1802936,-0.4474172,-0.0648415,-0.8917221,-
 0.6070878,0.4562562,-0.2022489,-0.1274473,-0.0349923,0.4794139,0.41172
 72,-0.5571102,0.0919719,0.1485148,-0.3198014,-0.1752719,-0.4337583,0.0
 870838,-0.1629239,-0.2272881,-0.0834887,0.2006155,-0.127606,-0.0787276
 ,0.3588302,0.5345927,-0.2615934,-0.2216274,-0.1761577,0.0005825,-0.135
 2065,-0.103615,0.068374,-0.3092236,-0.7917509,0.2361301,-0.0176828,0.2
 036374,-0.3824027,0.1569443,0.040983,0.0437595,0.0318731,0.1159717,0.0
 364474,0.0468484,0.0880523,0.2345816,0.035239,0.0553556,0.053464,0.027
 8073,0.1538541,0.0073613,0.0568368,0.0131191,0.1924185,0.8863046,0.364
 5867,-0.0201916,0.2945866,0.467389,0.0331064,-0.0562309,-0.0339201,0.4
 85058,3.0975609,-0.7143312,-1.0567294,-0.6891268,3.8269594,-0.4868582,
 -1.2147769,-0.4334017,1.188091,-2.4804298,0.0396224,0.591176,-0.293809
 8,-1.0814895,0.1558331,0.6884715,-0.0166859,-1.1310712,-0.9824814,-0.2
 217565,0.1783839,0.0886106,-2.5765088,0.4323211,0.123667,0.609925,-0.9
 044195,-1.1779012,0.0248854,-0.1451607,-0.0419001,-1.0981455,0.0964344
 ,-0.2665478,0.0775383,-0.790813,0.3955572,-0.0044267,0.0321532,0.01811
 54,0.4220019,-0.047759,0.0512997,-0.0427868,0.3635693,1.0199594,0.1631
 57,0.1739376,0.2333932,0.4920311,0.0241216,0.3571746,0.0421253,0.45633
 29,-1.1944696,-0.0461973,0.045885,-0.0678064,-1.1560481,0.0439897,-0.0
 472522,0.025693,-0.6924559,0.4281791,0.0129041,-0.0266749,0.0312962,0.
 427507,-0.0117918,-0.005404,-0.0300596,0.3125216,0.5758907,-0.2221632,
 0.0141158,-0.2307732,0.8393123,-0.0655234,0.0084405,-0.0641005,0.37344
 72\Polar=133.3972331,-12.1280369,142.7113914,-17.6109546,-11.3807258,8
 7.3936004\Quadrupole=7.6658974,-8.4798618,0.8139644,-6.2031412,1.49857
 82,4.8009246\PG=C01 [X(C3H7N3O4)]\NImag=0\\0.62113470,-0.14805227,0.65
 338363,-0.19266481,-0.11686610,0.17070839,-0.10714385,0.00223585,0.019
 60135,0.79789472,-0.01962425,-0.20612222,0.08777104,0.05587609,0.52690
 995,0.01441591,0.07162839,-0.06014324,-0.05494881,-0.06163854,0.144533
 67,-0.02853431,0.04877783,-0.00558788,-0.25048606,0.08510217,0.0439879
 2,0.54014998,0.03123456,-0.06546689,0.00268382,0.07042564,-0.15131482,
 -0.00368430,-0.01925311,0.83007572,0.00313396,0.00650105,-0.00489690,0
 .07295054,-0.02428515,-0.05388904,-0.16928276,-0.21076807,0.22644690,-
 0.07168917,0.03894781,0.01969690,-0.06290939,0.01140986,0.02556209,-0.
 22702551,-0.13007456,0.10475100,0.82645446,0.05267824,-0.02543353,-0.0
 0814388,-0.00528314,0.01005609,0.00431809,-0.11171044,-0.18491537,0.08
 373476,-0.04269680,0.51771930,0.01183259,-0.00463800,0.00034659,0.0370
 1545,-0.00245563,0.00045894,0.09973775,0.09123867,-0.12816901,-0.25800
 687,-0.11096757,0.26088315,-0.22362451,-0.04419851,0.08856810,-0.04293
 511,-0.02748351,0.02721422,0.03784037,0.02043343,-0.01513591,-0.140289
 91,0.08678929,0.00379965,0.39885793,0.01047412,-0.10444513,0.01616222,
 -0.02927616,-0.02212560,0.01338130,-0.02878303,-0.10754051,0.04822616,
 0.07679595,-0.24620155,0.03199472,-0.06436580,0.47143531,0.06046267,0.
 03660553,-0.06080256,0.02611151,0.01893212,-0.02087070,0.00468632,0.03
 127845,0.01786198,0.00910940,0.02732245,-0.06381432,-0.10623839,-0.098
 55626,0.13136668,-0.00650844,0.00313337,0.00376378,0.00196693,0.025922
 48,-0.01027977,-0.05595548,0.03245258,0.00602313,0.01085083,-0.0163782
 7,0.00082738,-0.00109435,-0.00288633,0.00406198,0.04934867,-0.00029902
 ,0.00121672,0.00026074,-0.00114603,-0.00703218,0.00208185,0.03832356,-
 0.34895098,0.08392685,0.00546498,-0.00605311,0.00011096,0.00007618,0.0
 0158339,0.00150844,-0.04250372,0.36025204,0.00219764,0.00066374,0.0018
 6020,-0.00026448,-0.01201489,0.00062261,0.00126038,0.08931281,-0.04914
 411,-0.00527764,0.00805605,0.00010118,0.00418522,0.00340259,0.00370428
 ,-0.00191791,-0.08752539,0.04471604,0.00130361,0.00213647,0.00191727,0
 .00011648,-0.00038790,0.00196571,-0.00556015,0.00612391,0.00093087,-0.
 32866180,0.04307365,0.09954301,-0.00712396,0.00055323,0.00041959,-0.00
 039335,-0.00047001,-0.00079752,0.34011644,0.00455548,-0.00662897,0.001
 72499,-0.00288206,-0.00300979,0.00306887,-0.01706638,0.01128000,0.0042
 0344,0.03819183,-0.06354521,-0.00535566,0.02648741,0.00079651,-0.01148
 158,0.00045642,-0.00030054,-0.00099090,-0.05059473,0.05919604,0.000602
 55,0.00274174,0.00586716,0.00276360,0.00500715,0.00537135,0.00852479,-
 0.00511283,-0.00053068,0.10009898,-0.00690641,-0.07043934,-0.00633421,
 -0.00240966,-0.00183083,-0.00113453,-0.00059053,-0.00212820,-0.1047121
 4,0.00857852,0.06281036,0.00591667,-0.00025105,0.00655470,-0.32456801,
 -0.12210640,-0.04666341,-0.01805107,-0.00528449,-0.00155775,-0.0011284
 2,0.00257052,-0.00137562,0.00366467,0.00328411,-0.00427862,0.00058046,
 0.00025864,0.00059396,0.00035123,-0.00006674,0.00045312,0.32848189,-0.
 02866604,-0.01401368,-0.00124764,-0.11415262,-0.11451382,-0.01027655,0
 .01447522,0.01837356,0.00401875,0.00623172,-0.00392356,-0.00117136,0.0
 0099341,-0.00217493,-0.00067069,-0.00083136,-0.00042086,-0.00021641,0.
 00002495,0.00076291,-0.00137419,0.11781603,0.11757274,0.02333212,0.004
 59173,-0.00336285,-0.08483333,-0.02331525,-0.01913677,0.01435951,0.003
 01000,-0.00587404,0.00178757,-0.00024175,0.00087039,0.00022459,0.00365
 216,-0.00073924,-0.00034212,-0.00015033,-0.00039028,0.00055814,0.00070
 990,0.00006583,0.04537225,0.00908440,0.03230223,-0.12935111,0.05441950
 ,0.01642415,-0.00080672,0.00140964,0.00231179,0.00897282,-0.00984618,-
 0.00314252,-0.00402966,-0.01043554,0.00548039,-0.02397446,0.02150768,0
 .00700340,0.00185139,-0.00004013,0.00038466,0.00078738,0.00017518,0.00
 006481,0.00569298,-0.00145239,-0.00129899,0.58317827,0.04849933,-0.151
 43106,0.01972058,0.02137933,-0.02632226,-0.01434329,-0.01304923,0.0041
 8093,0.00713387,-0.00606698,0.00626473,0.00075595,0.00660313,0.0072681
 1,-0.01032535,-0.00058997,-0.00002533,-0.00069164,-0.00128093,0.002178
 29,-0.00007293,-0.00615671,-0.00475290,0.00120361,0.10254751,0.6783277
 6,0.03720461,-0.00409741,-0.05808801,-0.01440362,0.00993681,-0.0034448
 7,0.00057799,0.00444721,-0.00253053,0.00185407,0.00222663,-0.00005773,
 0.00064234,-0.00826583,-0.00985586,-0.00101879,0.00045032,0.00069027,0
 .00016935,0.00017400,0.00117679,-0.00178327,0.00051134,0.00164331,-0.2
 1127841,-0.18113394,0.36806360,-0.07224975,0.02005535,0.05035065,0.004
 66875,-0.00406483,-0.00657115,-0.00478372,0.00355782,0.00351615,-0.002
 64655,0.00068642,0.00126663,-0.00234764,0.00882860,-0.00004502,-0.0004
 1668,-0.00001004,-0.00033127,-0.00077780,0.00087836,-0.00047160,-0.004
 07368,-0.00072103,0.00081089,-0.31782645,-0.06730259,0.14025111,0.4256
 5240,0.03174146,0.00974969,-0.00976174,0.00691967,-0.00189576,-0.00669
 491,-0.00118922,0.00163148,-0.00043957,0.00332001,0.00018327,-0.001055
 03,-0.00289683,-0.00404489,0.00199185,0.00003901,-0.00010351,-0.000051
 33,0.00027273,-0.00032520,0.00005233,0.00023841,0.00279893,0.00198455,
 -0.07495827,-0.11251925,0.04664614,0.09916715,0.13819393,0.04010175,-0
 .00774863,-0.00807959,-0.00478963,0.00169958,0.00440591,0.00286081,-0.
 00198763,-0.00071829,0.00098049,0.00006042,-0.00011416,0.00347633,-0.0
 0346300,0.00503579,0.00016103,0.00001302,0.00009984,0.00011581,-0.0006
 2956,-0.00033569,0.00121058,0.00005148,-0.00168552,0.15021002,0.048919
 97,-0.16986337,-0.22495613,-0.07710396,0.18441088,0.00896099,0.0228856
 5,-0.00597187,-0.00202099,0.00087519,0.00476469,0.00049789,0.00247340,
 -0.00091954,0.00170829,0.00103045,-0.00080429,0.00210350,0.00515922,-0
 .00195964,-0.00016749,0.00020086,-0.00001203,-0.00011688,-0.00000488,0
 .00000353,-0.00036100,0.00079189,-0.00043323,-0.11030213,-0.08265265,0
 .04133890,-0.02320188,-0.06030128,0.03943161,0.12078343,0.01617358,-0.
 09142999,0.00878638,0.00450597,-0.00384567,0.00320993,0.00369165,-0.00
 551850,-0.00146462,-0.00094566,-0.00429519,0.00122554,-0.00176792,0.00
 615297,0.00312761,0.00124355,-0.00019434,0.00004524,0.00056632,-0.0003
 2943,-0.00005201,0.00405887,0.00161677,-0.00066355,-0.07981116,-0.4033
 1383,0.12803030,-0.05856810,-0.03134769,0.04333610,0.10901288,0.532713
 05,-0.00096707,0.01115662,0.01784809,0.00415553,0.00189669,0.00026192,
 -0.00132462,0.00040844,0.00170597,-0.00034966,0.00051113,-0.00010742,-
 0.00025698,-0.00356758,-0.00025564,-0.00014181,-0.00011566,-0.00013516
 ,-0.00010840,0.00005345,-0.00007144,-0.00112344,-0.00000332,0.00002980
 ,0.03723165,0.12973027,-0.13141377,0.04087971,0.04645143,-0.00578202,-
 0.07643333,-0.18681436,0.11886499,-0.00154863,0.00147270,0.00166927,0.
 00000834,-0.00031436,-0.00045733,-0.00033046,0.00018915,0.00023117,-0.
 00008198,0.00021850,0.00000525,-0.00028532,0.00010319,-0.00001992,-0.0
 0004222,0.00000005,-0.00001549,-0.00004854,0.00003224,-0.00000306,0.00
 045692,0.00006056,0.00024121,0.01072123,0.00369166,-0.00963962,-0.0247
 7992,-0.00924112,-0.00763224,-0.00184893,-0.00365304,0.00263392,0.6455
 8652,-0.00105185,0.00063103,0.00106114,0.00083590,0.00012431,-0.000229
 15,-0.00034709,0.00027869,0.00021283,0.00000402,0.00008496,-0.00002755
 ,-0.00004963,0.00018574,0.00000843,-0.00002575,-0.00000661,-0.00001281
 ,-0.00002156,0.00002430,-0.00001825,-0.00145844,-0.00081776,-0.0002669
 8,0.00499977,0.00187375,-0.00462141,-0.01231702,-0.00212808,-0.0024689
 7,-0.00085475,-0.00147143,0.00083209,0.09326980,0.14033417,-0.00113940
 ,0.00071693,0.00087158,0.00015798,-0.00012491,-0.00027766,-0.00021923,
 0.00013476,0.00015426,-0.00004300,0.00010797,0.00001050,-0.00023099,0.
 00007765,0.00007347,-0.00002542,-0.00000155,-0.00001597,-0.00002848,0.
 00001996,-0.00000529,-0.00000970,-0.00005185,0.00002060,0.00480560,0.0
 0159193,-0.00561426,-0.01521498,-0.00491942,-0.00039397,-0.00116128,-0
 .00188985,0.00133576,-0.05387331,0.17099457,0.32271292,0.00004140,0.00
 000315,0.00001778,0.00002314,0.00002788,-0.00001098,0.00000302,0.00000
 695,0.00000822,0.00000187,-0.00000394,-0.00000214,0.00000537,-0.000000
 78,-0.00001775,-0.00000083,0.00000084,-0.00000020,0.00000070,0.0000001
 7,-0.00000027,-0.00007793,-0.00002360,-0.00001762,0.00023982,0.0000372
 8,-0.00016939,-0.00031372,-0.00031083,-0.00062303,0.00000164,-0.000035
 61,0.00006312,-0.39972800,0.03085737,0.19318648,0.42429281,-0.00003862
 ,0.00005617,0.00007608,0.00004336,0.00000871,-0.00000363,-0.00002044,0
 .00001661,0.00001483,-0.00000196,0.00001543,-0.00000397,0.00000325,0.0
 0000096,-0.00000854,-0.00000078,-0.00000046,-0.00000138,-0.00000164,0.
 00000173,-0.00000064,-0.00010111,-0.00004288,-0.00003764,0.00054954,0.
 00020563,-0.00045704,-0.00106529,-0.00028276,-0.00069086,-0.00004281,-
 0.00019230,0.00014158,0.05502303,-0.02195555,-0.04960190,-0.03841956,0
 .01981833,-0.00007295,0.00013544,0.00014509,-0.00000138,-0.00002548,-0
 .00003978,-0.00002748,0.00001569,0.00001121,-0.00000504,0.00002096,-0.
 00000072,-0.00000283,0.00000405,-0.00002178,-0.00000356,0.00000102,-0.
 00000041,-0.00000302,0.00000249,-0.00000051,0.00002516,-0.00000457,0.0
 0002189,0.00087946,0.00031603,-0.00077802,-0.00183286,-0.00089401,-0.0
 0109453,-0.00011662,-0.00032295,0.00025934,0.23516360,-0.04141733,-0.1
 5260868,-0.21213097,0.04031792,0.14308724,0.00345670,-0.00272139,-0.00
 289342,-0.00063459,0.00032886,0.00069882,0.00079165,-0.00048295,-0.000
 50291,0.00014522,-0.00041585,0.00002192,0.00043641,-0.00029334,0.00015
 338,0.00008486,0.00000096,0.00003298,0.00008529,-0.00007177,0.00000407
 ,0.00059490,0.00061959,-0.00006800,-0.02342371,-0.00795369,0.01558630,
 0.02224293,0.00740410,0.00005802,0.00389888,0.00697560,-0.00452034,-0.
 22269020,-0.11763979,-0.12552362,-0.02340704,-0.01775712,-0.02161844,0
 .23726601,0.00158009,-0.00101400,-0.00154278,-0.00033499,0.00020531,0.
 00035820,0.00030864,-0.00023897,-0.00020842,0.00006102,-0.00011863,-0.
 00000172,0.00010489,-0.00022241,-0.00008258,0.00003285,0.00000304,0.00
 001636,0.00003827,-0.00002790,0.00002267,0.00051774,0.00017924,0.00002
 686,-0.00767572,-0.00323713,0.00528781,0.00901668,0.00007541,0.0000581
 9,0.00135473,0.00216366,-0.00068403,-0.14396754,-0.10951664,-0.1192411
 0,0.00666457,0.00211236,0.00210819,0.13281650,0.11618045,0.00225590,-0
 .00139269,-0.00193127,-0.00037814,0.00017805,0.00049200,0.00044640,-0.
 00029016,-0.00029592,0.00008446,-0.00020267,-0.00001069,0.00034660,-0.
 00022494,-0.00003713,0.00004835,0.00000253,0.00002815,0.00005369,-0.00
 004341,0.00001210,0.00037928,0.00031173,0.00002520,-0.00868921,-0.0033
 4027,0.01002293,0.01218875,0.00386919,-0.00576636,0.00225721,0.0037927
 7,-0.00261245,-0.16698050,-0.12793426,-0.16384073,0.01953026,0.0112628
 4,0.01103049,0.13822818,0.11507159,0.15242298,0.00022211,0.00119650,-0
 .00165910,-0.01284430,-0.00640088,-0.00223050,0.00260233,-0.00217377,-
 0.00117630,-0.00073036,-0.00005278,0.00065814,-0.00126887,-0.00117062,
 0.00057232,-0.00008988,0.00013830,-0.00000749,-0.00007564,-0.00009346,
 0.00015502,0.00465259,0.00490661,0.00301810,-0.00228181,0.00245605,0.0
 0113073,0.00203276,-0.00003582,-0.00044411,0.00014582,-0.00144563,0.00
 018913,-0.00406611,0.01270950,-0.00143052,0.00074436,0.00054625,-0.000
 35930,-0.00176502,-0.00067728,-0.00083052,0.19423004,0.00063277,0.0010
 6336,-0.00035701,-0.00783022,-0.00038483,-0.00118511,0.00053521,-0.001
 68406,-0.00069174,-0.00060693,0.00017739,0.00032149,-0.00065523,-0.000
 50675,0.00024912,-0.00008256,0.00002098,-0.00000220,-0.00003235,-0.000
 06000,0.00012240,0.00506223,-0.00215639,0.00084943,0.00004586,0.001552
 32,-0.00021316,-0.00067314,-0.00086627,-0.00054642,-0.00016943,-0.0010
 1840,0.00028884,0.01150402,-0.01714899,0.00249690,-0.00092778,-0.00189
 127,0.00091815,0.00144039,0.00210656,0.00077275,-0.25795779,0.46085915
 ,-0.00055272,0.00010208,-0.00043696,-0.00383761,-0.00153143,0.00146046
 ,0.00012452,-0.00083229,-0.00017446,-0.00029234,0.00012672,0.00005679,
 -0.00031956,-0.00046599,0.00023313,-0.00000527,0.00003459,-0.00000624,
 -0.00002830,-0.00004057,0.00004820,0.00422610,0.00150017,-0.00276489,-
 0.00044990,0.00065043,0.00007946,0.00038867,-0.00018779,-0.00001729,-0
 .00000382,-0.00043290,0.00012122,-0.00200471,0.00227948,0.00310681,0.0
 0019362,0.00100905,-0.00023786,-0.00048933,0.00037291,-0.00032799,0.03
 241071,0.13179119,0.45892374,-0.00006112,0.00008995,0.00000712,-0.0012
 3337,-0.00024675,0.00017182,-0.00004002,-0.00016472,0.00001157,-0.0000
 8661,-0.00000454,0.00004193,-0.00006958,-0.00004490,0.00003369,-0.0000
 1316,0.00001076,-0.00001917,-0.00000479,-0.00000951,0.00001327,0.00204
 149,-0.00029973,-0.00132491,0.00001692,0.00006313,-0.00001296,-0.00000
 731,-0.00010392,0.00000594,-0.00002016,-0.00005047,0.00001144,-0.00041
 737,0.00102221,-0.00068564,0.00006517,-0.00003662,0.00001186,-0.000044
 79,-0.00015091,-0.00003502,-0.02555020,0.04968288,0.03722308,0.0285397
 2,-0.00002960,-0.00005804,0.00008564,0.00036885,0.00029878,0.00010794,
 -0.00017482,0.00006011,0.00003623,0.00001569,0.00000432,-0.00002305,0.
 00005658,0.00003865,-0.00002507,0.00000470,-0.00000426,-0.00000312,0.0
 0000407,0.00000264,-0.00000248,-0.00095028,-0.00111077,-0.00095806,0.0
 0014168,-0.00014028,-0.00010122,-0.00012850,-0.00007079,0.00005896,-0.
 00002359,0.00005294,0.00000412,0.00054224,-0.00088051,0.00073162,0.000
 01410,0.00002251,0.00005534,0.00006744,0.00021694,-0.00000310,0.059997
 16,-0.17189110,-0.20433085,-0.06207384,0.18948048,-0.00008807,-0.00007
 147,0.00004134,0.00059252,0.00011311,0.00015574,-0.00010916,0.00006335
 ,0.00002053,0.00002533,-0.00000706,-0.00001274,0.00004817,0.00003862,-
 0.00002880,-0.00001206,-0.00000401,0.00000103,0.00000355,0.00000307,-0
 .00000589,-0.00117332,-0.00072664,-0.00079795,0.00001829,-0.00012104,0
 .00000726,0.00003226,0.00007774,0.00005962,0.00000664,0.00007550,-0.00
 002545,-0.00075716,0.00149590,-0.00058184,0.00003020,0.00000761,0.0000
 0111,-0.00009678,-0.00027824,-0.00005133,0.06352649,-0.24492505,-0.375
 64552,-0.05800831,0.23502126,0.36885428,-0.00032529,-0.00013091,0.0002
 0601,0.00090403,-0.00032330,0.00006898,-0.00009129,0.00038234,0.000161
 09,0.00011866,-0.00006575,-0.00004115,0.00010547,0.00011485,-0.0000549
 0,-0.00000127,-0.00000619,-0.00001165,0.00000178,0.00001241,-0.0000279
 3,-0.00417368,0.00022677,-0.00138617,0.00053523,-0.00022466,-0.0004493
 6,-0.00117175,-0.00006526,-0.00016726,-0.00006097,0.00004918,0.0000611
 2,-0.00090531,-0.00993269,0.00143550,-0.00189179,0.00132052,0.00009439
 ,0.00296250,0.00031047,0.00109432,-0.15595782,0.20003207,-0.06658316,-
 0.00311482,0.00216810,-0.00403860,0.16306632,0.00019201,-0.00005710,-0
 .00041347,-0.00168543,-0.00103623,-0.00009909,0.00037948,-0.00026700,-
 0.00015122,-0.00004999,-0.00001933,0.00005220,-0.00013015,-0.00019988,
 0.00012606,0.00001379,0.00001602,0.00001329,-0.00000449,-0.00001537,0.
 00001512,0.00256866,0.00262340,0.00052091,-0.00157697,-0.00010947,0.00
 117945,0.00266016,0.00095148,0.00044130,0.00026510,0.00025739,-0.00028
 970,-0.00893107,0.01038862,-0.00104170,0.00210978,0.00210680,-0.001230
 93,-0.00231756,-0.00886730,-0.00182993,0.18805766,-0.26817171,0.069955
 19,0.01231697,-0.01602163,0.00923733,-0.19386796,0.27842130,-0.0000546
 8,-0.00002894,0.00005295,0.00010853,-0.00014326,0.00003945,-0.00001526
 ,0.00008208,0.00002214,0.00002428,-0.00001584,-0.00000141,0.00001362,0
 .00001380,-0.00001846,-0.00000443,-0.00000286,-0.00000322,0.00000089,0
 .00000299,-0.00000391,-0.00085001,0.00026534,-0.00022771,0.00004481,0.
 00000583,-0.00003719,-0.00026181,0.00003453,-0.00016126,0.00001307,0.0
 0001086,-0.00002373,0.00143890,0.00011228,-0.00494751,-0.00005732,-0.0
 0202432,0.00022593,0.00092917,-0.00128392,0.00084000,-0.09352282,0.110
 11042,-0.08441860,0.02255427,-0.03065415,0.00800863,0.06963877,-0.0764
 8481,0.08065391\\-0.00002967,0.00001243,0.00004648,-0.00001121,0.00002
 170,-0.00002501,0.00001788,-0.00000635,-0.00002477,-0.00000334,0.00001
 883,0.00001133,0.00000433,0.00000512,-0.00000247,0.00001103,0.00000949
 ,-0.00000078,0.00000228,0.00001589,-0.00000050,0.00001371,0.00000208,0
 .00000230,0.00000831,-0.00004514,-0.00001376,-0.00001211,-0.00000526,0
 .00002057,-0.00001235,0.00002795,0.00000966,0.00000553,-0.00001327,0.0
 0000847,-0.00000061,-0.00001921,0.00000193,-0.00000448,-0.00000641,-0.
 00000392,-0.00000608,-0.00000198,-0.00002861,0.00001674,-0.00000290,0.
 00000049,0.00000006,-0.00001297,-0.00000142\\\@


 HE WHO LAUGHS LAST PROBABLY DIDN'T GET THE JOKE.
 Job cpu time:       0 days  0 hours 52 minutes 58.6 seconds.
 Elapsed time:       0 days  0 hours  2 minutes 13.1 seconds.
 File lengths (MBytes):  RWF=    223 Int=      0 D2E=      0 Chk=     12 Scr=      1
 Normal termination of Gaussian 16 at Fri Jul  7 04:47:13 2023.
