 Entering Gaussian System, Link 0=/opt/soft/g16/g16
 Initial command:
 /opt/soft/g16/l1.exe "/scratch/gongke2021/PC/Gau-12453.inp" -scrdir="/scratch/gongke2021/PC/"
 Entering Link 1 = /opt/soft/g16/l1.exe PID=     12454.
  
 Copyright (c) 1988,1990,1992,1993,1995,1998,2003,2009,2016,
            Gaussian, Inc.  All Rights Reserved.
  
 This is part of the Gaussian(R) 16 program.  It is based on
 the Gaussian(R) 09 system (copyright 2009, Gaussian, Inc.),
 the Gaussian(R) 03 system (copyright 2003, Gaussian, Inc.),
 the Gaussian(R) 98 system (copyright 1998, Gaussian, Inc.),
 the Gaussian(R) 94 system (copyright 1995, Gaussian, Inc.),
 the Gaussian 92(TM) system (copyright 1992, Gaussian, Inc.),
 the Gaussian 90(TM) system (copyright 1990, Gaussian, Inc.),
 the Gaussian 88(TM) system (copyright 1988, Gaussian, Inc.),
 the Gaussian 86(TM) system (copyright 1986, Carnegie Mellon
 University), and the Gaussian 82(TM) system (copyright 1983,
 Carnegie Mellon University). Gaussian is a federally registered
 trademark of Gaussian, Inc.
  
 This software contains proprietary and confidential information,
 including trade secrets, belonging to Gaussian, Inc.
  
 This software is provided under written license and may be
 used, copied, transmitted, or stored only in accord with that
 written license.
  
 The following legend is applicable only to US Government
 contracts under FAR:
  
                    RESTRICTED RIGHTS LEGEND
  
 Use, reproduction and disclosure by the US Government is
 subject to restrictions as set forth in subparagraphs (a)
 and (c) of the Commercial Computer Software - Restricted
 Rights clause in FAR 52.227-19.
  
 Gaussian, Inc.
 340 Quinnipiac St., Bldg. 40, Wallingford CT 06492
  
  
 ---------------------------------------------------------------
 Warning -- This program may not be used in any manner that
 competes with the business of Gaussian, Inc. or will provide
 assistance to any competitor of Gaussian, Inc.  The licensee
 of this program is prohibited from giving any competitor of
 Gaussian, Inc. access to this program.  By using this program,
 the user acknowledges that Gaussian, Inc. is engaged in the
 business of creating and licensing software in the field of
 computational chemistry and represents and warrants to the
 licensee that it is not a competitor of Gaussian, Inc. and that
 it will not use this program in any manner prohibited above.
 ---------------------------------------------------------------
  

 Cite this work as:
 Gaussian 16, Revision A.03,
 M. J. Frisch, G. W. Trucks, H. B. Schlegel, G. E. Scuseria, 
 M. A. Robb, J. R. Cheeseman, G. Scalmani, V. Barone, 
 G. A. Petersson, H. Nakatsuji, X. Li, M. Caricato, A. V. Marenich, 
 J. Bloino, B. G. Janesko, R. Gomperts, B. Mennucci, H. P. Hratchian, 
 J. V. Ortiz, A. F. Izmaylov, J. L. Sonnenberg, D. Williams-Young, 
 F. Ding, F. Lipparini, F. Egidi, J. Goings, B. Peng, A. Petrone, 
 T. Henderson, D. Ranasinghe, V. G. Zakrzewski, J. Gao, N. Rega, 
 G. Zheng, W. Liang, M. Hada, M. Ehara, K. Toyota, R. Fukuda, 
 J. Hasegawa, M. Ishida, T. Nakajima, Y. Honda, O. Kitao, H. Nakai, 
 T. Vreven, K. Throssell, J. A. Montgomery, Jr., J. E. Peralta, 
 F. Ogliaro, M. J. Bearpark, J. J. Heyd, E. N. Brothers, K. N. Kudin, 
 V. N. Staroverov, T. A. Keith, R. Kobayashi, J. Normand, 
 K. Raghavachari, A. P. Rendell, J. C. Burant, S. S. Iyengar, 
 J. Tomasi, M. Cossi, J. M. Millam, M. Klene, C. Adamo, R. Cammi, 
 J. W. Ochterski, R. L. Martin, K. Morokuma, O. Farkas, 
 J. B. Foresman, and D. J. Fox, Gaussian, Inc., Wallingford CT, 2016.
 
 ******************************************
 Gaussian 16:  ES64L-G16RevA.03 25-Dec-2016
                 5-Jul-2023 
 ******************************************
 %mem=10GB
 %nprocshared=24
 Will use up to   24 processors via shared memory.
 -----------------------------------------------------
 # opt freq 6-31+g(d,p) m062x scrf=(SMD,solvent=water)
 -----------------------------------------------------
 1/18=20,19=15,26=3,38=1/1,3;
 2/9=110,12=2,17=6,18=5,40=1/2;
 3/5=1,6=6,7=111,11=2,25=1,30=1,70=32201,71=1,72=1,74=-55/1,2,3;
 4//1;
 5/5=2,38=5,53=1/2;
 6/7=2,8=2,9=2,10=2,28=1/1;
 7//1,2,3,16;
 1/18=20,19=15,26=3/3(2);
 2/9=110/2;
 99//99;
 2/9=110/2;
 3/5=1,6=6,7=111,11=2,25=1,30=1,70=32205,71=1,72=1,74=-55/1,2,3;
 4/5=5,16=3,69=1/1;
 5/5=2,38=5,53=1/2;
 7//1,2,3,16;
 1/18=20,19=15,26=3/3(-5);
 2/9=110/2;
 6/7=2,8=2,9=2,10=2,19=2,28=1/1;
 99/9=1/99;
 -----------
 "1-H-Tz-TS"
 -----------
 Symbolic Z-matrix:
 Charge =  0 Multiplicity = 1
 N                    -0.50432  -0.26788   0.00474 
 N                    -0.20686   1.02934   0.08599 
 C                    -1.38525   1.63029   0.05654 
 C                    -2.38319   0.63785  -0.04407 
 N                    -1.79641  -0.54587  -0.07296 
 H                    -1.46914   2.70541   0.1064 
 H                    -3.45687   0.73052  -0.09543 
 H                     1.73634   2.0432    0.11867 
 C                     0.4875   -1.33678   0.01335 
 O                     1.7318   -0.92654   0.0085 
 O                     0.12603  -2.47214   0.03174 
 O                     2.54894   1.58726  -0.13934 
 H                     3.25869   1.86738   0.44749 
 H                     1.91561   0.04757  -0.06364 
 
 Add virtual bond connecting atoms H14        and O12        Dist= 3.15D+00.

 GradGradGradGradGradGradGradGradGradGradGradGradGradGradGradGradGradGrad
 Berny optimization.
 Initialization pass.
                           ----------------------------
                           !    Initial Parameters    !
                           ! (Angstroms and Degrees)  !
 --------------------------                            --------------------------
 ! Name  Definition              Value          Derivative Info.                !
 --------------------------------------------------------------------------------
 ! R1    R(1,2)                  1.3334         estimate D2E/DX2                !
 ! R2    R(1,5)                  1.3239         estimate D2E/DX2                !
 ! R3    R(1,9)                  1.4582         estimate D2E/DX2                !
 ! R4    R(2,3)                  1.3231         estimate D2E/DX2                !
 ! R5    R(3,4)                  1.411          estimate D2E/DX2                !
 ! R6    R(3,6)                  1.0795         estimate D2E/DX2                !
 ! R7    R(4,5)                  1.3215         estimate D2E/DX2                !
 ! R8    R(4,7)                  1.0789         estimate D2E/DX2                !
 ! R9    R(8,12)                 0.9668         estimate D2E/DX2                !
 ! R10   R(9,10)                 1.3102         estimate D2E/DX2                !
 ! R11   R(9,11)                 1.1917         estimate D2E/DX2                !
 ! R12   R(10,14)                0.9939         estimate D2E/DX2                !
 ! R13   R(12,13)                0.9626         estimate D2E/DX2                !
 ! R14   R(12,14)                1.6666         estimate D2E/DX2                !
 ! A1    A(2,1,5)              115.1874         estimate D2E/DX2                !
 ! A2    A(2,1,9)              124.1287         estimate D2E/DX2                !
 ! A3    A(5,1,9)              120.6802         estimate D2E/DX2                !
 ! A4    A(1,2,3)              103.995          estimate D2E/DX2                !
 ! A5    A(2,3,4)              108.1811         estimate D2E/DX2                !
 ! A6    A(2,3,6)              121.3673         estimate D2E/DX2                !
 ! A7    A(4,3,6)              130.4516         estimate D2E/DX2                !
 ! A8    A(3,4,5)              108.5144         estimate D2E/DX2                !
 ! A9    A(3,4,7)              130.3021         estimate D2E/DX2                !
 ! A10   A(5,4,7)              121.1835         estimate D2E/DX2                !
 ! A11   A(1,5,4)              104.122          estimate D2E/DX2                !
 ! A12   A(1,9,10)             114.6092         estimate D2E/DX2                !
 ! A13   A(1,9,11)             119.4833         estimate D2E/DX2                !
 ! A14   A(10,9,11)            125.9059         estimate D2E/DX2                !
 ! A15   A(9,10,14)            118.8667         estimate D2E/DX2                !
 ! A16   A(8,12,13)            108.6501         estimate D2E/DX2                !
 ! A17   A(8,12,14)             95.9786         estimate D2E/DX2                !
 ! A18   A(13,12,14)           121.4238         estimate D2E/DX2                !
 ! A19   L(10,14,12,2,-1)      191.506          estimate D2E/DX2                !
 ! A20   L(10,14,12,2,-2)      177.5589         estimate D2E/DX2                !
 ! D1    D(5,1,2,3)             -0.1108         estimate D2E/DX2                !
 ! D2    D(9,1,2,3)           -179.4076         estimate D2E/DX2                !
 ! D3    D(2,1,5,4)              0.1397         estimate D2E/DX2                !
 ! D4    D(9,1,5,4)            179.4629         estimate D2E/DX2                !
 ! D5    D(2,1,9,10)            -4.8394         estimate D2E/DX2                !
 ! D6    D(2,1,9,11)           174.7241         estimate D2E/DX2                !
 ! D7    D(5,1,9,10)           175.9005         estimate D2E/DX2                !
 ! D8    D(5,1,9,11)            -4.536          estimate D2E/DX2                !
 ! D9    D(1,2,3,4)              0.0347         estimate D2E/DX2                !
 ! D10   D(1,2,3,6)           -179.9606         estimate D2E/DX2                !
 ! D11   D(2,3,4,5)              0.047          estimate D2E/DX2                !
 ! D12   D(2,3,4,7)           -179.8887         estimate D2E/DX2                !
 ! D13   D(6,3,4,5)           -179.9584         estimate D2E/DX2                !
 ! D14   D(6,3,4,7)              0.106          estimate D2E/DX2                !
 ! D15   D(3,4,5,1)             -0.1069         estimate D2E/DX2                !
 ! D16   D(7,4,5,1)            179.8357         estimate D2E/DX2                !
 ! D17   D(1,9,10,14)           -4.1681         estimate D2E/DX2                !
 ! D18   D(11,9,10,14)         176.301          estimate D2E/DX2                !
 ! D19   D(9,10,12,8)           18.4173         estimate D2E/DX2                !
 ! D20   D(9,10,12,13)         135.9072         estimate D2E/DX2                !
 ! D21   D(8,12,13,14)         109.5745         estimate D2E/DX2                !
 --------------------------------------------------------------------------------
 Trust Radius=3.00D-01 FncErr=1.00D-07 GrdErr=1.00D-06 EigMax=2.50D+02 EigMin=1.00D-04
 Number of steps in this run=     65 maximum allowed number of steps=    100.
 GradGradGradGradGradGradGradGradGradGradGradGradGradGradGradGradGradGrad

                          Input orientation:                          
 ---------------------------------------------------------------------
 Center     Atomic      Atomic             Coordinates (Angstroms)
 Number     Number       Type             X           Y           Z
 ---------------------------------------------------------------------
      1          7           0       -0.504323   -0.267880    0.004738
      2          7           0       -0.206858    1.029336    0.085985
      3          6           0       -1.385247    1.630290    0.056539
      4          6           0       -2.383191    0.637851   -0.044070
      5          7           0       -1.796413   -0.545865   -0.072957
      6          1           0       -1.469138    2.705408    0.106398
      7          1           0       -3.456873    0.730521   -0.095429
      8          1           0        1.736336    2.043198    0.118673
      9          6           0        0.487500   -1.336775    0.013348
     10          8           0        1.731799   -0.926542    0.008504
     11          8           0        0.126028   -2.472140    0.031737
     12          8           0        2.548943    1.587256   -0.139335
     13          1           0        3.258686    1.867379    0.447494
     14          1           0        1.915614    0.047574   -0.063641
 ---------------------------------------------------------------------
                    Distance matrix (angstroms):
                    1          2          3          4          5
     1  N    0.000000
     2  N    1.333363   0.000000
     3  C    2.093265   1.323107   0.000000
     4  C    2.086355   2.215085   1.411010   0.000000
     5  N    1.323937   2.243481   2.218440   1.321486   0.000000
     6  H    3.127562   2.098329   1.079538   2.265596   3.272622
     7  H    3.118395   3.268761   2.263695   1.078897   2.094467
     8  H    3.220965   2.192028   3.149386   4.355685   4.384095
     9  C    1.458192   2.466960   3.508920   3.484725   2.418521
    10  O    2.331114   2.754969   4.031832   4.402639   3.549624
    11  O    2.292779   3.517682   4.372013   3.996745   2.723468
    12  O    3.575573   2.820724   3.939298   5.023583   4.841150
    13  H    4.349207   3.583713   4.666387   5.795183   5.625713
    14  H    2.441369   2.343316   3.662665   4.339186   3.759176
                    6          7          8          9         10
     6  H    0.000000
     7  H    2.809271   0.000000
     8  H    3.273184   5.360819   0.000000
     9  C    4.491807   4.454618   3.604844   0.000000
    10  O    4.842173   5.447841   2.971786   1.310189   0.000000
    11  O    5.418222   4.807327   4.794677   1.191660   2.228882
    12  O    4.177993   6.066774   0.966841   3.580896   2.647406
    13  H    4.813622   6.832711   1.567350   4.258469   3.214046
    14  H    4.306918   5.415814   2.011938   1.990442   0.993929
                   11         12         13         14
    11  O    0.000000
    12  O    4.730590   0.000000
    13  H    5.368224   0.962586   0.000000
    14  H    3.092034   1.666570   2.318791   0.000000
 Stoichiometry    C3H5N3O3
 Framework group  C1[X(C3H5N3O3)]
 Deg. of freedom    36
 Full point group                 C1      NOp   1
 Largest Abelian subgroup         C1      NOp   1
 Largest concise Abelian subgroup C1      NOp   1
                         Standard orientation:                         
 ---------------------------------------------------------------------
 Center     Atomic      Atomic             Coordinates (Angstroms)
 Number     Number       Type             X           Y           Z
 ---------------------------------------------------------------------
      1          7           0        0.504323    0.267880    0.004738
      2          7           0        0.206858   -1.029336    0.085985
      3          6           0        1.385247   -1.630290    0.056539
      4          6           0        2.383191   -0.637851   -0.044070
      5          7           0        1.796413    0.545865   -0.072957
      6          1           0        1.469138   -2.705408    0.106398
      7          1           0        3.456873   -0.730522   -0.095429
      8          1           0       -1.736336   -2.043198    0.118673
      9          6           0       -0.487500    1.336775    0.013348
     10          8           0       -1.731799    0.926542    0.008504
     11          8           0       -0.126028    2.472140    0.031737
     12          8           0       -2.548943   -1.587256   -0.139335
     13          1           0       -3.258686   -1.867378    0.447494
     14          1           0       -1.915614   -0.047574   -0.063641
 ---------------------------------------------------------------------
 Rotational constants (GHZ):           2.0551383           1.5403582           0.8828864
 Standard basis: 6-31+G(d,p) (6D, 7F)
 There are   196 symmetry adapted cartesian basis functions of A   symmetry.
 There are   196 symmetry adapted basis functions of A   symmetry.
   196 basis functions,   323 primitive gaussians,   196 cartesian basis functions
    34 alpha electrons       34 beta electrons
       nuclear repulsion energy       455.4548420768 Hartrees.
 NAtoms=   14 NActive=   14 NUniq=   14 SFac= 1.00D+00 NAtFMM=   60 NAOKFM=F Big=F
 Integral buffers will be    131072 words long.
 Raffenetti 2 integral format.
 Two-electron integral symmetry is turned on.
 ------------------------------------------------------------------------------
 Polarizable Continuum Model (PCM)
 =================================
 Model                : PCM.
 Atomic radii         : SMD-Coulomb.
 Polarization charges : Total charges.
 Charge compensation  : None.
 Solution method      : On-the-fly selection.
 Cavity type          : VdW (van der Waals Surface) (Alpha=1.000).
 Cavity algorithm     : GePol (No added spheres)
                        Default sphere list used, NSphG=   14.
                        Lebedev-Laikov grids with approx.  5.0 points / Ang**2.
                        Smoothing algorithm: York/Karplus (Gamma=1.0000).
                        Polarization charges: spherical gaussians, with
                                              point-specific exponents (IZeta= 3).
                        Self-potential: point-specific (ISelfS= 7).
                        Self-field    : sphere-specific E.n sum rule (ISelfD= 2).
 1st derivatives      : Analytical E(r).r(x)/FMM algorithm (CHGder, D1EAlg=3).
                        Cavity 1st derivative terms included.
 Solvent              : Water, Eps=  78.355300 Eps(inf)=   1.777849
 ------------------------------------------------------------------------------
 Spheres list:
 ISph  on   Nord     Re0    Alpha      Xe            Ye            Ze
    1   N      1    1.8900  1.000      0.504323      0.267880      0.004738
    2   N      2    1.8900  1.000      0.206858     -1.029336      0.085985
    3   C      3    1.8500  1.000      1.385247     -1.630290      0.056539
    4   C      4    1.8500  1.000      2.383191     -0.637851     -0.044070
    5   N      5    1.8900  1.000      1.796413      0.545865     -0.072957
    6   H      6    1.2000  1.000      1.469138     -2.705408      0.106398
    7   H      7    1.2000  1.000      3.456873     -0.730522     -0.095429
    8   H      8    1.2000  1.000     -1.736336     -2.043198      0.118673
    9   C      9    1.8500  1.000     -0.487500      1.336775      0.013348
   10   O     10    1.5200  1.000     -1.731799      0.926542      0.008504
   11   O     11    1.5200  1.000     -0.126028      2.472140      0.031737
   12   O     12    1.5200  1.000     -2.548943     -1.587256     -0.139335
   13   H     13    1.2000  1.000     -3.258686     -1.867378      0.447494
   14   H     14    1.2000  1.000     -1.915614     -0.047574     -0.063641
 ------------------------------------------------------------------------------
 ------------------------------------------------------------------------------
 Atomic radii for non-electrostatic terms: SMD-CDS.
 ------------------------------------------------------------------------------
 Nuclear repulsion after PCM non-electrostatic terms =      455.4627024649 Hartrees.
 One-electron integrals computed using PRISM.
 NBasis=   196 RedAO= T EigKep=  2.24D-05  NBF=   196
 NBsUse=   196 1.00D-06 EigRej= -1.00D+00 NBFU=   196
 ExpMin= 4.38D-02 ExpMax= 5.48D+03 ExpMxC= 8.25D+02 IAcc=3 IRadAn=         5 AccDes= 0.00D+00
 Harris functional with IExCor= 1009 and IRadAn=       5 diagonalized for initial guess.
 HarFok:  IExCor= 1009 AccDes= 0.00D+00 IRadAn=         5 IDoV= 1 UseB2=F ITyADJ=14
 ICtDFT=  3500011 ScaDFX=  1.000000  1.000000  1.000000  1.000000
 FoFCou: FMM=F IPFlag=           0 FMFlag=      100000 FMFlg1=           0
         NFxFlg=           0 DoJE=T BraDBF=F KetDBF=T FulRan=T
         wScrn=  0.000000 ICntrl=       500 IOpCl=  0 I1Cent=   200000004 NGrid=           0
         NMat0=    1 NMatS0=      1 NMatT0=    0 NMatD0=    1 NMtDS0=    0 NMtDT0=    0
 Petite list used in FoFCou.
 Requested convergence on RMS density matrix=1.00D-08 within 128 cycles.
 Requested convergence on MAX density matrix=1.00D-06.
 Requested convergence on             energy=1.00D-06.
 No special actions if energy rises.
 Inv3:  Mode=1 IEnd=     3953712.
 Iteration    1 A*A^-1 deviation from unit magnitude is 2.89D-15 for      1.
 Iteration    1 A*A^-1 deviation from orthogonality  is 2.22D-15 for    971    753.
 Iteration    1 A^-1*A deviation from unit magnitude is 2.89D-15 for      1.
 Iteration    1 A^-1*A deviation from orthogonality  is 1.99D-15 for    769     58.
 Error on total polarization charges =  0.04121
 SCF Done:  E(RM062X) =  -507.088799853     A.U. after   14 cycles
            NFock= 14  Conv=0.40D-08     -V/T= 2.0083
 SMD-CDS (non-electrostatic) energy       (kcal/mol) =       4.93
 (included in total energy above)

 **********************************************************************

            Population analysis using the SCF density.

 **********************************************************************

 Orbital symmetries:
       Occupied  (A) (A) (A) (A) (A) (A) (A) (A) (A) (A) (A) (A)
                 (A) (A) (A) (A) (A) (A) (A) (A) (A) (A) (A) (A)
                 (A) (A) (A) (A) (A) (A) (A) (A) (A) (A)
       Virtual   (A) (A) (A) (A) (A) (A) (A) (A) (A) (A) (A) (A)
                 (A) (A) (A) (A) (A) (A) (A) (A) (A) (A) (A) (A)
                 (A) (A) (A) (A) (A) (A) (A) (A) (A) (A) (A) (A)
                 (A) (A) (A) (A) (A) (A) (A) (A) (A) (A) (A) (A)
                 (A) (A) (A) (A) (A) (A) (A) (A) (A) (A) (A) (A)
                 (A) (A) (A) (A) (A) (A) (A) (A) (A) (A) (A) (A)
                 (A) (A) (A) (A) (A) (A) (A) (A) (A) (A) (A) (A)
                 (A) (A) (A) (A) (A) (A) (A) (A) (A) (A) (A) (A)
                 (A) (A) (A) (A) (A) (A) (A) (A) (A) (A) (A) (A)
                 (A) (A) (A) (A) (A) (A) (A) (A) (A) (A) (A) (A)
                 (A) (A) (A) (A) (A) (A) (A) (A) (A) (A) (A) (A)
                 (A) (A) (A) (A) (A) (A) (A) (A) (A) (A) (A) (A)
                 (A) (A) (A) (A) (A) (A) (A) (A) (A) (A) (A) (A)
                 (A) (A) (A) (A) (A) (A)
 The electronic state is 1-A.
 Alpha  occ. eigenvalues --  -19.70515 -19.66922 -19.66215 -14.90246 -14.83087
 Alpha  occ. eigenvalues --  -14.82662 -10.75518 -10.59938 -10.59647  -1.28540
 Alpha  occ. eigenvalues --   -1.23696  -1.18345  -1.14493  -1.02584  -0.96212
 Alpha  occ. eigenvalues --   -0.77684  -0.73894  -0.72429  -0.66074  -0.62257
 Alpha  occ. eigenvalues --   -0.60846  -0.58298  -0.56103  -0.53809  -0.52988
 Alpha  occ. eigenvalues --   -0.50230  -0.47757  -0.42912  -0.42132  -0.41975
 Alpha  occ. eigenvalues --   -0.40535  -0.39372  -0.37770  -0.34973
 Alpha virt. eigenvalues --   -0.02237   0.01609   0.03490   0.03930   0.04668
 Alpha virt. eigenvalues --    0.06159   0.06388   0.06422   0.08092   0.08266
 Alpha virt. eigenvalues --    0.09348   0.10544   0.10828   0.11472   0.12357
 Alpha virt. eigenvalues --    0.15271   0.17284   0.18117   0.19014   0.19471
 Alpha virt. eigenvalues --    0.20554   0.20687   0.21417   0.22409   0.22534
 Alpha virt. eigenvalues --    0.23955   0.24683   0.24854   0.25396   0.26455
 Alpha virt. eigenvalues --    0.27388   0.27416   0.28734   0.29008   0.30059
 Alpha virt. eigenvalues --    0.31105   0.31305   0.32356   0.32591   0.34396
 Alpha virt. eigenvalues --    0.35878   0.36537   0.37893   0.38829   0.40413
 Alpha virt. eigenvalues --    0.41234   0.44682   0.46273   0.47507   0.49955
 Alpha virt. eigenvalues --    0.54653   0.64236   0.71163   0.72720   0.75483
 Alpha virt. eigenvalues --    0.78358   0.80379   0.86171   0.88258   0.90536
 Alpha virt. eigenvalues --    0.93738   0.94010   0.95960   0.96387   0.99233
 Alpha virt. eigenvalues --    1.00466   1.01444   1.04135   1.06028   1.08566
 Alpha virt. eigenvalues --    1.11981   1.15470   1.17060   1.17832   1.19242
 Alpha virt. eigenvalues --    1.21503   1.22454   1.23522   1.25364   1.29516
 Alpha virt. eigenvalues --    1.30352   1.31671   1.32591   1.33918   1.35642
 Alpha virt. eigenvalues --    1.36982   1.37541   1.41575   1.41882   1.42830
 Alpha virt. eigenvalues --    1.44323   1.46135   1.49109   1.54381   1.55564
 Alpha virt. eigenvalues --    1.58071   1.59058   1.63214   1.64114   1.67415
 Alpha virt. eigenvalues --    1.69564   1.75644   1.78795   1.86848   1.87523
 Alpha virt. eigenvalues --    1.88318   1.92891   1.94590   1.98596   2.01603
 Alpha virt. eigenvalues --    2.02408   2.04752   2.08277   2.12970   2.19628
 Alpha virt. eigenvalues --    2.24717   2.25616   2.27069   2.28578   2.31119
 Alpha virt. eigenvalues --    2.31631   2.37393   2.41610   2.46085   2.48276
 Alpha virt. eigenvalues --    2.52692   2.54296   2.55763   2.58644   2.59657
 Alpha virt. eigenvalues --    2.61440   2.66198   2.69176   2.70496   2.74409
 Alpha virt. eigenvalues --    2.76001   2.77226   2.79876   2.81181   2.88301
 Alpha virt. eigenvalues --    2.94967   2.99756   3.01438   3.10597   3.14613
 Alpha virt. eigenvalues --    3.17814   3.23994   3.30967   3.32603   3.46612
 Alpha virt. eigenvalues --    3.62521   3.70084   3.73558   4.03070   4.21464
 Alpha virt. eigenvalues --    4.23891   4.28432   4.36810   4.42991   4.53847
 Alpha virt. eigenvalues --    4.67254   4.85951
          Condensed to atoms (all electrons):
               1          2          3          4          5          6
     1  N    7.439303  -0.112268   0.052327  -0.121169  -0.153125   0.015985
     2  N   -0.112268   7.511541   0.222921   0.105767  -0.377314  -0.054091
     3  C    0.052327   0.222921   5.399556   0.105570  -0.023669   0.397108
     4  C   -0.121169   0.105767   0.105570   5.424089   0.277273  -0.017363
     5  N   -0.153125  -0.377314  -0.023669   0.277273   7.556592  -0.006244
     6  H    0.015985  -0.054091   0.397108  -0.017363  -0.006244   0.424664
     7  H    0.010834  -0.000711  -0.018118   0.393069  -0.054197   0.000347
     8  H    0.013687  -0.004607  -0.001237   0.000538   0.000590  -0.000084
     9  C    0.084218   0.013388   0.000277  -0.012237  -0.036753   0.000330
    10  O   -0.018492  -0.112802   0.005283  -0.009862   0.039181   0.000042
    11  O   -0.066706   0.007960  -0.002426  -0.002168  -0.033786   0.000028
    12  O   -0.001018  -0.008565  -0.004211  -0.001969  -0.003018  -0.000026
    13  H    0.001134  -0.000691   0.000361  -0.000102   0.000116  -0.000002
    14  H    0.000754   0.012229   0.005692  -0.003430  -0.000747  -0.000001
               7          8          9         10         11         12
     1  N    0.010834   0.013687   0.084218  -0.018492  -0.066706  -0.001018
     2  N   -0.000711  -0.004607   0.013388  -0.112802   0.007960  -0.008565
     3  C   -0.018118  -0.001237   0.000277   0.005283  -0.002426  -0.004211
     4  C    0.393069   0.000538  -0.012237  -0.009862  -0.002168  -0.001969
     5  N   -0.054197   0.000590  -0.036753   0.039181  -0.033786  -0.003018
     6  H    0.000347  -0.000084   0.000330   0.000042   0.000028  -0.000026
     7  H    0.430492  -0.000001   0.000350   0.000016  -0.000113   0.000004
     8  H   -0.000001   0.278981  -0.000779   0.000388   0.000064   0.272953
     9  C    0.000350  -0.000779   4.388813   0.270661   0.479027   0.006661
    10  O    0.000016   0.000388   0.270661   8.263997  -0.073370  -0.031353
    11  O   -0.000113   0.000064   0.479027  -0.073370   8.192157  -0.001453
    12  O    0.000004   0.272953   0.006661  -0.031353  -0.001453   8.288278
    13  H   -0.000000  -0.014871  -0.000306   0.000728   0.000009   0.290875
    14  H   -0.000001  -0.003296  -0.005117   0.203878   0.006166   0.039346
              13         14
     1  N    0.001134   0.000754
     2  N   -0.000691   0.012229
     3  C    0.000361   0.005692
     4  C   -0.000102  -0.003430
     5  N    0.000116  -0.000747
     6  H   -0.000002  -0.000001
     7  H   -0.000000  -0.000001
     8  H   -0.014871  -0.003296
     9  C   -0.000306  -0.005117
    10  O    0.000728   0.203878
    11  O    0.000009   0.006166
    12  O    0.290875   0.039346
    13  H    0.276532  -0.002362
    14  H   -0.002362   0.241195
 Mulliken charges:
               1
     1  N   -0.145465
     2  N   -0.202757
     3  C   -0.139433
     4  C   -0.138005
     5  N   -0.184899
     6  H    0.239307
     7  H    0.238029
     8  H    0.457674
     9  C    0.811467
    10  O   -0.538296
    11  O   -0.505389
    12  O   -0.846504
    13  H    0.448578
    14  H    0.505694
 Sum of Mulliken charges =  -0.00000
 Mulliken charges with hydrogens summed into heavy atoms:
               1
     1  N   -0.145465
     2  N   -0.202757
     3  C    0.099874
     4  C    0.100024
     5  N   -0.184899
     9  C    0.811467
    10  O   -0.032602
    11  O   -0.505389
    12  O    0.059747
 Electronic spatial extent (au):  <R**2>=           1219.2512
 Charge=             -0.0000 electrons
 Dipole moment (field-independent basis, Debye):
    X=              0.4038    Y=             -9.0907    Z=              1.6909  Tot=              9.2555
 Quadrupole moment (field-independent basis, Debye-Ang):
   XX=            -41.6753   YY=            -55.5327   ZZ=            -52.4571
   XY=             -0.4239   XZ=             -5.1010   YZ=             -3.6696
 Traceless Quadrupole moment (field-independent basis, Debye-Ang):
   XX=              8.2131   YY=             -5.6443   ZZ=             -2.5687
   XY=             -0.4239   XZ=             -5.1010   YZ=             -3.6696
 Octapole moment (field-independent basis, Debye-Ang**2):
  XXX=            -15.1164  YYY=            -64.7540  ZZZ=              1.2500  XYY=             -8.3913
  XXY=            -38.7359  XXZ=             15.9302  XZZ=             -7.6300  YZZ=              2.3265
  YYZ=              7.5778  XYZ=             10.6379
 Hexadecapole moment (field-independent basis, Debye-Ang**3):
 XXXX=           -631.8841 YYYY=           -642.1978 ZZZZ=            -52.1391 XXXY=             45.5858
 XXXZ=            -55.3615 YYYX=             19.5008 YYYZ=            -18.0573 ZZZX=             -3.4688
 ZZZY=             -1.9591 XXYY=           -206.4224 XXZZ=           -154.3330 YYZZ=           -114.9047
 XXYZ=            -31.2993 YYXZ=            -19.5927 ZZXY=              5.5565
 N-N= 4.554627024649D+02 E-N=-2.097142140127D+03  KE= 5.029213860232D+02
 D1PCM: PCM CHGder 1st derivatives, ID1Alg=3 FixD1E=F DoIter=F DoCFld=F I1PDM=0.
 Calling FoFJK, ICntrl=      2127 FMM=F ISym2X=0 I1Cent= 0 IOpClX= 0 NMat=1 NMatS=1 NMatT=0.
 ***** Axes restored to original set *****
 -------------------------------------------------------------------
 Center     Atomic                   Forces (Hartrees/Bohr)
 Number     Number              X              Y              Z
 -------------------------------------------------------------------
      1        7           0.011037219   -0.007824127    0.000269588
      2        7          -0.001838902    0.000086736   -0.000523511
      3        6           0.002360002   -0.001010532    0.000006401
      4        6           0.000055383   -0.001275170   -0.000044315
      5        7          -0.005286364   -0.001562487   -0.000101358
      6        1          -0.000361437    0.000069654    0.000082297
      7        1          -0.000161546    0.000798173    0.000023671
      8        1           0.001083521    0.002520059    0.002576957
      9        6          -0.001661908    0.034564990   -0.000190368
     10        8          -0.003660902   -0.012439763   -0.000127817
     11        8          -0.002634968   -0.019089001    0.000037656
     12        8          -0.001780977   -0.005857816   -0.007168753
     13        1           0.000773043    0.001362752    0.003809424
     14        1           0.002077834    0.009656534    0.001350130
 -------------------------------------------------------------------
 Cartesian Forces:  Max     0.034564990 RMS     0.007208846

 GradGradGradGradGradGradGradGradGradGradGradGradGradGradGradGradGradGrad
 Berny optimization.
 FormGI is forming the generalized inverse of G from B-inverse, IUseBI=4.
 Internal  Forces:  Max     0.018983912 RMS     0.004003932
 Search for a local minimum.
 Step number   1 out of a maximum of   65
 All quantities printed in internal units (Hartrees-Bohrs-Radians)
 Mixed Optimization -- RFO/linear search
 Second derivative matrix not updated -- first step.
 ITU=  0
     Eigenvalues ---    0.00230   0.00230   0.00230   0.00922   0.01611
     Eigenvalues ---    0.01639   0.02098   0.02194   0.02307   0.02412
     Eigenvalues ---    0.02877   0.04459   0.07921   0.13645   0.16000
     Eigenvalues ---    0.16000   0.16000   0.16000   0.22618   0.24750
     Eigenvalues ---    0.24999   0.25000   0.25000   0.36050   0.36128
     Eigenvalues ---    0.37192   0.40873   0.48771   0.54028   0.54218
     Eigenvalues ---    0.54921   0.55220   0.60370   0.61253   0.64441
     Eigenvalues ---    1.09128
 RFO step:  Lambda=-6.14042956D-03 EMin= 2.30000000D-03
 Linear search not attempted -- first point.
 Maximum step size (   0.300) exceeded in Quadratic search.
    -- Step size scaled by   0.434
 Iteration  1 RMS(Cart)=  0.15375327 RMS(Int)=  0.01765372
 Iteration  2 RMS(Cart)=  0.07761360 RMS(Int)=  0.00253052
 Iteration  3 RMS(Cart)=  0.00390354 RMS(Int)=  0.00031114
 Iteration  4 RMS(Cart)=  0.00000449 RMS(Int)=  0.00031114
 Iteration  5 RMS(Cart)=  0.00000000 RMS(Int)=  0.00031114
 Variable       Old X    -DE/DX   Delta X   Delta X   Delta X     New X
                                 (Linear)    (Quad)   (Total)
    R1        2.51969  -0.00121   0.00000  -0.00081  -0.00081   2.51888
    R2        2.50188   0.00497   0.00000   0.00374   0.00374   2.50562
    R3        2.75558  -0.01183   0.00000  -0.01359  -0.01359   2.74199
    R4        2.50031  -0.00169   0.00000  -0.00139  -0.00139   2.49892
    R5        2.66642   0.00066   0.00000   0.00040   0.00040   2.66682
    R6        2.04003   0.00010   0.00000   0.00011   0.00011   2.04015
    R7        2.49725  -0.00050   0.00000  -0.00026  -0.00026   2.49699
    R8        2.03882   0.00023   0.00000   0.00027   0.00027   2.03909
    R9        1.82706   0.00097   0.00000   0.00077   0.00077   1.82784
   R10        2.47590  -0.00293   0.00000  -0.00195  -0.00196   2.47394
   R11        2.25191   0.01898   0.00000   0.00751   0.00751   2.25942
   R12        1.87825   0.00792   0.00000   0.00696   0.00698   1.88523
   R13        1.81902   0.00328   0.00000   0.00257   0.00257   1.82159
   R14        3.14936  -0.00174   0.00000  -0.00882  -0.00883   3.14053
    A1        2.01040  -0.00002   0.00000   0.00048   0.00048   2.01088
    A2        2.16645   0.00060   0.00000   0.00077   0.00076   2.16721
    A3        2.10627  -0.00058   0.00000  -0.00125  -0.00125   2.10502
    A4        1.81506   0.00012   0.00000  -0.00037  -0.00038   1.81468
    A5        1.88812   0.00110   0.00000   0.00113   0.00113   1.88925
    A6        2.11826  -0.00018   0.00000   0.00039   0.00039   2.11865
    A7        2.27681  -0.00091   0.00000  -0.00152  -0.00152   2.27529
    A8        1.89393   0.00024   0.00000   0.00023   0.00023   1.89416
    A9        2.27420  -0.00091   0.00000  -0.00216  -0.00216   2.27204
   A10        2.11505   0.00066   0.00000   0.00194   0.00194   2.11699
   A11        1.81727  -0.00144   0.00000  -0.00146  -0.00146   1.81581
   A12        2.00031   0.00888   0.00000   0.01507   0.01506   2.01536
   A13        2.08538  -0.00073   0.00000  -0.00124  -0.00124   2.08414
   A14        2.19747  -0.00814   0.00000  -0.01380  -0.01380   2.18367
   A15        2.07462   0.00707   0.00000   0.01850   0.01849   2.09311
   A16        1.89630  -0.00360   0.00000  -0.01396  -0.01300   1.88330
   A17        1.67514   0.00269   0.00000   0.00478   0.00459   1.67973
   A18        2.11925  -0.00176   0.00000  -0.00626  -0.00595   2.11329
   A19        3.34241   0.00597   0.00000   0.29612   0.29628   3.63869
   A20        3.09899   0.00089   0.00000   0.02938   0.02975   3.12874
    D1       -0.00193   0.00003   0.00000   0.00049   0.00048  -0.00146
    D2       -3.13125   0.00007   0.00000   0.00102   0.00103  -3.13022
    D3        0.00244  -0.00003   0.00000  -0.00035  -0.00034   0.00210
    D4        3.13222  -0.00005   0.00000  -0.00085  -0.00086   3.13136
    D5       -0.08446   0.00017   0.00000   0.00578   0.00576  -0.07871
    D6        3.04951   0.00034   0.00000   0.00968   0.00963   3.05914
    D7        3.07004   0.00021   0.00000   0.00633   0.00633   3.07637
    D8       -0.07917   0.00038   0.00000   0.01023   0.01020  -0.06897
    D9        0.00061  -0.00003   0.00000  -0.00040  -0.00040   0.00021
   D10       -3.14090  -0.00006   0.00000  -0.00092  -0.00092   3.14136
   D11        0.00082   0.00002   0.00000   0.00022   0.00022   0.00104
   D12       -3.13965  -0.00001   0.00000  -0.00008  -0.00008  -3.13973
   D13       -3.14087   0.00005   0.00000   0.00081   0.00081  -3.14006
   D14        0.00185   0.00003   0.00000   0.00050   0.00051   0.00235
   D15       -0.00187   0.00001   0.00000   0.00007   0.00006  -0.00180
   D16        3.13873   0.00003   0.00000   0.00033   0.00033   3.13906
   D17       -0.07275   0.00042   0.00000   0.00636   0.00623  -0.06652
   D18        3.07703   0.00019   0.00000   0.00210   0.00203   3.07906
   D19        0.32144   0.00164   0.00000   0.00903   0.01027   0.33171
   D20        2.37203  -0.00077   0.00000   0.03956   0.03818   2.41021
   D21        1.91244  -0.00026   0.00000  -0.00809  -0.00727   1.90517
         Item               Value     Threshold  Converged?
 Maximum Force            0.018984     0.000450     NO 
 RMS     Force            0.004004     0.000300     NO 
 Maximum Displacement     0.867583     0.001800     NO 
 RMS     Displacement     0.226714     0.001200     NO 
 Predicted change in Energy=-2.372126D-03
 GradGradGradGradGradGradGradGradGradGradGradGradGradGradGradGradGradGrad

                          Input orientation:                          
 ---------------------------------------------------------------------
 Center     Atomic      Atomic             Coordinates (Angstroms)
 Number     Number       Type             X           Y           Z
 ---------------------------------------------------------------------
      1          7           0       -0.584410   -0.241218    0.005779
      2          7           0       -0.365894    1.070816    0.092541
      3          6           0       -1.577599    1.599284    0.058409
      4          6           0       -2.514500    0.549645   -0.051227
      5          7           0       -1.858742   -0.597125   -0.080581
      6          1           0       -1.727039    2.667153    0.111844
      7          1           0       -3.591582    0.581013   -0.108134
      8          1           0        2.195441    2.182254    0.063152
      9          6           0        0.463721   -1.244555    0.017710
     10          8           0        1.687655   -0.780077    0.029020
     11          8           0        0.167659   -2.402951    0.020551
     12          8           0        2.863081    1.513441   -0.143041
     13          1           0        3.597603    1.628949    0.470412
     14          1           0        1.847471    0.202982   -0.028452
 ---------------------------------------------------------------------
                    Distance matrix (angstroms):
                    1          2          3          4          5
     1  N    0.000000
     2  N    1.332934   0.000000
     3  C    2.092043   1.322373   0.000000
     4  C    2.086615   2.215580   1.411221   0.000000
     5  N    1.325914   2.245127   2.218687   1.321349   0.000000
     6  H    3.126576   2.097947   1.079599   2.265067   3.272597
     7  H    3.119635   3.268828   2.262905   1.079039   2.095591
     8  H    3.688372   2.792239   3.817815   4.986185   4.917521
     9  C    1.451001   2.460651   3.500866   3.477601   2.413019
    10  O    2.335206   2.765304   4.040310   4.408255   3.552804
    11  O    2.288868   3.515242   4.366377   3.989606   2.716162
    12  O    3.871198   3.267675   4.446076   5.464038   5.172427
    13  H    4.604632   4.020399   5.191660   6.228548   5.918673
    14  H    2.472354   2.380496   3.699772   4.375785   3.791953
                    6          7          8          9         10
     6  H    0.000000
     7  H    2.806580   0.000000
     8  H    3.952639   6.006908   0.000000
     9  C    4.484390   4.449046   3.839784   0.000000
    10  O    4.852875   5.453596   3.005731   1.309153   0.000000
    11  O    5.413333   4.801301   5.013764   1.195635   2.223552
    12  O    4.739749   6.521757   0.967249   3.659141   2.582916
    13  H    5.436750   7.288158   1.561430   4.275883   3.105822
    14  H    4.343840   5.452756   2.011714   2.003063   0.997622
                   11         12         13         14
    11  O    0.000000
    12  O    4.757120   0.000000
    13  H    5.312542   0.963944   0.000000
    14  H    3.100816   1.661895   2.311970   0.000000
 Stoichiometry    C3H5N3O3
 Framework group  C1[X(C3H5N3O3)]
 Deg. of freedom    36
 Full point group                 C1      NOp   1
 Largest Abelian subgroup         C1      NOp   1
 Largest concise Abelian subgroup C1      NOp   1
                         Standard orientation:                         
 ---------------------------------------------------------------------
 Center     Atomic      Atomic             Coordinates (Angstroms)
 Number     Number       Type             X           Y           Z
 ---------------------------------------------------------------------
      1          7           0        0.576621    0.226217    0.005951
      2          7           0        0.291426   -1.073040    0.091431
      3          6           0        1.474643   -1.662567    0.057857
      4          6           0        2.463932   -0.661971   -0.050125
      5          7           0        1.867515    0.516763   -0.079058
      6          1           0        1.569402   -2.736709    0.110519
      7          1           0        3.538062   -0.748163   -0.106168
      8          1           0       -2.323214   -2.052429    0.058993
      9          6           0       -0.419006    1.281674    0.017858
     10          8           0       -1.665037    0.880189    0.027767
     11          8           0       -0.064276    2.423468    0.021916
     12          8           0       -2.955710   -1.350284   -0.147190
     13          1           0       -3.695697   -1.428683    0.465559
     14          1           0       -1.874713   -0.093398   -0.030662
 ---------------------------------------------------------------------
 Rotational constants (GHZ):           2.2062373           1.3347609           0.8340319
 Standard basis: 6-31+G(d,p) (6D, 7F)
 There are   196 symmetry adapted cartesian basis functions of A   symmetry.
 There are   196 symmetry adapted basis functions of A   symmetry.
   196 basis functions,   323 primitive gaussians,   196 cartesian basis functions
    34 alpha electrons       34 beta electrons
       nuclear repulsion energy       450.5200558816 Hartrees.
 NAtoms=   14 NActive=   14 NUniq=   14 SFac= 1.00D+00 NAtFMM=   60 NAOKFM=F Big=F
 Integral buffers will be    131072 words long.
 Raffenetti 2 integral format.
 Two-electron integral symmetry is turned on.
 ------------------------------------------------------------------------------
 Polarizable Continuum Model (PCM)
 =================================
 Model                : PCM.
 Atomic radii         : SMD-Coulomb.
 Polarization charges : Total charges.
 Charge compensation  : None.
 Solution method      : On-the-fly selection.
 Cavity type          : VdW (van der Waals Surface) (Alpha=1.000).
 Cavity algorithm     : GePol (No added spheres)
                        Default sphere list used, NSphG=   14.
                        Lebedev-Laikov grids with approx.  5.0 points / Ang**2.
                        Smoothing algorithm: York/Karplus (Gamma=1.0000).
                        Polarization charges: spherical gaussians, with
                                              point-specific exponents (IZeta= 3).
                        Self-potential: point-specific (ISelfS= 7).
                        Self-field    : sphere-specific E.n sum rule (ISelfD= 2).
 1st derivatives      : Analytical E(r).r(x)/FMM algorithm (CHGder, D1EAlg=3).
                        Cavity 1st derivative terms included.
 Solvent              : Water, Eps=  78.355300 Eps(inf)=   1.777849
 ------------------------------------------------------------------------------
 Spheres list:
 ISph  on   Nord     Re0    Alpha      Xe            Ye            Ze
    1   N      1    1.8900  1.000      0.576621      0.226217      0.005951
    2   N      2    1.8900  1.000      0.291426     -1.073040      0.091431
    3   C      3    1.8500  1.000      1.474643     -1.662567      0.057857
    4   C      4    1.8500  1.000      2.463932     -0.661971     -0.050125
    5   N      5    1.8900  1.000      1.867515      0.516763     -0.079058
    6   H      6    1.2000  1.000      1.569402     -2.736709      0.110519
    7   H      7    1.2000  1.000      3.538062     -0.748163     -0.106168
    8   H      8    1.2000  1.000     -2.323214     -2.052429      0.058993
    9   C      9    1.8500  1.000     -0.419006      1.281674      0.017858
   10   O     10    1.5200  1.000     -1.665037      0.880189      0.027767
   11   O     11    1.5200  1.000     -0.064276      2.423468      0.021916
   12   O     12    1.5200  1.000     -2.955710     -1.350284     -0.147190
   13   H     13    1.2000  1.000     -3.695697     -1.428683      0.465559
   14   H     14    1.2000  1.000     -1.874713     -0.093398     -0.030662
 ------------------------------------------------------------------------------
 ------------------------------------------------------------------------------
 Atomic radii for non-electrostatic terms: SMD-CDS.
 ------------------------------------------------------------------------------
 Nuclear repulsion after PCM non-electrostatic terms =      450.5278008985 Hartrees.
 One-electron integrals computed using PRISM.
 NBasis=   196 RedAO= T EigKep=  2.24D-05  NBF=   196
 NBsUse=   196 1.00D-06 EigRej= -1.00D+00 NBFU=   196
 Initial guess from the checkpoint file:  "/scratch/gongke2021/PC/Gau-12454.chk"
 B after Tr=    -0.000000    0.000000    0.000000
         Rot=    0.999745   -0.000893   -0.001400    0.022522 Ang=  -2.59 deg.
 ExpMin= 4.38D-02 ExpMax= 5.48D+03 ExpMxC= 8.25D+02 IAcc=2 IRadAn=         4 AccDes= 0.00D+00
 Harris functional with IExCor= 1009 and IRadAn=       4 diagonalized for initial guess.
 HarFok:  IExCor= 1009 AccDes= 0.00D+00 IRadAn=         4 IDoV= 1 UseB2=F ITyADJ=14
 ICtDFT=  3500011 ScaDFX=  1.000000  1.000000  1.000000  1.000000
 FoFCou: FMM=F IPFlag=           0 FMFlag=      100000 FMFlg1=           0
         NFxFlg=           0 DoJE=T BraDBF=F KetDBF=T FulRan=T
         wScrn=  0.000000 ICntrl=       500 IOpCl=  0 I1Cent=   200000004 NGrid=           0
         NMat0=    1 NMatS0=      1 NMatT0=    0 NMatD0=    1 NMtDS0=    0 NMtDT0=    0
 Petite list used in FoFCou.
 Requested convergence on RMS density matrix=1.00D-08 within 128 cycles.
 Requested convergence on MAX density matrix=1.00D-06.
 Requested convergence on             energy=1.00D-06.
 No special actions if energy rises.
 Inv3:  Mode=1 IEnd=     4255443.
 Iteration    1 A*A^-1 deviation from unit magnitude is 2.44D-15 for     23.
 Iteration    1 A*A^-1 deviation from orthogonality  is 2.41D-15 for    785    558.
 Iteration    1 A^-1*A deviation from unit magnitude is 2.66D-15 for    365.
 Iteration    1 A^-1*A deviation from orthogonality  is 3.78D-15 for    277     18.
 Error on total polarization charges =  0.04120
 SCF Done:  E(RM062X) =  -507.087353596     A.U. after   12 cycles
            NFock= 12  Conv=0.73D-08     -V/T= 2.0083
 SMD-CDS (non-electrostatic) energy       (kcal/mol) =       4.86
 (included in total energy above)
 D1PCM: PCM CHGder 1st derivatives, ID1Alg=3 FixD1E=F DoIter=F DoCFld=F I1PDM=0.
 Calling FoFJK, ICntrl=      2127 FMM=F ISym2X=0 I1Cent= 0 IOpClX= 0 NMat=1 NMatS=1 NMatT=0.
 ***** Axes restored to original set *****
 -------------------------------------------------------------------
 Center     Atomic                   Forces (Hartrees/Bohr)
 Number     Number              X              Y              Z
 -------------------------------------------------------------------
      1        7           0.009523373   -0.005172569    0.000275993
      2        7           0.004196278    0.000473440   -0.000484235
      3        6           0.002809399   -0.000423550    0.000039756
      4        6           0.000410127   -0.001635710   -0.000034398
      5        7          -0.005312896   -0.001622532   -0.000105311
      6        1          -0.000318770   -0.000116908    0.000023249
      7        1          -0.000142685    0.000537877    0.000010099
      8        1           0.003832670    0.003984909    0.002041691
      9        6          -0.003165050    0.026021309   -0.000308747
     10        8          -0.005539447   -0.008168479    0.000034049
     11        8          -0.001345040   -0.015272494    0.000014962
     12        8          -0.008161007   -0.001300365   -0.006356964
     13        1          -0.000479665    0.001241970    0.003774830
     14        1           0.003692714    0.001453102    0.001075026
 -------------------------------------------------------------------
 Cartesian Forces:  Max     0.026021309 RMS     0.005719360

 GradGradGradGradGradGradGradGradGradGradGradGradGradGradGradGradGradGrad
 Berny optimization.
 Using GEDIIS/GDIIS optimizer.
 FormGI is forming the generalized inverse of G from B-inverse, IUseBI=4.
 Internal  Forces:  Max     0.015131831 RMS     0.004842491
 Search for a local minimum.
 Step number   2 out of a maximum of   65
 All quantities printed in internal units (Hartrees-Bohrs-Radians)
 Mixed Optimization -- RFO/linear search
 Update second derivatives using D2CorX and points    2    1
 DE=  1.45D-03 DEPred=-2.37D-03 R=-6.10D-01
 Trust test=-6.10D-01 RLast= 3.03D-01 DXMaxT set to 1.50D-01
 ITU= -1  0
 Use linear search instead of GDIIS.
     Eigenvalues ---    0.00226   0.00230   0.00911   0.01609   0.01620
     Eigenvalues ---    0.02098   0.02194   0.02256   0.02308   0.02413
     Eigenvalues ---    0.02846   0.04527   0.07815   0.11452   0.15878
     Eigenvalues ---    0.16000   0.16000   0.18856   0.21824   0.22619
     Eigenvalues ---    0.24798   0.24999   0.30532   0.36050   0.36128
     Eigenvalues ---    0.40663   0.44041   0.47296   0.53977   0.54173
     Eigenvalues ---    0.54538   0.55095   0.60092   0.61257   0.65153
     Eigenvalues ---    0.99910
 RFO step:  Lambda=-3.49599284D-03 EMin= 2.25610899D-03
 Quartic linear search produced a step of -0.77516.
 Maximum step size (   0.150) exceeded in Quadratic search.
    -- Step size scaled by   0.649
 Iteration  1 RMS(Cart)=  0.09307323 RMS(Int)=  0.01791270
 Iteration  2 RMS(Cart)=  0.08659539 RMS(Int)=  0.00296749
 Iteration  3 RMS(Cart)=  0.00403964 RMS(Int)=  0.00005865
 Iteration  4 RMS(Cart)=  0.00000195 RMS(Int)=  0.00005860
 Iteration  5 RMS(Cart)=  0.00000000 RMS(Int)=  0.00005860
 Variable       Old X    -DE/DX   Delta X   Delta X   Delta X     New X
                                 (Linear)    (Quad)   (Total)
    R1        2.51888  -0.00064   0.00063  -0.00242  -0.00179   2.51708
    R2        2.50562   0.00379  -0.00290   0.01143   0.00854   2.51415
    R3        2.74199  -0.01356   0.01053  -0.04337  -0.03283   2.70916
    R4        2.49892  -0.00175   0.00108  -0.00436  -0.00329   2.49564
    R5        2.66682   0.00206  -0.00031   0.00179   0.00148   2.66830
    R6        2.04015  -0.00007  -0.00009   0.00029   0.00020   2.04034
    R7        2.49699  -0.00053   0.00020  -0.00083  -0.00063   2.49636
    R8        2.03909   0.00016  -0.00021   0.00081   0.00061   2.03969
    R9        1.82784   0.00054  -0.00060   0.00230   0.00170   1.82954
   R10        2.47394  -0.00723   0.00152  -0.00722  -0.00570   2.46824
   R11        2.25942   0.01513  -0.00582   0.02315   0.01733   2.27675
   R12        1.88523   0.00511  -0.00541   0.02098   0.01557   1.90080
   R13        1.82159   0.00218  -0.00199   0.00776   0.00577   1.82736
   R14        3.14053   0.00016   0.00685  -0.02302  -0.01617   3.12435
    A1        2.01088   0.00299  -0.00037   0.00330   0.00293   2.01381
    A2        2.16721  -0.00873  -0.00059  -0.00343  -0.00402   2.16319
    A3        2.10502   0.00574   0.00097   0.00014   0.00110   2.10612
    A4        1.81468  -0.00189   0.00029  -0.00241  -0.00212   1.81256
    A5        1.88925   0.00130  -0.00088   0.00378   0.00290   1.89215
    A6        2.11865  -0.00032  -0.00030   0.00104   0.00074   2.11938
    A7        2.27529  -0.00098   0.00118  -0.00482  -0.00364   2.27165
    A8        1.89416   0.00094  -0.00018   0.00124   0.00106   1.89522
    A9        2.27204  -0.00102   0.00168  -0.00674  -0.00507   2.26697
   A10        2.11699   0.00008  -0.00150   0.00551   0.00401   2.12099
   A11        1.81581  -0.00334   0.00114  -0.00590  -0.00477   1.81104
   A12        2.01536  -0.01145  -0.01167   0.03423   0.02256   2.03792
   A13        2.08414   0.00852   0.00096   0.00195   0.00290   2.08704
   A14        2.18367   0.00293   0.01070  -0.03615  -0.02545   2.15822
   A15        2.09311  -0.01495  -0.01433   0.03577   0.02144   2.11455
   A16        1.88330  -0.00465   0.01008  -0.04075  -0.03093   1.85238
   A17        1.67973   0.00541  -0.00356   0.01974   0.01597   1.69570
   A18        2.11329  -0.00312   0.00461  -0.01967  -0.01517   2.09812
   A19        3.63869  -0.01094  -0.22966  -0.09761  -0.32729   3.31140
   A20        3.12874   0.00179  -0.02306   0.05376   0.03067   3.15940
    D1       -0.00146   0.00005  -0.00037   0.00179   0.00142  -0.00004
    D2       -3.13022  -0.00013  -0.00080   0.00127   0.00047  -3.12975
    D3        0.00210  -0.00005   0.00026  -0.00150  -0.00124   0.00086
    D4        3.13136   0.00001   0.00067  -0.00104  -0.00037   3.13099
    D5       -0.07871   0.00073  -0.00446   0.01841   0.01393  -0.06477
    D6        3.05914   0.00040  -0.00747   0.02527   0.01781   3.07696
    D7        3.07637   0.00056  -0.00491   0.01784   0.01293   3.08930
    D8       -0.06897   0.00023  -0.00791   0.02471   0.01681  -0.05216
    D9        0.00021  -0.00003   0.00031  -0.00128  -0.00097  -0.00076
   D10        3.14136  -0.00004   0.00071  -0.00247  -0.00176   3.13961
   D11        0.00104   0.00000  -0.00017   0.00046   0.00029   0.00133
   D12       -3.13973   0.00001   0.00006  -0.00001   0.00005  -3.13968
   D13       -3.14006   0.00001  -0.00063   0.00180   0.00117  -3.13889
   D14        0.00235   0.00002  -0.00039   0.00132   0.00093   0.00328
   D15       -0.00180   0.00003  -0.00005   0.00059   0.00054  -0.00127
   D16        3.13906   0.00002  -0.00026   0.00101   0.00075   3.13981
   D17       -0.06652   0.00021  -0.00483   0.01714   0.01229  -0.05422
   D18        3.07906   0.00055  -0.00157   0.00972   0.00816   3.08723
   D19        0.33171   0.00176  -0.00796   0.03590   0.02778   0.35949
   D20        2.41021  -0.00256  -0.02960  -0.01334  -0.04278   2.36743
   D21        1.90517   0.00178   0.00563  -0.01593  -0.01021   1.89496
         Item               Value     Threshold  Converged?
 Maximum Force            0.015132     0.000450     NO 
 RMS     Force            0.004842     0.000300     NO 
 Maximum Displacement     0.665011     0.001800     NO 
 RMS     Displacement     0.177937     0.001200     NO 
 Predicted change in Energy=-5.650020D-04
 GradGradGradGradGradGradGradGradGradGradGradGradGradGradGradGradGradGrad

                          Input orientation:                          
 ---------------------------------------------------------------------
 Center     Atomic      Atomic             Coordinates (Angstroms)
 Number     Number       Type             X           Y           Z
 ---------------------------------------------------------------------
      1          7           0       -0.525787   -0.261160    0.001185
      2          7           0       -0.246367    1.039265    0.071888
      3          6           0       -1.432609    1.619246    0.048977
      4          6           0       -2.419362    0.613073   -0.038750
      5          7           0       -1.819623   -0.563634   -0.066250
      6          1           0       -1.535333    2.693051    0.095344
      7          1           0       -3.494395    0.699710   -0.081349
      8          1           0        1.843533    2.071398    0.123341
      9          6           0        0.467461   -1.294927    0.009566
     10          8           0        1.715895   -0.911057    0.016735
     11          8           0        0.123951   -2.449726    0.009549
     12          8           0        2.626600    1.572039   -0.150079
     13          1           0        3.337914    1.838979    0.448135
     14          1           0        1.960985    0.063353   -0.030308
 ---------------------------------------------------------------------
                    Distance matrix (angstroms):
                    1          2          3          4          5
     1  N    0.000000
     2  N    1.331984   0.000000
     3  C    2.088190   1.320634   0.000000
     4  C    2.086025   2.217158   1.412006   0.000000
     5  N    1.330431   2.250223   2.219915   1.321016   0.000000
     6  H    3.123365   2.096901   1.079704   2.264022   3.273061
     7  H    3.121332   3.269322   2.261303   1.079360   2.097887
     8  H    3.327075   2.331443   3.308032   4.508354   4.516420
     9  C    1.433627   2.441697   3.479112   3.460714   2.402350
    10  O    2.334041   2.767177   4.039375   4.407538   3.553515
    11  O    2.282991   3.509142   4.356715   3.981395   2.709348
    12  O    3.649801   2.930368   4.064361   5.137484   4.933257
    13  H    4.420242   3.691635   4.792233   5.906448   5.712909
    14  H    2.508054   2.415626   3.734109   4.414714   3.832414
                    6          7          8          9         10
     6  H    0.000000
     7  H    2.800456   0.000000
     8  H    3.435691   5.515152   0.000000
     9  C    4.463463   4.436569   3.638497   0.000000
    10  O    4.854509   5.454476   2.987088   1.306137   0.000000
    11  O    5.404511   4.797878   4.838437   1.204807   2.214009
    12  O    4.317243   6.183224   0.968149   3.592612   2.650090
    13  H    4.960085   6.946851   1.546831   4.272378   3.221762
    14  H    4.376682   5.492606   2.017338   2.019190   1.005861
                   11         12         13         14
    11  O    0.000000
    12  O    4.739549   0.000000
    13  H    5.377258   0.966998   0.000000
    14  H    3.113172   1.653337   2.297323   0.000000
 Stoichiometry    C3H5N3O3
 Framework group  C1[X(C3H5N3O3)]
 Deg. of freedom    36
 Full point group                 C1      NOp   1
 Largest Abelian subgroup         C1      NOp   1
 Largest concise Abelian subgroup C1      NOp   1
                         Standard orientation:                         
 ---------------------------------------------------------------------
 Center     Atomic      Atomic             Coordinates (Angstroms)
 Number     Number       Type             X           Y           Z
 ---------------------------------------------------------------------
      1          7           0        0.523537    0.250393    0.004746
      2          7           0        0.210700   -1.042451    0.074528
      3          6           0        1.381533   -1.652859    0.049563
      4          6           0        2.393842   -0.672426   -0.038418
      5          7           0        1.824671    0.519409   -0.064016
      6          1           0        1.456538   -2.729006    0.094752
      7          1           0        3.466226   -0.786764   -0.082450
      8          1           0       -1.905103   -2.020300    0.127593
      9          6           0       -0.442661    1.309465    0.015383
     10          8           0       -1.700586    0.957968    0.023742
     11          8           0       -0.069433    2.455004    0.016063
     12          8           0       -2.675343   -1.500602   -0.144356
     13          1           0       -3.392581   -1.749681    0.454488
     14          1           0       -1.970826   -0.009737   -0.023946
 ---------------------------------------------------------------------
 Rotational constants (GHZ):           2.0940337           1.4856902           0.8713428
 Standard basis: 6-31+G(d,p) (6D, 7F)
 There are   196 symmetry adapted cartesian basis functions of A   symmetry.
 There are   196 symmetry adapted basis functions of A   symmetry.
   196 basis functions,   323 primitive gaussians,   196 cartesian basis functions
    34 alpha electrons       34 beta electrons
       nuclear repulsion energy       454.2429609768 Hartrees.
 NAtoms=   14 NActive=   14 NUniq=   14 SFac= 1.00D+00 NAtFMM=   60 NAOKFM=F Big=F
 Integral buffers will be    131072 words long.
 Raffenetti 2 integral format.
 Two-electron integral symmetry is turned on.
 ------------------------------------------------------------------------------
 Polarizable Continuum Model (PCM)
 =================================
 Model                : PCM.
 Atomic radii         : SMD-Coulomb.
 Polarization charges : Total charges.
 Charge compensation  : None.
 Solution method      : On-the-fly selection.
 Cavity type          : VdW (van der Waals Surface) (Alpha=1.000).
 Cavity algorithm     : GePol (No added spheres)
                        Default sphere list used, NSphG=   14.
                        Lebedev-Laikov grids with approx.  5.0 points / Ang**2.
                        Smoothing algorithm: York/Karplus (Gamma=1.0000).
                        Polarization charges: spherical gaussians, with
                                              point-specific exponents (IZeta= 3).
                        Self-potential: point-specific (ISelfS= 7).
                        Self-field    : sphere-specific E.n sum rule (ISelfD= 2).
 1st derivatives      : Analytical E(r).r(x)/FMM algorithm (CHGder, D1EAlg=3).
                        Cavity 1st derivative terms included.
 Solvent              : Water, Eps=  78.355300 Eps(inf)=   1.777849
 ------------------------------------------------------------------------------
 Spheres list:
 ISph  on   Nord     Re0    Alpha      Xe            Ye            Ze
    1   N      1    1.8900  1.000      0.523537      0.250393      0.004746
    2   N      2    1.8900  1.000      0.210700     -1.042451      0.074528
    3   C      3    1.8500  1.000      1.381533     -1.652859      0.049563
    4   C      4    1.8500  1.000      2.393842     -0.672426     -0.038418
    5   N      5    1.8900  1.000      1.824671      0.519409     -0.064016
    6   H      6    1.2000  1.000      1.456538     -2.729006      0.094752
    7   H      7    1.2000  1.000      3.466226     -0.786764     -0.082450
    8   H      8    1.2000  1.000     -1.905103     -2.020300      0.127593
    9   C      9    1.8500  1.000     -0.442661      1.309465      0.015383
   10   O     10    1.5200  1.000     -1.700586      0.957968      0.023742
   11   O     11    1.5200  1.000     -0.069433      2.455004      0.016063
   12   O     12    1.5200  1.000     -2.675343     -1.500602     -0.144356
   13   H     13    1.2000  1.000     -3.392581     -1.749681      0.454488
   14   H     14    1.2000  1.000     -1.970826     -0.009737     -0.023946
 ------------------------------------------------------------------------------
 ------------------------------------------------------------------------------
 Atomic radii for non-electrostatic terms: SMD-CDS.
 ------------------------------------------------------------------------------
 Nuclear repulsion after PCM non-electrostatic terms =      454.2507523295 Hartrees.
 One-electron integrals computed using PRISM.
 NBasis=   196 RedAO= T EigKep=  2.21D-05  NBF=   196
 NBsUse=   196 1.00D-06 EigRej= -1.00D+00 NBFU=   196
 Lowest energy guess from the checkpoint file:  "/scratch/gongke2021/PC/Gau-12454.chk"
 B after Tr=     0.000000   -0.000000    0.000000
         Rot=    0.999918   -0.000285   -0.000365    0.012788 Ang=  -1.47 deg.
 B after Tr=     0.000000   -0.000000    0.000000
         Rot=    0.999951    0.000640    0.001016   -0.009807 Ang=   1.13 deg.
 Requested convergence on RMS density matrix=1.00D-08 within 128 cycles.
 Requested convergence on MAX density matrix=1.00D-06.
 Requested convergence on             energy=1.00D-06.
 No special actions if energy rises.
 Inv3:  Mode=1 IEnd=     4015947.
 Iteration    1 A*A^-1 deviation from unit magnitude is 4.22D-15 for    204.
 Iteration    1 A*A^-1 deviation from orthogonality  is 2.40D-15 for    811    579.
 Iteration    1 A^-1*A deviation from unit magnitude is 4.00D-15 for    204.
 Iteration    1 A^-1*A deviation from orthogonality  is 1.79D-15 for    544     97.
 Error on total polarization charges =  0.04134
 SCF Done:  E(RM062X) =  -507.089968080     A.U. after   12 cycles
            NFock= 12  Conv=0.39D-08     -V/T= 2.0084
 SMD-CDS (non-electrostatic) energy       (kcal/mol) =       4.89
 (included in total energy above)
 D1PCM: PCM CHGder 1st derivatives, ID1Alg=3 FixD1E=F DoIter=F DoCFld=F I1PDM=0.
 Calling FoFJK, ICntrl=      2127 FMM=F ISym2X=0 I1Cent= 0 IOpClX= 0 NMat=1 NMatS=1 NMatT=0.
 ***** Axes restored to original set *****
 -------------------------------------------------------------------
 Center     Atomic                   Forces (Hartrees/Bohr)
 Number     Number              X              Y              Z
 -------------------------------------------------------------------
      1        7           0.005367850   -0.004053451    0.000005583
      2        7           0.000488636    0.001537649    0.000143690
      3        6           0.001728519    0.001286393    0.000060746
      4        6           0.000426033   -0.002054795   -0.000077452
      5        7          -0.003204360    0.001422367    0.000240361
      6        1          -0.000231385   -0.000017787   -0.000040511
      7        1           0.000083322    0.000121741   -0.000014768
      8        1          -0.000244718    0.001478381   -0.000009875
      9        6          -0.000464974    0.006560674   -0.000820740
     10        8           0.001974104   -0.000131334    0.000068304
     11        8          -0.001069736   -0.004721784    0.000183416
     12        8          -0.002438530   -0.003382132   -0.000883484
     13        1          -0.000127696   -0.001403320    0.000574087
     14        1          -0.002287065    0.003357399    0.000570643
 -------------------------------------------------------------------
 Cartesian Forces:  Max     0.006560674 RMS     0.002071518

 GradGradGradGradGradGradGradGradGradGradGradGradGradGradGradGradGradGrad
 Berny optimization.
 Using GEDIIS/GDIIS optimizer.
 FormGI is forming the generalized inverse of G from B-inverse, IUseBI=4.
 Internal  Forces:  Max     0.009579231 RMS     0.002368939
 Search for a local minimum.
 Step number   3 out of a maximum of   65
 All quantities printed in internal units (Hartrees-Bohrs-Radians)
 Mixed Optimization -- RFO/linear search
 Update second derivatives using D2CorX and points    2    1    3
 DE= -1.17D-03 DEPred=-5.65D-04 R= 2.07D+00
 TightC=F SS=  1.41D+00  RLast= 1.44D-01 DXNew= 2.5227D-01 4.3347D-01
 Trust test= 2.07D+00 RLast= 1.44D-01 DXMaxT set to 2.52D-01
 ITU=  1 -1  0
 Use linear search instead of GDIIS.
     Eigenvalues ---    0.00229   0.00233   0.00920   0.01612   0.01618
     Eigenvalues ---    0.02099   0.02129   0.02203   0.02305   0.02421
     Eigenvalues ---    0.02868   0.04712   0.07321   0.12259   0.15616
     Eigenvalues ---    0.16000   0.16030   0.18645   0.22393   0.23005
     Eigenvalues ---    0.24984   0.25182   0.30614   0.36050   0.36128
     Eigenvalues ---    0.40771   0.45059   0.52357   0.53910   0.54307
     Eigenvalues ---    0.54740   0.56640   0.60067   0.61296   0.64956
     Eigenvalues ---    0.98577
 RFO step:  Lambda=-1.30476782D-03 EMin= 2.29191170D-03
 Quartic linear search produced a step of -0.07914.
 Iteration  1 RMS(Cart)=  0.07152338 RMS(Int)=  0.00345014
 Iteration  2 RMS(Cart)=  0.00484375 RMS(Int)=  0.00006859
 Iteration  3 RMS(Cart)=  0.00001519 RMS(Int)=  0.00006726
 Iteration  4 RMS(Cart)=  0.00000000 RMS(Int)=  0.00006726
 Variable       Old X    -DE/DX   Delta X   Delta X   Delta X     New X
                                 (Linear)    (Quad)   (Total)
    R1        2.51708   0.00167   0.00021   0.00163   0.00183   2.51892
    R2        2.51415   0.00185  -0.00097   0.00869   0.00772   2.52187
    R3        2.70916  -0.00452   0.00367  -0.03262  -0.02895   2.68021
    R4        2.49564  -0.00088   0.00037  -0.00355  -0.00318   2.49246
    R5        2.66830   0.00140  -0.00015   0.00342   0.00327   2.67158
    R6        2.04034  -0.00000  -0.00002   0.00014   0.00012   2.04046
    R7        2.49636  -0.00099   0.00007  -0.00198  -0.00191   2.49445
    R8        2.03969  -0.00007  -0.00007   0.00022   0.00015   2.03985
    R9        1.82954   0.00097  -0.00020   0.00278   0.00259   1.83212
   R10        2.46824  -0.00301   0.00061  -0.00782  -0.00721   2.46103
   R11        2.27675   0.00483  -0.00197   0.01559   0.01362   2.29038
   R12        1.90080  -0.00119  -0.00178   0.00824   0.00645   1.90725
   R13        1.82736  -0.00011  -0.00066   0.00368   0.00302   1.83038
   R14        3.12435  -0.00412   0.00198  -0.05838  -0.05640   3.06796
    A1        2.01381  -0.00034  -0.00027   0.00114   0.00086   2.01467
    A2        2.16319  -0.00320   0.00026  -0.01353  -0.01328   2.14992
    A3        2.10612   0.00354   0.00001   0.01243   0.01244   2.11856
    A4        1.81256   0.00015   0.00020  -0.00016   0.00004   1.81260
    A5        1.89215  -0.00019  -0.00032   0.00024  -0.00008   1.89206
    A6        2.11938   0.00034  -0.00009   0.00273   0.00264   2.12203
    A7        2.27165  -0.00015   0.00041  -0.00297  -0.00256   2.26909
    A8        1.89522   0.00091  -0.00010   0.00339   0.00329   1.89851
    A9        2.26697  -0.00057   0.00057  -0.00542  -0.00485   2.26212
   A10        2.12099  -0.00034  -0.00047   0.00203   0.00156   2.12255
   A11        1.81104  -0.00053   0.00049  -0.00461  -0.00412   1.80692
   A12        2.03792  -0.00808  -0.00298  -0.01197  -0.01498   2.02294
   A13        2.08704   0.00441  -0.00013   0.01684   0.01667   2.10372
   A14        2.15822   0.00366   0.00311  -0.00487  -0.00180   2.15642
   A15        2.11455  -0.00958  -0.00316  -0.03582  -0.03898   2.07556
   A16        1.85238  -0.00007   0.00348  -0.02033  -0.01712   1.83526
   A17        1.69570   0.00161  -0.00163   0.02090   0.01916   1.71486
   A18        2.09812  -0.00292   0.00167  -0.02569  -0.02413   2.07400
   A19        3.31140  -0.00007   0.00245   0.06665   0.06906   3.38046
   A20        3.15940   0.00048  -0.00478   0.14250   0.13766   3.29706
    D1       -0.00004  -0.00011  -0.00015  -0.00284  -0.00299  -0.00303
    D2       -3.12975  -0.00019  -0.00012  -0.00623  -0.00632  -3.13608
    D3        0.00086   0.00010   0.00013   0.00264   0.00276   0.00362
    D4        3.13099   0.00013   0.00010   0.00572   0.00584   3.13683
    D5       -0.06477   0.00036  -0.00156   0.03289   0.03137  -0.03340
    D6        3.07696   0.00000  -0.00217   0.01772   0.01552   3.09247
    D7        3.08930   0.00030  -0.00152   0.02942   0.02793   3.11723
    D8       -0.05216  -0.00006  -0.00214   0.01425   0.01208  -0.04008
    D9       -0.00076   0.00007   0.00011   0.00178   0.00189   0.00113
   D10        3.13961   0.00007   0.00021   0.00126   0.00147   3.14107
   D11        0.00133  -0.00001  -0.00004  -0.00031  -0.00035   0.00098
   D12       -3.13968   0.00001   0.00000   0.00039   0.00039  -3.13929
   D13       -3.13889  -0.00002  -0.00016   0.00027   0.00011  -3.13878
   D14        0.00328   0.00001  -0.00011   0.00097   0.00086   0.00414
   D15       -0.00127  -0.00005  -0.00005  -0.00131  -0.00135  -0.00261
   D16        3.13981  -0.00007  -0.00009  -0.00194  -0.00202   3.13778
   D17       -0.05422  -0.00007  -0.00147   0.00224   0.00084  -0.05338
   D18        3.08723   0.00030  -0.00081   0.01809   0.01723   3.10445
   D19        0.35949  -0.00004  -0.00301  -0.03058  -0.03384   0.32565
   D20        2.36743  -0.00023   0.00036  -0.01223  -0.01161   2.35583
   D21        1.89496   0.00051   0.00138  -0.00098   0.00035   1.89531
         Item               Value     Threshold  Converged?
 Maximum Force            0.009579     0.000450     NO 
 RMS     Force            0.002369     0.000300     NO 
 Maximum Displacement     0.276613     0.001800     NO 
 RMS     Displacement     0.072195     0.001200     NO 
 Predicted change in Energy=-6.855186D-04
 GradGradGradGradGradGradGradGradGradGradGradGradGradGradGradGradGradGrad

                          Input orientation:                          
 ---------------------------------------------------------------------
 Center     Atomic      Atomic             Coordinates (Angstroms)
 Number     Number       Type             X           Y           Z
 ---------------------------------------------------------------------
      1          7           0       -0.508959   -0.278664    0.004619
      2          7           0       -0.209461    1.015807    0.111438
      3          6           0       -1.383946    1.615236    0.081391
      4          6           0       -2.386573    0.626658   -0.045518
      5          7           0       -1.810070   -0.559977   -0.089770
      6          1           0       -1.472675    2.689156    0.150072
      7          1           0       -3.458707    0.737398   -0.104329
      8          1           0        1.790598    2.083048   -0.023037
      9          6           0        0.470695   -1.304264    0.000247
     10          8           0        1.709400   -0.908182    0.069285
     11          8           0        0.141778   -2.469783   -0.048354
     12          8           0        2.577824    1.538316   -0.176363
     13          1           0        3.237209    1.863062    0.454456
     14          1           0        1.905751    0.081798    0.073847
 ---------------------------------------------------------------------
                    Distance matrix (angstroms):
                    1          2          3          4          5
     1  N    0.000000
     2  N    1.332954   0.000000
     3  C    2.087667   1.318952   0.000000
     4  C    2.085079   2.217181   1.413738   0.000000
     5  N    1.334517   2.255112   2.223157   1.320006   0.000000
     6  H    3.123757   2.096974   1.079765   2.264369   3.275397
     7  H    3.121740   3.268282   2.260470   1.079441   2.097951
     8  H    3.296424   2.270973   3.210527   4.423837   4.467084
     9  C    1.418307   2.420269   3.459734   3.448845   2.400824
    10  O    2.306858   2.717635   3.992065   4.375605   3.540229
    11  O    2.286322   3.506885   4.362574   3.997563   2.731078
    12  O    3.586419   2.850404   3.970891   5.049107   4.864560
    13  H    4.338562   3.565815   4.642808   5.779757   5.625151
    14  H    2.442448   2.312554   3.629545   4.328414   3.774384
                    6          7          8          9         10
     6  H    0.000000
     7  H    2.796141   0.000000
     8  H    3.323595   5.419648   0.000000
     9  C    4.443707   4.429392   3.635459   0.000000
    10  O    4.803433   5.426547   2.993756   1.302321   0.000000
    11  O    5.409296   4.822098   4.842263   1.212016   2.215824
    12  O    4.223450   6.089858   0.969519   3.542802   2.607654
    13  H    4.791459   6.812830   1.539180   4.229877   3.187844
    14  H    4.268242   5.407307   2.006899   1.996490   1.009275
                   11         12         13         14
    11  O    0.000000
    12  O    4.692075   0.000000
    13  H    5.348650   0.968597   0.000000
    14  H    3.104368   1.623494   2.256223   0.000000
 Stoichiometry    C3H5N3O3
 Framework group  C1[X(C3H5N3O3)]
 Deg. of freedom    36
 Full point group                 C1      NOp   1
 Largest Abelian subgroup         C1      NOp   1
 Largest concise Abelian subgroup C1      NOp   1
                         Standard orientation:                         
 ---------------------------------------------------------------------
 Center     Atomic      Atomic             Coordinates (Angstroms)
 Number     Number       Type             X           Y           Z
 ---------------------------------------------------------------------
      1          7           0        0.510294    0.268461    0.011104
      2          7           0        0.199984   -1.024371    0.106277
      3          6           0        1.369377   -1.633342    0.070081
      4          6           0        2.380210   -0.652099   -0.048381
      5          7           0        1.813675    0.539689   -0.081467
      6          1           0        1.449114   -2.708551    0.128905
      7          1           0        3.451346   -0.771296   -0.108822
      8          1           0       -1.809038   -2.073507   -0.036773
      9          6           0       -0.460711    1.302248    0.016661
     10          8           0       -1.702666    0.915967    0.082799
     11          8           0       -0.122038    2.465359   -0.021490
     12          8           0       -2.591737   -1.520808   -0.184666
     13          1           0       -3.253509   -1.845753    0.443545
     14          1           0       -1.907325   -0.072330    0.078438
 ---------------------------------------------------------------------
 Rotational constants (GHZ):           2.0941826           1.5294345           0.8877031
 Standard basis: 6-31+G(d,p) (6D, 7F)
 There are   196 symmetry adapted cartesian basis functions of A   symmetry.
 There are   196 symmetry adapted basis functions of A   symmetry.
   196 basis functions,   323 primitive gaussians,   196 cartesian basis functions
    34 alpha electrons       34 beta electrons
       nuclear repulsion energy       456.3534592681 Hartrees.
 NAtoms=   14 NActive=   14 NUniq=   14 SFac= 1.00D+00 NAtFMM=   60 NAOKFM=F Big=F
 Integral buffers will be    131072 words long.
 Raffenetti 2 integral format.
 Two-electron integral symmetry is turned on.
 ------------------------------------------------------------------------------
 Polarizable Continuum Model (PCM)
 =================================
 Model                : PCM.
 Atomic radii         : SMD-Coulomb.
 Polarization charges : Total charges.
 Charge compensation  : None.
 Solution method      : On-the-fly selection.
 Cavity type          : VdW (van der Waals Surface) (Alpha=1.000).
 Cavity algorithm     : GePol (No added spheres)
                        Default sphere list used, NSphG=   14.
                        Lebedev-Laikov grids with approx.  5.0 points / Ang**2.
                        Smoothing algorithm: York/Karplus (Gamma=1.0000).
                        Polarization charges: spherical gaussians, with
                                              point-specific exponents (IZeta= 3).
                        Self-potential: point-specific (ISelfS= 7).
                        Self-field    : sphere-specific E.n sum rule (ISelfD= 2).
 1st derivatives      : Analytical E(r).r(x)/FMM algorithm (CHGder, D1EAlg=3).
                        Cavity 1st derivative terms included.
 Solvent              : Water, Eps=  78.355300 Eps(inf)=   1.777849
 ------------------------------------------------------------------------------
 Spheres list:
 ISph  on   Nord     Re0    Alpha      Xe            Ye            Ze
    1   N      1    1.8900  1.000      0.510294      0.268461      0.011104
    2   N      2    1.8900  1.000      0.199984     -1.024371      0.106277
    3   C      3    1.8500  1.000      1.369377     -1.633342      0.070081
    4   C      4    1.8500  1.000      2.380210     -0.652099     -0.048381
    5   N      5    1.8900  1.000      1.813675      0.539689     -0.081467
    6   H      6    1.2000  1.000      1.449114     -2.708551      0.128905
[...]
 ! A13   A(1,9,11)             119.3356         -DE/DX =    0.0                 !
 ! A14   A(10,9,11)            124.5243         -DE/DX =    0.0                 !
 ! A15   A(9,10,14)            121.7261         -DE/DX =    0.0                 !
 ! A16   A(8,12,13)            106.5172         -DE/DX =    0.0                 !
 ! A17   A(8,12,14)            105.4928         -DE/DX =    0.0001              !
 ! A18   A(13,12,14)           113.2742         -DE/DX =    0.0                 !
 ! A19   L(10,14,12,2,-1)      192.2023         -DE/DX =    0.0                 !
 ! A20   L(10,14,12,2,-2)      181.9054         -DE/DX =    0.0                 !
 ! D1    D(5,1,2,3)              0.0313         -DE/DX =    0.0                 !
 ! D2    D(9,1,2,3)            179.9712         -DE/DX =    0.0                 !
 ! D3    D(2,1,5,4)             -0.0345         -DE/DX =    0.0                 !
 ! D4    D(9,1,5,4)           -179.9758         -DE/DX =    0.0                 !
 ! D5    D(2,1,9,10)             0.4646         -DE/DX =    0.0                 !
 ! D6    D(2,1,9,11)          -179.4959         -DE/DX =    0.0                 !
 ! D7    D(5,1,9,10)          -179.5991         -DE/DX =    0.0                 !
 ! D8    D(5,1,9,11)             0.4404         -DE/DX =    0.0                 !
 ! D9    D(1,2,3,4)             -0.0146         -DE/DX =    0.0                 !
 ! D10   D(1,2,3,6)            179.9798         -DE/DX =    0.0                 !
 ! D11   D(2,3,4,5)             -0.0052         -DE/DX =    0.0                 !
 ! D12   D(2,3,4,7)            179.9936         -DE/DX =    0.0                 !
 ! D13   D(6,3,4,5)           -179.9991         -DE/DX =    0.0                 !
 ! D14   D(6,3,4,7)             -0.0002         -DE/DX =    0.0                 !
 ! D15   D(3,4,5,1)              0.0226         -DE/DX =    0.0                 !
 ! D16   D(7,4,5,1)           -179.9764         -DE/DX =    0.0                 !
 ! D17   D(1,9,10,14)            0.5009         -DE/DX =    0.0                 !
 ! D18   D(11,9,10,14)        -179.5408         -DE/DX =    0.0                 !
 ! D19   D(9,10,12,8)           16.1437         -DE/DX =    0.0                 !
 ! D20   D(9,10,12,13)         133.7763         -DE/DX =    0.0                 !
 ! D21   D(8,12,13,14)         115.5214         -DE/DX =    0.0                 !
 --------------------------------------------------------------------------------
 GradGradGradGradGradGradGradGradGradGradGradGradGradGradGradGradGradGrad


 ----------------------------------------------------------------------

 Electric dipole moment (input orientation):
 (Debye = 10**-18 statcoulomb cm , SI units = C m)
                  (au)            (Debye)         (10**-30 SI)
   Tot        0.413123D+01      0.105005D+02      0.350260D+02
   x          0.901674D-01      0.229183D+00      0.764471D+00
   y          0.405023D+01      0.102947D+02      0.343393D+02
   z          0.809019D+00      0.205632D+01      0.685915D+01

 Dipole polarizability, Alpha (input orientation).
 (esu units = cm**3 , SI units = C**2 m**2 J**-1)
 Alpha(0;0):
               (au)            (10**-24 esu)      (10**-40 SI)
   iso        0.924983D+02      0.137068D+02      0.152509D+02
   aniso      0.591179D+02      0.876037D+01      0.974723D+01
   xx         0.108048D+03      0.160110D+02      0.178146D+02
   yx        -0.709608D+01     -0.105153D+01     -0.116999D+01
   yy         0.115219D+03      0.170736D+02      0.189970D+02
   zx        -0.128081D+01     -0.189796D+00     -0.211177D+00
   zy        -0.130533D+01     -0.193430D+00     -0.215220D+00
   zz         0.542287D+02      0.803587D+01      0.894111D+01

 ----------------------------------------------------------------------

 Dipole orientation:
     7         -0.95668075         -0.04291608         -0.49058584
     7         -0.50355999          0.57583203          1.91133914
     6         -2.77355774          0.76011862          2.92586443
     6         -4.58503448          0.22974014          1.03529334
     7         -3.39230169         -0.26687123         -1.09674218
     1         -3.03133012          1.24700240          4.89043877
     1         -6.62110867          0.19512260          1.15199691
     1          3.45183654          0.41286681          4.07504558
     6          0.99257279         -0.42601517         -2.32648665
     8          3.29653359         -0.21499446         -1.51373760
     8          0.41753410         -0.90535105         -4.49022718
     8          4.81453419          0.59048208          2.86558652
     1          6.08918145         -0.63619881          3.33319098
     1          3.69372599          0.10776327          0.39117401

 Electric dipole moment (dipole orientation):
 (Debye = 10**-18 statcoulomb cm , SI units = C m)
                  (au)            (Debye)         (10**-30 SI)
   Tot        0.413123D+01      0.105005D+02      0.350260D+02
   x          0.000000D+00      0.000000D+00      0.000000D+00
   y          0.000000D+00      0.000000D+00      0.000000D+00
   z          0.413123D+01      0.105005D+02      0.350260D+02

 Dipole polarizability, Alpha (dipole orientation).
 (esu units = cm**3 , SI units = C**2 m**2 J**-1)
 Alpha(0;0):
               (au)            (10**-24 esu)      (10**-40 SI)
   iso        0.924983D+02      0.137068D+02      0.152509D+02
   aniso      0.591179D+02      0.876037D+01      0.974723D+01
   xx         0.108333D+03      0.160533D+02      0.178617D+02
   yx        -0.133357D+01     -0.197615D+00     -0.219877D+00
   yy         0.571015D+02      0.846157D+01      0.941477D+01
   zx        -0.706480D+01     -0.104689D+01     -0.116483D+01
   zy         0.130428D+02      0.193274D+01      0.215047D+01
   zz         0.112060D+03      0.166056D+02      0.184763D+02

 ----------------------------------------------------------------------
 1\1\GINC-NODE5\Freq\RM062X\6-31+G(d,p)\C3H5N3O3\GONGKE2021\05-Jul-2023
 \0\\#N Geom=AllCheck Guess=TCheck SCRF=Check GenChk RM062X/6-31+G(d,p)
  Freq\\"1-H-Tz-TS"\\0,1\N,-0.5113117468,-0.2499148251,-0.0175244966\N,
 -0.2497434111,1.0561702144,-0.0948571824\C,-1.4405234808,1.6231394497,
 -0.0591135292\C,-2.4155472713,0.6043846807,0.0410524573\N,-1.804553722
 7,-0.5645829118,0.0639794669\H,-1.5587964016,2.6953645027,-0.105146202
 7\H,-3.4908864414,0.6806156767,0.0946221049\H,1.8690618339,2.124330964
 6,0.1682283936\C,0.5022012974,-1.2606233508,-0.0315374502\O,1.72830805
 29,-0.8388708414,-0.0834013784\O,0.1775733498,-2.4275067039,-0.0004412
 851\O,2.574232353,1.5024005751,-0.0649926052\H,3.265494065,1.605547189
 2,0.6051481827\H,1.9573545237,0.17915638,-0.0580324754\\Version=ES64L-
 G16RevA.03\State=1-A\HF=-507.0914017\RMSD=1.538e-09\RMSF=4.626e-05\Zer
 oPoint=0.0978672\Thermal=0.1068033\Dipole=0.0901674,4.050232,0.8090189
 \DipoleDeriv=-1.1283905,1.2235967,-0.0008026,1.1569672,-1.1022785,-0.0
 177079,0.0041023,-0.0145498,0.0410669,-0.5010768,-0.3087235,0.0209877,
 -0.7776097,0.3071942,0.0086034,0.0273454,-0.0130632,-0.2414571,-0.3312
 813,0.6225997,-0.0137225,-0.0050337,0.3343397,-0.0173803,0.0175306,-0.
 047481,-0.0264376,0.3122314,0.0155507,-0.0195638,0.5824133,-0.3821672,
 -0.013972,-0.0432894,0.01564,-0.0358531,0.3228657,-0.7704677,0.0054294
 ,-0.218352,-0.380693,0.0197697,-0.0144582,0.0431724,-0.2439429,0.15477
 37,-0.0301986,0.004326,0.0060729,0.0929961,0.0050036,0.003134,0.004368
 7,0.2062512,0.0892855,0.0042336,0.0058802,-0.0316971,0.1548076,0.00404
 17,0.0055121,0.0028876,0.2069168,0.5488982,0.0360414,-0.0041964,0.0516
 134,0.4582034,-0.0439823,0.0136858,-0.0520733,0.3997507,3.3688715,-0.1
 48685,-0.062663,-0.4609096,3.5928097,-0.0428868,-0.0781914,-0.0635531,
 0.6343943,-2.1283879,-0.6696097,0.0340879,-0.7863596,-1.5924505,0.0027
 093,0.0449072,0.0050185,-0.5494794,-0.9538014,-0.1961099,0.0089675,0.0
 048579,-2.2750373,0.0291162,0.0050129,0.0423566,-0.5695732,-1.0410901,
 -0.3006071,0.009957,-0.3396419,-1.2200091,0.0575156,-0.0093707,0.05702
 13,-0.6711603,0.4682411,0.0171952,-0.0019918,-0.0118822,0.4012589,-0.0
 321489,-0.0017393,-0.0216674,0.4003739,0.8188611,0.5051844,0.0133042,0
 .829561,1.611026,0.0413188,0.0258186,0.0419227,0.4491498\Polar=108.047
 5318,-7.0960788,115.2186556,-1.280809,-1.3053309,54.2287071\Quadrupole
 =7.6184598,-5.5634576,-2.0550022,0.8201427,4.8117018,2.8459713\PG=C01 
 [X(C3H5N3O3)]\NImag=0\\0.71086046,-0.05288748,0.72314746,-0.02799456,-
 0.02276061,0.11603248,-0.11132719,-0.01727077,0.00247644,0.65585947,-0
 .10763280,-0.25813219,0.01455458,-0.04462614,0.50126063,0.00712486,0.0
 1094832,-0.06931658,-0.02514401,-0.01700924,0.10544374,-0.05931793,0.0
 8928516,-0.00082718,-0.37956622,0.11719292,0.01070017,0.63436475,0.023
 37769,-0.08228949,0.00315911,0.11264727,-0.16955836,-0.00129626,-0.078
 68179,0.90808003,0.00242545,-0.00018871,0.01067706,0.01092381,-0.00139
 721,-0.07261494,-0.02211211,-0.03294405,0.14602739,-0.07765449,0.01836
 340,0.00389866,-0.07616959,0.02489190,0.00396454,-0.20412392,-0.110041
 14,0.01221916,0.90641274,0.08677622,-0.05086120,-0.00143095,-0.0667760
 4,0.05477895,0.00199999,-0.06240455,-0.21138689,0.01007985,-0.06389958
 ,0.62829890,0.00040323,0.00184841,0.00970453,0.00835846,-0.00285019,0.
 02163261,0.00998412,0.01271238,-0.07530786,-0.03779044,-0.01968542,0.1
 4700031,-0.24839217,-0.10946361,0.01459382,-0.08084350,-0.03590439,0.0
 0727015,0.05737595,0.03014159,-0.00337006,-0.17944495,0.12390003,-0.00
 016057,0.50825611,-0.02655034,-0.11803640,0.00308216,-0.01457393,-0.08
 118799,0.00561656,-0.06061067,-0.07646034,0.00784706,0.12073582,-0.371
 67626,0.00763374,-0.05547619,0.64007161,0.01035774,0.00720782,-0.07002
 532,0.00634665,0.00725325,0.02502461,0.00125360,0.00322103,0.02200369,
 0.00005913,0.00724804,-0.07238287,-0.01873101,-0.02190582,0.10589988,-
 0.00634721,0.00405484,0.00062818,0.00097895,0.03118276,-0.00195103,-0.
 06043517,0.02191703,0.00024377,0.01085406,-0.01652632,0.00024482,-0.00
 299419,-0.00574195,0.00072330,0.05679054,0.00019800,0.00198471,0.00035
 647,0.00001020,-0.00543134,-0.00010634,0.03136499,-0.37106960,0.014558
 91,0.00592430,-0.00427880,-0.00008996,-0.00073666,-0.00152289,0.000393
 00,-0.03684447,0.38051919,0.00084874,0.00003051,0.00937202,-0.00038804
 ,-0.00174389,-0.00684700,-0.00023955,0.01514351,-0.03472887,-0.0008492
 5,0.00106548,0.00025994,0.00047525,0.00062744,0.00549181,0.00025282,-0
 .01513738,0.02639950,0.00180612,0.00061877,0.00040084,-0.00133321,-0.0
 0067433,0.00039227,-0.00395656,0.00534524,-0.00002688,-0.37355678,0.01
 940633,0.01730236,-0.00660917,-0.00013608,-0.00003795,-0.00017618,-0.0
 0021666,-0.00004531,0.38395674,0.00461210,-0.00606809,0.00045920,-0.00
 584616,-0.00319177,0.00071195,-0.01737360,0.01021343,0.00045424,0.0100
 9441,-0.05883433,0.00063508,0.03088339,0.00215423,-0.00206632,0.000643
 40,-0.00015153,-0.00008549,-0.02438353,0.05466671,0.00009500,0.0007208
 9,0.00938151,0.00062777,0.00044431,0.00561405,0.00101563,-0.00075563,0
 .00019440,0.01779233,0.00015167,-0.03519634,-0.00142123,-0.00039574,-0
 .00700500,-0.00008790,-0.00004162,-0.00119485,-0.01806638,-0.00007621,
 0.02688603,0.00054916,-0.00160668,0.00027263,-0.00353907,0.00043157,0.
 00060993,-0.00069056,0.00110065,-0.00006182,0.00015483,0.00034847,-0.0
 0009885,0.00157497,0.00123132,-0.00028128,-0.00000017,0.00009435,0.000
 05575,0.00006989,0.00012071,-0.00001724,0.30223813,-0.00032524,-0.0011
 8795,0.00006243,0.00150939,-0.00123812,0.00112610,-0.00006107,0.000990
 23,-0.00009733,0.00040306,0.00015149,-0.00012622,0.00098841,0.00055262
 ,-0.00017539,0.00002761,-0.00002972,0.00005263,0.00005826,0.00011363,-
 0.00001656,-0.23972334,0.23287286,0.00022858,-0.00016758,-0.00014218,0
 .00041386,0.00071712,-0.00080448,-0.00001508,0.00015579,-0.00000097,0.
 00008648,0.00004989,0.00006783,0.00022183,0.00021341,0.00007230,-0.000
 00344,-0.00001289,-0.00003635,0.00001284,0.00002099,0.00000751,-0.0701
 4935,0.08538313,0.05483256,-0.14962072,0.03303792,0.00396944,0.0097140
 6,0.02808158,-0.00284287,0.02582246,-0.00862970,-0.00066997,-0.0050229
 0,-0.02948663,0.00197401,-0.05510507,0.02785398,0.00051828,0.00163277,
 -0.00016221,0.00001224,0.00001831,0.00065043,0.00013422,0.00222059,-0.
 00044402,0.00037005,0.64973425,0.02086834,-0.12701400,0.00191767,0.026
 24155,-0.05051773,0.00018109,-0.03160235,-0.00532195,0.00214093,-0.009
 49686,0.02750841,-0.00064419,0.03359147,0.00875082,-0.00279504,0.00038
 253,0.00011771,0.00014434,-0.00032257,0.00161101,-0.00002236,-0.001423
 18,-0.00170372,-0.00014591,0.19325162,0.91754526,0.00484628,0.00133716
 ,-0.04562170,-0.00293341,0.00022383,-0.01601571,0.00032888,0.00090795,
 0.00409508,0.00080316,0.00058419,0.00431894,0.00069022,-0.00259337,-0.
 01503172,0.00000040,0.00013237,0.00250603,0.00012855,0.00002051,0.0023
 4248,-0.00006209,0.00009911,0.00012035,-0.01907931,-0.01778420,0.21485
 585,-0.07183891,0.00674977,0.00314121,0.00014265,-0.01104900,0.0006864
 6,-0.00978891,-0.00017884,0.00058596,-0.00400631,0.00834792,-0.0001534
 3,0.00946761,0.00873518,-0.00070140,-0.00009823,0.00014198,0.00000994,
 -0.00011684,0.00079800,-0.00008151,-0.00351722,-0.00137987,-0.00018966
 ,-0.33173099,-0.04749008,0.01124848,0.49433461,0.02163669,0.01148645,-
 0.00073276,0.00292102,-0.00275737,-0.00008125,-0.00161557,0.00182975,-
 0.00006175,0.00259827,0.00192784,-0.00028433,0.00221710,-0.00277487,0.
 00029112,-0.00006452,-0.00002529,0.00000774,0.00015408,-0.00018344,-0.
 00002643,-0.00383589,0.00057484,-0.00023935,-0.07623978,-0.12930640,0.
 00173836,0.16641206,0.48242008,0.00258788,-0.00042823,0.01362881,-0.00
 037709,0.00048501,0.00030317,0.00046073,-0.00004218,0.00062816,-0.0000
 3836,-0.00045767,-0.00020986,-0.00023620,0.00016859,0.00522667,-0.0000
 0423,-0.00001476,-0.00028944,-0.00006387,-0.00006354,-0.00098118,0.000
 03145,0.00036629,0.00011823,0.01194209,0.00091383,-0.05915507,-0.01674
 066,0.00332997,0.03369888,0.01205861,0.02945950,-0.00052835,-0.0039443
 1,-0.00044904,0.00067079,-0.00052896,0.00358285,-0.00021532,0.00210122
 ,0.00143502,-0.00016989,-0.00188544,0.00618048,0.00015682,-0.00027049,
 0.00018810,-0.00006090,-0.00011735,-0.00005626,0.00000216,-0.00068524,
 0.00006889,-0.00007788,-0.13015872,-0.15097608,0.00434589,-0.04402104,
 -0.09078225,0.00269715,0.16793537,0.02315151,-0.09235439,0.00161070,0.
 00795121,0.01256420,-0.00114521,0.01254926,-0.00374032,-0.00041318,0.0
 0006219,-0.01360241,0.00068951,-0.01723413,0.00189521,0.00095399,0.000
 91410,-0.00010054,-0.00006271,0.00015974,-0.00007258,0.00000878,0.0001
 2765,0.00066880,0.00002715,-0.14170537,-0.63392780,0.01373068,-0.07942
 134,-0.06301127,0.00373084,0.19173067,0.77898128,-0.00071297,0.0013045
 6,0.01631566,0.00052985,-0.00017705,0.00591121,-0.00049177,-0.00017472
 ,-0.00059465,-0.00012987,0.00039151,-0.00001131,0.00072036,-0.00010111
 ,0.00137493,-0.00004649,-0.00005784,-0.00093998,-0.00000378,-0.0000033
 3,-0.00016995,0.00003158,-0.00004093,-0.00002266,0.00465408,0.01440771
 ,-0.08296543,0.00309868,0.00488441,0.01852440,-0.00787893,-0.01962581,
 0.03618833,-0.00144518,0.00175572,-0.00014113,-0.00772585,-0.00140992,
 -0.00115843,-0.00070820,-0.00166775,0.00013776,-0.00070048,0.00031931,
 0.00013397,-0.00110829,-0.00067744,0.00023396,-0.00000975,0.00005446,-
 0.00006694,-0.00009037,-0.00015185,0.00002281,-0.28634812,0.23879687,0
 .09301699,0.01123759,0.00304178,-0.00060796,-0.00973583,-0.03189273,-0
 .00039388,-0.00353982,-0.00433892,0.00026626,0.58504821,-0.00281052,0.
 00086473,0.00011757,-0.00197185,-0.00113554,-0.00042701,-0.00127081,-0
 .00013718,0.00008886,-0.00039117,0.00115509,0.00003186,0.00084477,0.00
 057770,-0.00004434,-0.00004119,0.00002108,-0.00001374,-0.00002382,0.00
 003742,-0.00000379,0.21946607,-0.22620024,-0.10834764,0.02355130,-0.00
 017031,-0.00161518,-0.04172421,-0.06104468,-0.00254605,-0.00818853,-0.
 00811628,0.00077664,-0.19452018,0.30745273,-0.00026809,0.00025730,0.00
 003006,-0.00200037,-0.00048973,0.00134597,-0.00012930,-0.00033355,0.00
 001659,-0.00017866,0.00002543,-0.00009534,-0.00026383,-0.00020770,-0.0
 0001025,-0.00000290,0.00003092,0.00004611,-0.00002090,-0.00003600,-0.0
 0000281,0.05868974,-0.08295412,-0.06044355,0.00088616,0.00027478,0.001
 04469,-0.00134173,-0.00490296,0.00684362,-0.00042391,-0.00050705,-0.00
 049950,0.17442801,0.14510601,0.33030021,-0.00002988,0.00003232,0.00003
 932,-0.00091957,-0.00020808,-0.00005003,0.00002257,-0.00017651,0.00002
 633,-0.00005723,-0.00008802,0.00000850,-0.00017458,-0.00011456,0.00001
 217,0.00000033,0.00000863,-0.00000423,-0.00000628,-0.00002049,0.000000
 22,-0.01913952,-0.00689976,-0.02419726,-0.00121228,-0.00017232,0.00014
 116,0.00154027,0.00205097,0.00014444,0.00036716,0.00038842,-0.00005280
 ,-0.27262269,-0.01257737,-0.22796131,0.29609908,0.00004971,0.00004445,
 -0.00001441,-0.00027392,0.00048533,0.00005869,-0.00013873,-0.00007985,
 0.00001480,-0.00004857,0.00007668,-0.00001693,0.00004704,0.00005908,0.
 00000850,0.00000044,-0.00000153,0.00000377,-0.00000274,-0.00000572,0.0
 0000067,0.02018964,0.00310793,0.02142658,0.00129097,0.00021036,0.00017
 336,-0.00125492,-0.00487060,0.00110303,-0.00045018,-0.00044151,-0.0000
 8819,-0.03794126,-0.04119086,-0.06220810,0.02210363,0.03588586,0.00004
 717,-0.00024411,0.00005890,0.00099110,0.00012952,0.00012268,0.00004855
 ,0.00019533,-0.00001284,0.00008827,-0.00001337,-0.00002046,0.00018297,
 0.00011662,-0.00004872,0.00000257,-0.00000661,0.00001030,0.00001367,0.
 00002210,-0.00000251,0.01135128,-0.00081632,0.00617746,-0.00076145,-0.
 00043503,0.00007647,0.00062936,0.00279679,0.00005151,0.00025144,0.0003
 7420,-0.00002472,-0.26681522,-0.04396222,-0.26339598,0.25387390,0.0464
 1771,0.25728873,0.00069935,-0.00212886,0.00007067,-0.00132662,0.000172
 97,-0.00027279,0.00153072,0.00126341,-0.00010607,0.00121381,-0.0013521
 6,-0.00003630,-0.00011727,-0.00085563,0.00009000,0.00007474,-0.0000250
 1,-0.00000052,0.00011169,0.00002945,-0.00001590,0.00711234,0.00698082,
 0.00028204,-0.02752935,-0.03589385,0.00014976,-0.03063086,0.00644054,-
 0.00000948,0.00268901,0.00566500,0.00001581,-0.01225123,0.01965752,-0.
 00141290,-0.00386737,-0.00357111,0.00009637,0.06229104,0.00953612,-0.0
 0158408,-0.00038117,0.00005816,0.00406128,-0.00057739,0.00336680,-0.00
 106946,-0.00008242,0.00080397,-0.00325747,0.00014626,-0.00379882,-0.00
 240254,0.00041016,0.00009573,-0.00003146,-0.00003222,0.00001731,-0.000
 28897,0.00001202,0.00347867,-0.00867265,0.00091931,-0.05105009,-0.0077
 8167,0.00304523,-0.00868664,-0.23426503,-0.00654514,0.01825685,0.02125
 761,-0.00149586,0.02863191,0.02788633,0.00594478,-0.00432686,0.0067204
 0,-0.00457463,0.00361689,0.19942771,0.00001069,0.00013429,-0.00009525,
 0.00017497,-0.00014032,0.00020068,0.00002332,0.00005130,-0.00038223,0.
 00007486,-0.00000865,0.00023987,0.00002829,-0.00010184,-0.00059001,0.0
 0000014,-0.00000430,-0.00004923,0.00001455,0.00000680,0.00012667,-0.00
 037174,-0.00286282,0.00005395,-0.00110696,0.00184640,-0.01057026,-0.00
 019173,-0.00671957,-0.01838791,0.00123092,0.00062810,0.00691366,0.0009
 4379,0.01083903,-0.01517982,-0.00198040,-0.00687949,-0.00028082,0.0011
 4931,0.00321106,0.03800070\\-0.00005221,-0.00003298,0.00002297,0.00001
 665,-0.00003659,-0.00002370,-0.00005107,0.00004296,0.00000164,0.000037
 21,0.00001279,0.00003408,-0.00003130,0.00004176,-0.00005086,0.00000833
 ,-0.00000186,0.00000757,-0.00000005,-0.00001606,0.00000363,-0.00004763
 ,-0.00004666,0.00000733,0.00009557,0.00011717,0.00000145,0.00004737,-0
 .00000069,-0.00005512,-0.00006240,-0.00011839,0.00000018,0.00008571,0.
 00007022,-0.00000974,-0.00001544,-0.00003990,-0.00000776,-0.00003074,0
 .00000823,0.00006833\\\@


 HAPPINESS IS NOT HAVING WHAT YOU WANT --
 HAPPINESS IS WANTING WHAT YOU HAVE!

              -- FROM MRS. SEVERN'S DESK
 Job cpu time:       0 days  0 hours 24 minutes 21.8 seconds.
 Elapsed time:       0 days  0 hours  1 minutes  1.5 seconds.
 File lengths (MBytes):  RWF=     90 Int=      0 D2E=      0 Chk=      8 Scr=      1
 Normal termination of Gaussian 16 at Wed Jul  5 13:52:06 2023.
