 Entering Gaussian System, Link 0=/opt/soft/g16b/g16/g16
 Initial command:
 /opt/soft/g16b/g16/l1.exe "/scratch/gongke2021/sidanzuo-TS/Gau-5092.inp" -scrdir="/scratch/gongke2021/sidanzuo-TS/"
 Entering Link 1 = /opt/soft/g16b/g16/l1.exe PID=      5093.
  
 Copyright (c) 1988,1990,1992,1993,1995,1998,2003,2009,2016,
            Gaussian, Inc.  All Rights Reserved.
  
 This is part of the Gaussian(R) 16 program.  It is based on
 the Gaussian(R) 09 system (copyright 2009, Gaussian, Inc.),
 the Gaussian(R) 03 system (copyright 2003, Gaussian, Inc.),
 the Gaussian(R) 98 system (copyright 1998, Gaussian, Inc.),
 the Gaussian(R) 94 system (copyright 1995, Gaussian, Inc.),
 the Gaussian 92(TM) system (copyright 1992, Gaussian, Inc.),
 the Gaussian 90(TM) system (copyright 1990, Gaussian, Inc.),
 the Gaussian 88(TM) system (copyright 1988, Gaussian, Inc.),
 the Gaussian 86(TM) system (copyright 1986, Carnegie Mellon
 University), and the Gaussian 82(TM) system (copyright 1983,
 Carnegie Mellon University). Gaussian is a federally registered
 trademark of Gaussian, Inc.
  
 This software contains proprietary and confidential information,
 including trade secrets, belonging to Gaussian, Inc.
  
 This software is provided under written license and may be
 used, copied, transmitted, or stored only in accord with that
 written license.
  
 The following legend is applicable only to US Government
 contracts under FAR:
  
                    RESTRICTED RIGHTS LEGEND
  
 Use, reproduction and disclosure by the US Government is
 subject to restrictions as set forth in subparagraphs (a)
 and (c) of the Commercial Computer Software - Restricted
 Rights clause in FAR 52.227-19.
  
 Gaussian, Inc.
 340 Quinnipiac St., Bldg. 40, Wallingford CT 06492
  
  
 ---------------------------------------------------------------
 Warning -- This program may not be used in any manner that
 competes with the business of Gaussian, Inc. or will provide
 assistance to any competitor of Gaussian, Inc.  The licensee
 of this program is prohibited from giving any competitor of
 Gaussian, Inc. access to this program.  By using this program,
 the user acknowledges that Gaussian, Inc. is engaged in the
 business of creating and licensing software in the field of
 computational chemistry and represents and warrants to the
 licensee that it is not a competitor of Gaussian, Inc. and that
 it will not use this program in any manner prohibited above.
 ---------------------------------------------------------------
  

 Cite this work as:
 Gaussian 16, Revision A.03,
 M. J. Frisch, G. W. Trucks, H. B. Schlegel, G. E. Scuseria, 
 M. A. Robb, J. R. Cheeseman, G. Scalmani, V. Barone, 
 G. A. Petersson, H. Nakatsuji, X. Li, M. Caricato, A. V. Marenich, 
 J. Bloino, B. G. Janesko, R. Gomperts, B. Mennucci, H. P. Hratchian, 
 J. V. Ortiz, A. F. Izmaylov, J. L. Sonnenberg, D. Williams-Young, 
 F. Ding, F. Lipparini, F. Egidi, J. Goings, B. Peng, A. Petrone, 
 T. Henderson, D. Ranasinghe, V. G. Zakrzewski, J. Gao, N. Rega, 
 G. Zheng, W. Liang, M. Hada, M. Ehara, K. Toyota, R. Fukuda, 
 J. Hasegawa, M. Ishida, T. Nakajima, Y. Honda, O. Kitao, H. Nakai, 
 T. Vreven, K. Throssell, J. A. Montgomery, Jr., J. E. Peralta, 
 F. Ogliaro, M. J. Bearpark, J. J. Heyd, E. N. Brothers, K. N. Kudin, 
 V. N. Staroverov, T. A. Keith, R. Kobayashi, J. Normand, 
 K. Raghavachari, A. P. Rendell, J. C. Burant, S. S. Iyengar, 
 J. Tomasi, M. Cossi, J. M. Millam, M. Klene, C. Adamo, R. Cammi, 
 J. W. Ochterski, R. L. Martin, K. Morokuma, O. Farkas, 
 J. B. Foresman, and D. J. Fox, Gaussian, Inc., Wallingford CT, 2016.
 
 ******************************************
 Gaussian 16:  ES64L-G16RevA.03 25-Dec-2016
                 5-Nov-2023 
 ******************************************
 %mem=10GB
 %nprocshared=20
 Will use up to   20 processors via shared memory.
 ----------------------------------------------------------------------
 # opt=(calcfc,ts,noeigentest) freq 6-31+g(d,p) scrf=(smd,solvent=water
 ) integral=grid=ultrafine m062x
 ----------------------------------------------------------------------
 1/5=1,10=4,11=1,18=20,26=6,38=1/1,3;
 2/9=110,12=2,17=6,18=5,40=1/2;
 3/5=1,6=6,7=111,11=2,25=1,30=1,70=32201,71=2,72=1,74=-55,75=-5,140=1/1,2,3;
 4//1;
 5/5=2,38=5,53=1/2;
 8/6=4,10=90,11=11/1;
 11/6=1,8=1,9=11,15=111,16=1/1,2,10;
 10/6=1,13=1/2;
 6/7=2,8=2,9=2,10=2,28=1/1;
 7/10=1,18=20,25=1/1,2,3,16;
 1/5=1,10=4,11=1,18=20,26=6/3(2);
 2/9=110/2;
 99//99;
 2/9=110/2;
 3/5=1,6=6,7=111,11=2,25=1,30=1,70=32205,71=1,72=1,74=-55,75=-5/1,2,3;
 4/5=5,16=3,69=1/1;
 5/5=2,38=5,53=1/2;
 7//1,2,3,16;
 1/5=1,11=1,18=20,26=6/3(-5);
 2/9=110/2;
 6/7=2,8=2,9=2,10=2,19=2,28=1/1;
 99/9=1/99;
 -------------------
 Title Card Required
 -------------------
 Symbolic Z-matrix:
 Charge = -1 Multiplicity = 2
 N                    -0.64759   0.95438  -0.00032 
 N                    -0.04582  -0.21629  -0.00047 
 N                    -0.8766   -1.20637  -0.00003 
 N                    -2.08281  -0.68133   0.00028 
 C                    -1.93362   0.6588    0.00014 
 C                     1.48153  -0.04454  -0.00003 
 O                     2.16666  -1.03215   0.0001 
 O                     1.66417   1.20384   0.00024 
 H                     0.37186   1.60859   0.00002 
 H                    -2.73617   1.37959   0.00033 
 
 Add virtual bond connecting atoms H9         and N1         Dist= 2.29D+00.
 Add virtual bond connecting atoms H9         and O8         Dist= 2.56D+00.

 GradGradGradGradGradGradGradGradGradGradGradGradGradGradGradGradGradGrad
 Berny optimization.
 Initialization pass.
                           ----------------------------
                           !    Initial Parameters    !
                           ! (Angstroms and Degrees)  !
 --------------------------                            --------------------------
 ! Name  Definition              Value          Derivative Info.                !
 --------------------------------------------------------------------------------
 ! R1    R(1,2)                  1.3163         calculate D2E/DX2 analytically  !
 ! R2    R(1,5)                  1.3196         calculate D2E/DX2 analytically  !
 ! R3    R(1,9)                  1.2113         calculate D2E/DX2 analytically  !
 ! R4    R(2,3)                  1.2925         calculate D2E/DX2 analytically  !
 ! R5    R(2,6)                  1.537          calculate D2E/DX2 analytically  !
 ! R6    R(3,4)                  1.3155         calculate D2E/DX2 analytically  !
 ! R7    R(4,5)                  1.3484         calculate D2E/DX2 analytically  !
 ! R8    R(5,10)                 1.0787         calculate D2E/DX2 analytically  !
 ! R9    R(6,7)                  1.202          calculate D2E/DX2 analytically  !
 ! R10   R(6,8)                  1.2617         calculate D2E/DX2 analytically  !
 ! R11   R(8,9)                  1.3542         calculate D2E/DX2 analytically  !
 ! A1    A(2,1,5)              104.261          calculate D2E/DX2 analytically  !
 ! A2    A(2,1,9)               95.4847         calculate D2E/DX2 analytically  !
 ! A3    A(5,1,9)              160.2542         calculate D2E/DX2 analytically  !
 ! A4    A(1,2,3)              112.7951         calculate D2E/DX2 analytically  !
 ! A5    A(1,2,6)              110.7886         calculate D2E/DX2 analytically  !
 ! A6    A(3,2,6)              136.4162         calculate D2E/DX2 analytically  !
 ! A7    A(2,3,4)              106.4773         calculate D2E/DX2 analytically  !
 ! A8    A(3,4,5)              107.1705         calculate D2E/DX2 analytically  !
 ! A9    A(1,5,4)              109.296          calculate D2E/DX2 analytically  !
 ! A10   A(1,5,10)             125.1284         calculate D2E/DX2 analytically  !
 ! A11   A(4,5,10)             125.5756         calculate D2E/DX2 analytically  !
 ! A12   A(2,6,7)              118.3338         calculate D2E/DX2 analytically  !
 ! A13   A(2,6,8)              104.7397         calculate D2E/DX2 analytically  !
 ! A14   A(7,6,8)              136.9265         calculate D2E/DX2 analytically  !
 ! A15   A(6,8,9)               99.0673         calculate D2E/DX2 analytically  !
 ! A16   A(1,9,8)              129.9197         calculate D2E/DX2 analytically  !
 ! D1    D(5,1,2,3)             -0.0054         calculate D2E/DX2 analytically  !
 ! D2    D(5,1,2,6)           -179.9613         calculate D2E/DX2 analytically  !
 ! D3    D(9,1,2,3)            179.9607         calculate D2E/DX2 analytically  !
 ! D4    D(9,1,2,6)              0.0049         calculate D2E/DX2 analytically  !
 ! D5    D(2,1,5,4)              0.0014         calculate D2E/DX2 analytically  !
 ! D6    D(2,1,5,10)          -179.9965         calculate D2E/DX2 analytically  !
 ! D7    D(9,1,5,4)           -179.8988         calculate D2E/DX2 analytically  !
 ! D8    D(9,1,5,10)             0.1033         calculate D2E/DX2 analytically  !
 ! D9    D(2,1,9,8)             -0.0042         calculate D2E/DX2 analytically  !
 ! D10   D(5,1,9,8)            179.8986         calculate D2E/DX2 analytically  !
 ! D11   D(1,2,3,4)              0.0073         calculate D2E/DX2 analytically  !
 ! D12   D(6,2,3,4)            179.9475         calculate D2E/DX2 analytically  !
 ! D13   D(1,2,6,7)            179.9883         calculate D2E/DX2 analytically  !
 ! D14   D(1,2,6,8)             -0.0051         calculate D2E/DX2 analytically  !
 ! D15   D(3,2,6,7)              0.0473         calculate D2E/DX2 analytically  !
 ! D16   D(3,2,6,8)           -179.946          calculate D2E/DX2 analytically  !
 ! D17   D(2,3,4,5)             -0.006          calculate D2E/DX2 analytically  !
 ! D18   D(3,4,5,1)              0.0029         calculate D2E/DX2 analytically  !
 ! D19   D(3,4,5,10)          -179.9992         calculate D2E/DX2 analytically  !
 ! D20   D(2,6,8,9)              0.0023         calculate D2E/DX2 analytically  !
 ! D21   D(7,6,8,9)           -179.9891         calculate D2E/DX2 analytically  !
 ! D22   D(6,8,9,1)              0.0011         calculate D2E/DX2 analytically  !
 --------------------------------------------------------------------------------
 Trust Radius=3.00D-01 FncErr=5.00D-06 GrdErr=5.00D-06 EigMax=2.50D+02 EigMin=1.00D-04
 Number of steps in this run=     59 maximum allowed number of steps=    100.
 Search for a saddle point of order  1.
 GradGradGradGradGradGradGradGradGradGradGradGradGradGradGradGradGradGrad

                          Input orientation:                          
 ---------------------------------------------------------------------
 Center     Atomic      Atomic             Coordinates (Angstroms)
 Number     Number       Type             X           Y           Z
 ---------------------------------------------------------------------
      1          7           0       -0.647591    0.954378   -0.000316
      2          7           0       -0.045824   -0.216293   -0.000470
      3          7           0       -0.876601   -1.206371   -0.000029
      4          7           0       -2.082809   -0.681327    0.000278
      5          6           0       -1.933621    0.658803    0.000137
      6          6           0        1.481529   -0.044537   -0.000029
      7          8           0        2.166658   -1.032147    0.000104
      8          8           0        1.664171    1.203836    0.000241
      9          1           0        0.371863    1.608593    0.000019
     10          1           0       -2.736165    1.379589    0.000326
 ---------------------------------------------------------------------
                    Distance matrix (angstroms):
                    1          2          3          4          5
     1  N    0.000000
     2  N    1.316280   0.000000
     3  N    2.172851   1.292457   0.000000
     4  N    2.176093   2.089393   1.315526   0.000000
     5  C    1.319560   2.080762   2.143867   1.348409   0.000000
     6  C    2.351804   1.536980   2.628809   3.620774   3.486823
     7  O    3.444747   2.358113   3.048242   4.263924   4.435268
     8  O    2.325182   2.222802   3.502088   4.194484   3.638842
     9  H    1.211315   1.872077   3.079397   3.356955   2.493463
    10  H    2.131419   3.128062   3.185148   2.162001   1.078707
                    6          7          8          9         10
     6  C    0.000000
     7  O    1.201988   0.000000
     8  O    1.261663   2.291749   0.000000
     9  H    1.991029   3.192929   1.354211   0.000000
    10  H    4.451638   5.463895   4.403844   3.116453   0.000000
 Stoichiometry    C2H2N4O2(1-,2)
 Framework group  C1[X(C2H2N4O2)]
 Deg. of freedom    24
 Full point group                 C1      NOp   1
 Largest Abelian subgroup         C1      NOp   1
 Largest concise Abelian subgroup C1      NOp   1
                         Standard orientation:                         
 ---------------------------------------------------------------------
 Center     Atomic      Atomic             Coordinates (Angstroms)
 Number     Number       Type             X           Y           Z
 ---------------------------------------------------------------------
      1          7           0       -0.647591    0.954378   -0.000316
      2          7           0       -0.045824   -0.216293   -0.000470
      3          7           0       -0.876601   -1.206371   -0.000029
      4          7           0       -2.082809   -0.681327    0.000278
      5          6           0       -1.933621    0.658803    0.000137
      6          6           0        1.481529   -0.044537   -0.000029
      7          8           0        2.166658   -1.032147    0.000104
      8          8           0        1.664171    1.203836    0.000241
      9          1           0        0.371863    1.608593    0.000019
     10          1           0       -2.736165    1.379589    0.000326
 ---------------------------------------------------------------------
 Rotational constants (GHZ):           5.6069802           1.8331279           1.3814735
 Standard basis: 6-31+G(d,p) (6D, 7F)
 There are   162 symmetry adapted cartesian basis functions of A   symmetry.
 There are   162 symmetry adapted basis functions of A   symmetry.
   162 basis functions,   270 primitive gaussians,   162 cartesian basis functions
    30 alpha electrons       29 beta electrons
       nuclear repulsion energy       368.2911008435 Hartrees.
 NAtoms=   10 NActive=   10 NUniq=   10 SFac= 1.00D+00 NAtFMM=   60 NAOKFM=F Big=F
 Integral buffers will be    131072 words long.
 Raffenetti 2 integral format.
 Two-electron integral symmetry is turned on.
 Force inversion solution in PCM.
 ------------------------------------------------------------------------------
 Polarizable Continuum Model (PCM)
 =================================
 Model                : PCM.
 Atomic radii         : SMD-Coulomb.
 Polarization charges : Total charges.
 Charge compensation  : None.
 Solution method      : Matrix inversion.
 Cavity type          : VdW (van der Waals Surface) (Alpha=1.000).
 Cavity algorithm     : GePol (No added spheres)
                        Default sphere list used, NSphG=   10.
                        Lebedev-Laikov grids with approx.  5.0 points / Ang**2.
                        Smoothing algorithm: York/Karplus (Gamma=1.0000).
                        Polarization charges: spherical gaussians, with
                                              point-specific exponents (IZeta= 3).
                        Self-potential: point-specific (ISelfS= 7).
                        Self-field    : sphere-specific E.n sum rule (ISelfD= 2).
 1st derivatives      : Analytical E(r).r(x)/FMM algorithm (CHGder, D1EAlg=3).
                        Cavity 1st derivative terms included.
 2nd derivatives      : Analytical E(r).r(xy)/FMM algorithm (CHGder, D2EAlg=3).
                        Cavity 2nd derivative terms included.
 Solvent              : Water, Eps=  78.355300 Eps(inf)=   1.777849
 ------------------------------------------------------------------------------
 Spheres list:
 ISph  on   Nord     Re0    Alpha      Xe            Ye            Ze
    1   N      1    1.8900  1.000     -0.647591      0.954378     -0.000316
    2   N      2    1.8900  1.000     -0.045824     -0.216293     -0.000470
    3   N      3    1.8900  1.000     -0.876601     -1.206371     -0.000029
    4   N      4    1.8900  1.000     -2.082809     -0.681327      0.000278
    5   C      5    1.8500  1.000     -1.933621      0.658803      0.000137
    6   C      6    1.8500  1.000      1.481529     -0.044537     -0.000029
    7   O      7    1.5200  1.000      2.166658     -1.032147      0.000104
    8   O      8    1.5200  1.000      1.664171      1.203836      0.000241
    9   H      9    1.2000  1.000      0.371863      1.608593      0.000019
   10   H     10    1.2000  1.000     -2.736165      1.379589      0.000326
 ------------------------------------------------------------------------------
 ------------------------------------------------------------------------------
 Atomic radii for non-electrostatic terms: SMD-CDS.
 ------------------------------------------------------------------------------
 Nuclear repulsion after PCM non-electrostatic terms =      368.2969852270 Hartrees.
 One-electron integrals computed using PRISM.
 NBasis=   162 RedAO= T EigKep=  3.41D-05  NBF=   162
 NBsUse=   162 1.00D-06 EigRej= -1.00D+00 NBFU=   162
 ExpMin= 4.38D-02 ExpMax= 5.48D+03 ExpMxC= 8.25D+02 IAcc=3 IRadAn=         5 AccDes= 0.00D+00
 Harris functional with IExCor= 1009 and IRadAn=       5 diagonalized for initial guess.
 HarFok:  IExCor= 1009 AccDes= 0.00D+00 IRadAn=         5 IDoV= 1 UseB2=F ITyADJ=14
 ICtDFT=  3500011 ScaDFX=  1.000000  1.000000  1.000000  1.000000
 FoFCou: FMM=F IPFlag=           0 FMFlag=      100000 FMFlg1=           0
         NFxFlg=           0 DoJE=T BraDBF=F KetDBF=T FulRan=T
         wScrn=  0.000000 ICntrl=       500 IOpCl=  0 I1Cent=   200000004 NGrid=           0
         NMat0=    1 NMatS0=      1 NMatT0=    0 NMatD0=    1 NMtDS0=    0 NMtDT0=    0
 Petite list used in FoFCou.
 Initial guess <Sx>= 0.0000 <Sy>= 0.0000 <Sz>= 0.5000 <S**2>= 0.7500 S= 0.5000
 Keep R1 and R2 ints in memory in canonical form, NReq=194097766.
 Requested convergence on RMS density matrix=1.00D-08 within 128 cycles.
 Requested convergence on MAX density matrix=1.00D-06.
 Requested convergence on             energy=1.00D-06.
 No special actions if energy rises.
 Inv3:  Mode=1 IEnd=     2822700.
 Iteration    1 A*A^-1 deviation from unit magnitude is 3.44D-15 for    950.
 Iteration    1 A*A^-1 deviation from orthogonality  is 1.88D-15 for    950      5.
 Iteration    1 A^-1*A deviation from unit magnitude is 3.44D-15 for    950.
 Iteration    1 A^-1*A deviation from orthogonality  is 8.66D-16 for    520    500.
 Error on total polarization charges =  0.04425
 SCF Done:  E(UM062X) =  -446.749878625     A.U. after   19 cycles
            NFock= 19  Conv=0.53D-08     -V/T= 2.0072
 <Sx>= 0.0000 <Sy>= 0.0000 <Sz>= 0.5000 <S**2>= 0.7606 S= 0.5053
 <L.S>= 0.000000000000E+00
 SMD-CDS (non-electrostatic) energy       (kcal/mol) =       3.69
 (included in total energy above)
 Annihilation of the first spin contaminant:
 S**2 before annihilation     0.7606,   after     0.7500
 DoSCS=F DFT=T ScalE2(SS,OS)=  1.000000  1.000000
 Range of M.O.s used for correlation:     1   162
 NBasis=   162 NAE=    30 NBE=    29 NFC=     0 NFV=     0
 NROrb=    162 NOA=    30 NOB=    29 NVA=   132 NVB=   133

 **** Warning!!: The largest alpha MO coefficient is  0.58088815D+02


 **** Warning!!: The largest beta MO coefficient is  0.67110792D+02

 Symmetrizing basis deriv contribution to polar:
 IMax=3 JMax=2 DiffMx= 0.00D+00
 G2DrvN: will do    11 centers at a time, making    1 passes.
 Calling FoFCou, ICntrl=  3107 FMM=F I1Cent=   0 AccDes= 0.00D+00.
 NEqPCM:  Using equilibrium solvation (IEInf=0, Eps=  78.3553, EpsInf=   1.7778)
 G2PCM: DoFxE=T DoFxN=T DoGrad=T DoDP/DQ/DG/TGxP=FFFF NFrqRd=   0 IEInf=0 SqF1=F DoCFld=F IF1Alg=4.
 End of G2Drv F.D. properties file   721 does not exist.
 End of G2Drv F.D. properties file   722 does not exist.
 End of G2Drv F.D. properties file   788 does not exist.
          IDoAtm=1111111111
 NEqPCM:  Using equilibrium solvation (IEInf=0, Eps=  78.3553, EpsInf=   1.7778)
          Differentiating once with respect to nuclear coordinates.
 Keep R1 and R2 ints in memory in canonical form, NReq=194037667.
          There are    33 degrees of freedom in the 1st order CPHF.  IDoFFX=6 NUNeed=     0.
     27 vectors produced by pass  0 Test12= 2.37D-14 3.03D-09 XBig12= 3.60D-01 1.09D-01.
 AX will form    27 AO Fock derivatives at one time.
     27 vectors produced by pass  1 Test12= 2.37D-14 3.03D-09 XBig12= 3.69D-02 6.61D-02.
     27 vectors produced by pass  2 Test12= 2.37D-14 3.03D-09 XBig12= 2.66D-03 1.17D-02.
     27 vectors produced by pass  3 Test12= 2.37D-14 3.03D-09 XBig12= 5.97D-05 1.50D-03.
     27 vectors produced by pass  4 Test12= 2.37D-14 3.03D-09 XBig12= 1.09D-06 1.85D-04.
     27 vectors produced by pass  5 Test12= 2.37D-14 3.03D-09 XBig12= 1.48D-08 1.97D-05.
     27 vectors produced by pass  6 Test12= 2.37D-14 3.03D-09 XBig12= 1.50D-10 2.39D-06.
     24 vectors produced by pass  7 Test12= 2.37D-14 3.03D-09 XBig12= 1.23D-12 2.06D-07.
     10 vectors produced by pass  8 Test12= 2.37D-14 3.03D-09 XBig12= 1.01D-14 1.09D-08.
 InvSVY:  IOpt=1 It=  1 EMax= 2.00D-15
 Solved reduced A of dimension   223 with    27 vectors.
 End of Minotr F.D. properties file   721 does not exist.
 End of Minotr F.D. properties file   722 does not exist.
 End of Minotr F.D. properties file   788 does not exist.

 **********************************************************************

            Population analysis using the SCF density.

 **********************************************************************

 Orbital symmetries:
 Alpha Orbitals:
       Occupied  (A) (A) (A) (A) (A) (A) (A) (A) (A) (A) (A) (A)
                 (A) (A) (A) (A) (A) (A) (A) (A) (A) (A) (A) (A)
                 (A) (A) (A) (A) (A) (A)
       Virtual   (A) (A) (A) (A) (A) (A) (A) (A) (A) (A) (A) (A)
                 (A) (A) (A) (A) (A) (A) (A) (A) (A) (A) (A) (A)
                 (A) (A) (A) (A) (A) (A) (A) (A) (A) (A) (A) (A)
                 (A) (A) (A) (A) (A) (A) (A) (A) (A) (A) (A) (A)
                 (A) (A) (A) (A) (A) (A) (A) (A) (A) (A) (A) (A)
                 (A) (A) (A) (A) (A) (A) (A) (A) (A) (A) (A) (A)
                 (A) (A) (A) (A) (A) (A) (A) (A) (A) (A) (A) (A)
                 (A) (A) (A) (A) (A) (A) (A) (A) (A) (A) (A) (A)
                 (A) (A) (A) (A) (A) (A) (A) (A) (A) (A) (A) (A)
                 (A) (A) (A) (A) (A) (A) (A) (A) (A) (A) (A) (A)
                 (A) (A) (A) (A) (A) (A) (A) (A) (A) (A) (A) (A)
 Beta  Orbitals:
       Occupied  (A) (A) (A) (A) (A) (A) (A) (A) (A) (A) (A) (A)
                 (A) (A) (A) (A) (A) (A) (A) (A) (A) (A) (A) (A)
                 (A) (A) (A) (A) (A)
       Virtual   (A) (A) (A) (A) (A) (A) (A) (A) (A) (A) (A) (A)
                 (A) (A) (A) (A) (A) (A) (A) (A) (A) (A) (A) (A)
                 (A) (A) (A) (A) (A) (A) (A) (A) (A) (A) (A) (A)
                 (A) (A) (A) (A) (A) (A) (A) (A) (A) (A) (A) (A)
                 (A) (A) (A) (A) (A) (A) (A) (A) (A) (A) (A) (A)
                 (A) (A) (A) (A) (A) (A) (A) (A) (A) (A) (A) (A)
                 (A) (A) (A) (A) (A) (A) (A) (A) (A) (A) (A) (A)
                 (A) (A) (A) (A) (A) (A) (A) (A) (A) (A) (A) (A)
                 (A) (A) (A) (A) (A) (A) (A) (A) (A) (A) (A) (A)
                 (A) (A) (A) (A) (A) (A) (A) (A) (A) (A) (A) (A)
                 (A) (A) (A) (A) (A) (A) (A) (A) (A) (A) (A) (A)
                 (A)
 The electronic state is 2-A.
 Alpha  occ. eigenvalues --  -19.64754 -19.63326 -14.84113 -14.80415 -14.78845
 Alpha  occ. eigenvalues --  -14.77835 -10.70561 -10.60516  -1.27411  -1.21169
 Alpha  occ. eigenvalues --   -1.14229  -1.04420  -0.97673  -0.77146  -0.74297
 Alpha  occ. eigenvalues --   -0.66652  -0.63902  -0.59626  -0.55153  -0.53817
 Alpha  occ. eigenvalues --   -0.52108  -0.50657  -0.44292  -0.40272  -0.37996
 Alpha  occ. eigenvalues --   -0.37903  -0.37035  -0.36747  -0.34713  -0.14344
 Alpha virt. eigenvalues --    0.02344   0.04437   0.04535   0.05081   0.06563
 Alpha virt. eigenvalues --    0.06630   0.06938   0.09970   0.10195   0.10305
 Alpha virt. eigenvalues --    0.10861   0.15552   0.15600   0.16826   0.19505
 Alpha virt. eigenvalues --    0.19785   0.20640   0.21878   0.22129   0.22394
 Alpha virt. eigenvalues --    0.23289   0.24101   0.24532   0.25741   0.26412
 Alpha virt. eigenvalues --    0.27416   0.28349   0.29652   0.29943   0.30638
 Alpha virt. eigenvalues --    0.30964   0.32487   0.33517   0.33900   0.35255
 Alpha virt. eigenvalues --    0.36745   0.37602   0.40891   0.44242   0.48387
 Alpha virt. eigenvalues --    0.49073   0.52117   0.55863   0.70193   0.72960
 Alpha virt. eigenvalues --    0.79549   0.81964   0.85490   0.88472   0.91562
 Alpha virt. eigenvalues --    0.92948   0.95141   0.95388   0.96775   0.97975
 Alpha virt. eigenvalues --    1.00605   1.01272   1.02984   1.06865   1.08388
 Alpha virt. eigenvalues --    1.13597   1.19069   1.23173   1.23703   1.24827
 Alpha virt. eigenvalues --    1.27122   1.28759   1.29520   1.32825   1.34885
 Alpha virt. eigenvalues --    1.37833   1.38880   1.40307   1.40661   1.40690
 Alpha virt. eigenvalues --    1.45463   1.49822   1.50873   1.52346   1.59784
 Alpha virt. eigenvalues --    1.60008   1.64224   1.68352   1.73572   1.73849
 Alpha virt. eigenvalues --    1.81107   1.84174   1.89069   1.95258   1.98069
 Alpha virt. eigenvalues --    2.00427   2.01618   2.07020   2.08794   2.14598
 Alpha virt. eigenvalues --    2.15856   2.18894   2.29035   2.31414   2.33003
 Alpha virt. eigenvalues --    2.34680   2.40029   2.41705   2.48559   2.48567
 Alpha virt. eigenvalues --    2.53841   2.58989   2.63241   2.66874   2.72420
 Alpha virt. eigenvalues --    2.76997   2.81366   2.84658   2.84688   2.85928
 Alpha virt. eigenvalues --    2.96905   3.04216   3.14122   3.18755   3.20060
 Alpha virt. eigenvalues --    3.27925   3.33353   3.50560   3.71878   4.02471
 Alpha virt. eigenvalues --    4.11949   4.18087   4.28575   4.40119   4.58292
 Alpha virt. eigenvalues --    4.64051   4.78817
  Beta  occ. eigenvalues --  -19.64704 -19.63179 -14.83756 -14.80033 -14.78222
  Beta  occ. eigenvalues --  -14.77836 -10.70516 -10.60512  -1.26356  -1.20742
  Beta  occ. eigenvalues --   -1.13866  -1.03250  -0.96626  -0.76121  -0.73436
  Beta  occ. eigenvalues --   -0.65821  -0.63488  -0.57241  -0.54844  -0.53397
  Beta  occ. eigenvalues --   -0.50902  -0.50109  -0.43842  -0.37774  -0.36878
  Beta  occ. eigenvalues --   -0.36557  -0.35548  -0.34118  -0.33647
  Beta virt. eigenvalues --    0.02068   0.02393   0.04315   0.04549   0.04778
  Beta virt. eigenvalues --    0.06476   0.06883   0.07423   0.10187   0.10199
  Beta virt. eigenvalues --    0.10773   0.13086   0.14976   0.15229   0.16598
  Beta virt. eigenvalues --    0.19643   0.19752   0.20541   0.21771   0.21791
  Beta virt. eigenvalues --    0.22651   0.23082   0.23521   0.24540   0.25724
  Beta virt. eigenvalues --    0.26517   0.27038   0.28440   0.29576   0.29816
  Beta virt. eigenvalues --    0.30377   0.30889   0.32571   0.33419   0.33697
  Beta virt. eigenvalues --    0.35100   0.36849   0.37529   0.40549   0.44025
  Beta virt. eigenvalues --    0.48682   0.49429   0.52474   0.56168   0.70500
  Beta virt. eigenvalues --    0.73094   0.79905   0.82122   0.85551   0.88536
  Beta virt. eigenvalues --    0.91627   0.93021   0.95218   0.96852   0.98120
  Beta virt. eigenvalues --    0.98700   1.01397   1.02809   1.03487   1.07002
  Beta virt. eigenvalues --    1.08349   1.13816   1.19329   1.23678   1.23736
  Beta virt. eigenvalues --    1.24806   1.27151   1.28906   1.30234   1.33286
  Beta virt. eigenvalues --    1.35099   1.37976   1.38943   1.40753   1.41092
  Beta virt. eigenvalues --    1.41845   1.45563   1.50416   1.51363   1.52567
  Beta virt. eigenvalues --    1.60593   1.61234   1.64493   1.68545   1.73728
  Beta virt. eigenvalues --    1.74261   1.81454   1.84377   1.89330   1.95477
  Beta virt. eigenvalues --    1.98245   2.00886   2.01795   2.07099   2.09043
  Beta virt. eigenvalues --    2.14989   2.15920   2.19173   2.29483   2.31782
  Beta virt. eigenvalues --    2.33463   2.35149   2.40563   2.41976   2.48856
  Beta virt. eigenvalues --    2.49012   2.54188   2.59896   2.63647   2.67363
  Beta virt. eigenvalues --    2.72867   2.77519   2.81944   2.85009   2.85311
  Beta virt. eigenvalues --    2.86314   2.97216   3.04502   3.14248   3.19002
  Beta virt. eigenvalues --    3.20275   3.28090   3.33400   3.50526   3.71782
  Beta virt. eigenvalues --    4.02655   4.11945   4.18126   4.28522   4.40077
  Beta virt. eigenvalues --    4.58766   4.64622   4.78703
          Condensed to atoms (all electrons):
               1          2          3          4          5          6
     1  N    7.627223  -0.385361   0.102083  -0.244897   0.231836  -0.023197
     2  N   -0.385361   8.072232  -0.860517   0.375438  -0.176651   0.184960
     3  N    0.102083  -0.860517   8.329353  -0.287035   0.115310  -0.027977
     4  N   -0.244897   0.375438  -0.287035   7.242540   0.348462  -0.007540
     5  C    0.231836  -0.176651   0.115310   0.348462   5.111589  -0.013786
     6  C   -0.023197   0.184960  -0.027977  -0.007540  -0.013786   4.381138
     7  O    0.038433  -0.099108  -0.048645   0.005631  -0.007454   0.390689
     8  O   -0.062809  -0.095831  -0.000633   0.001520  -0.013448   0.307075
     9  H    0.199471  -0.016960   0.001132   0.001849   0.012069  -0.016578
    10  H   -0.053663  -0.004588   0.016810  -0.037590   0.417670  -0.000266
               7          8          9         10
     1  N    0.038433  -0.062809   0.199471  -0.053663
     2  N   -0.099108  -0.095831  -0.016960  -0.004588
     3  N   -0.048645  -0.000633   0.001132   0.016810
     4  N    0.005631   0.001520   0.001849  -0.037590
     5  C   -0.007454  -0.013448   0.012069   0.417670
     6  C    0.390689   0.307075  -0.016578  -0.000266
     7  O    8.476756  -0.098145   0.002542   0.000001
     8  O   -0.098145   8.564418   0.089447  -0.000683
     9  H    0.002542   0.089447   0.244122   0.000381
    10  H    0.000001  -0.000683   0.000381   0.431739
          Atomic-Atomic Spin Densities.
               1          2          3          4          5          6
     1  N    0.614034  -0.304286   0.126414  -0.054399  -0.163912  -0.029384
     2  N   -0.304286   0.670042  -0.401537   0.083011   0.087110   0.103746
     3  N    0.126414  -0.401537   0.956401  -0.200770  -0.059743  -0.027908
     4  N   -0.054399   0.083011  -0.200770   0.095782   0.084537   0.004205
     5  C   -0.163912   0.087110  -0.059743   0.084537   0.082190   0.002216
     6  C   -0.029384   0.103746  -0.027908   0.004205   0.002216   0.115670
     7  O    0.010067  -0.041611   0.018453  -0.001670  -0.001889  -0.050700
     8  O    0.029347  -0.036438   0.006219  -0.001667  -0.004033  -0.031653
     9  H   -0.002257  -0.003676   0.002411  -0.000767   0.000269   0.000400
    10  H   -0.002463   0.002149  -0.001133   0.001445   0.000590  -0.000018
               7          8          9         10
     1  N    0.010067   0.029347  -0.002257  -0.002463
     2  N   -0.041611  -0.036438  -0.003676   0.002149
     3  N    0.018453   0.006219   0.002411  -0.001133
     4  N   -0.001670  -0.001667  -0.000767   0.001445
     5  C   -0.001889  -0.004033   0.000269   0.000590
     6  C   -0.050700  -0.031653   0.000400  -0.000018
     7  O    0.120888   0.009526   0.000051   0.000001
     8  O    0.009526   0.048124   0.002668   0.000002
     9  H    0.000051   0.002668  -0.006280   0.000015
    10  H    0.000001   0.000002   0.000015  -0.002730
 Mulliken charges and spin densities:
               1          2
     1  N   -0.429118   0.223162
     2  N    0.006388   0.158511
     3  N   -0.339880   0.418806
     4  N   -0.398378   0.009708
     5  C   -0.025598   0.027336
     6  C    0.825481   0.086575
     7  O   -0.660699   0.063116
     8  O   -0.690911   0.022094
     9  H    0.482525  -0.007166
    10  H    0.230190  -0.002141
 Sum of Mulliken charges =  -1.00000   1.00000
 Mulliken charges and spin densities with hydrogens summed into heavy atoms:
               1          2
     1  N    0.053407   0.215995
     2  N    0.006388   0.158511
     3  N   -0.339880   0.418806
     4  N   -0.398378   0.009708
     5  C    0.204592   0.025194
     6  C    0.825481   0.086575
     7  O   -0.660699   0.063116
     8  O   -0.690911   0.022094
 APT charges:
               1
     1  N   -0.316442
     2  N   -0.501582
     3  N   -0.065855
     4  N   -0.508436
     5  C   -0.308204
     6  C    0.487232
     7  O   -0.436517
     8  O   -0.613267
     9  H    0.507078
    10  H    0.755993
 Sum of APT charges =  -1.00000
 APT charges with hydrogens summed into heavy atoms:
               1
     1  N    0.190635
     2  N   -0.501582
     3  N   -0.065855
     4  N   -0.508436
     5  C    0.447789
     6  C    0.487232
     7  O   -0.436517
     8  O   -0.613267
 Electronic spatial extent (au):  <R**2>=            804.6197
 Charge=             -1.0000 electrons
 Dipole moment (field-independent basis, Debye):
    X=             -3.8235    Y=              6.2792    Z=             -0.0006  Tot=              7.3517
 Quadrupole moment (field-independent basis, Debye-Ang):
   XX=            -69.5445   YY=            -57.2206   ZZ=            -47.6794
   XY=             -6.9858   XZ=             -0.0015   YZ=              0.0014
 Traceless Quadrupole moment (field-independent basis, Debye-Ang):
   XX=            -11.3964   YY=              0.9276   ZZ=             10.4688
   XY=             -6.9858   XZ=             -0.0015   YZ=              0.0014
 Octapole moment (field-independent basis, Debye-Ang**2):
  XXX=            -18.3272  YYY=             21.9964  ZZZ=             -0.0003  XYY=             -7.5305
  XXY=             27.7241  XXZ=             -0.0069  XZZ=              5.4338  YZZ=              1.4365
  YYZ=             -0.0000  XYZ=             -0.0043
 Hexadecapole moment (field-independent basis, Debye-Ang**3):
 XXXX=           -861.7271 YYYY=           -293.2854 ZZZZ=            -47.9874 XXXY=            -47.5844
 XXXZ=             -0.0036 YYYX=            -19.3144 YYYZ=              0.0044 ZZZX=              0.0032
 ZZZY=              0.0020 XXYY=           -199.3845 XXZZ=           -136.5512 YYZZ=            -57.9645
 XXYZ=              0.0077 YYXZ=             -0.0036 ZZXY=             -1.7832
 N-N= 3.682969852270D+02 E-N=-1.793371068389D+03  KE= 4.435523574588D+02
  Exact polarizability:   0.000   0.000   0.000   0.000   0.000   0.000
 Approx polarizability: 100.607  -1.000  89.829  -0.000  -0.003  46.844
                          Isotropic Fermi Contact Couplings
        Atom                 a.u.       MegaHertz       Gauss      10(-4) cm-1
     1  N(14)              0.05751      18.58049       6.62998       6.19779
     2  N(14)              0.03462      11.18747       3.99197       3.73174
     3  N(14)              0.10971      35.44921      12.64916      11.82458
     4  N(14)             -0.00530      -1.71360      -0.61145      -0.57160
     5  C(13)             -0.00176      -1.98371      -0.70784      -0.66169
     6  C(13)              0.00780       8.76890       3.12896       2.92499
     7  O(17)              0.01688     -10.23000      -3.65032      -3.41236
     8  O(17)              0.00368      -2.23047      -0.79589      -0.74401
     9  H(1)              -0.00321     -14.35860      -5.12351      -4.78951
    10  H(1)              -0.00083      -3.72692      -1.32986      -1.24317
 --------------------------------------------------------
       Center         ----  Spin Dipole Couplings  ----
                      3XX-RR        3YY-RR        3ZZ-RR
 --------------------------------------------------------
     1   Atom       -0.291585     -0.273254      0.564838
     2   Atom       -0.272734     -0.278621      0.551355
     3   Atom       -0.471270     -0.469969      0.941238
     4   Atom       -0.020498     -0.017341      0.037839
     5   Atom       -0.003778     -0.011204      0.014982
     6   Atom       -0.039313     -0.058114      0.097427
     7   Atom       -0.139898     -0.143184      0.283082
     8   Atom       -0.058331     -0.062639      0.120970
     9   Atom        0.008885      0.001904     -0.010789
    10   Atom        0.002514      0.001853     -0.004367
 --------------------------------------------------------
                        XY            XZ            YZ
 --------------------------------------------------------
     1   Atom       -0.001240      0.000136     -0.000150
     2   Atom        0.006205     -0.000013      0.000121
     3   Atom       -0.000638      0.000375      0.000180
     4   Atom       -0.002768      0.000004      0.000061
     5   Atom       -0.002632     -0.000032     -0.000013
     6   Atom       -0.001547     -0.000216     -0.000057
     7   Atom        0.001758     -0.000303     -0.000103
     8   Atom        0.004135     -0.000055     -0.000173
     9   Atom        0.017755      0.000002      0.000003
    10   Atom       -0.007034     -0.000004      0.000002
 --------------------------------------------------------


 ---------------------------------------------------------------------------------
              Anisotropic Spin Dipole Couplings in Principal Axis System
 ---------------------------------------------------------------------------------

       Atom             a.u.   MegaHertz   Gauss  10(-4) cm-1        Axes

              Baa    -0.2917   -11.249    -4.014    -3.752  0.9977  0.0672 -0.0001
     1 N(14)  Bbb    -0.2732   -10.536    -3.759    -3.514 -0.0672  0.9977  0.0002
              Bcc     0.5648    21.785     7.773     7.267  0.0002 -0.0002  1.0000
 
              Baa    -0.2825   -10.897    -3.888    -3.635 -0.5345  0.8452 -0.0001
     2 N(14)  Bbb    -0.2688   -10.367    -3.699    -3.458  0.8452  0.5345 -0.0001
              Bcc     0.5514    21.265     7.588     7.093 -0.0000  0.0001  1.0000
 
              Baa    -0.4715   -18.186    -6.489    -6.066  0.9257  0.3784 -0.0003
     3 N(14)  Bbb    -0.4697   -18.116    -6.464    -6.043 -0.3784  0.9257 -0.0000
              Bcc     0.9412    36.301    12.953    12.109  0.0003  0.0001  1.0000
 
              Baa    -0.0221    -0.853    -0.304    -0.284  0.8647  0.5024 -0.0006
     4 N(14)  Bbb    -0.0157    -0.607    -0.217    -0.202 -0.5024  0.8647 -0.0009
              Bcc     0.0378     1.459     0.521     0.487  0.0000  0.0011  1.0000
 
              Baa    -0.0120    -1.616    -0.577    -0.539  0.3035  0.9528  0.0008
     5 C(13)  Bbb    -0.0029    -0.394    -0.141    -0.132  0.9528 -0.3035  0.0015
              Bcc     0.0150     2.010     0.717     0.671 -0.0016 -0.0003  1.0000
 
              Baa    -0.0582    -7.815    -2.789    -2.607  0.0815  0.9967  0.0005
     6 C(13)  Bbb    -0.0392    -5.259    -1.876    -1.754  0.9967 -0.0815  0.0015
              Bcc     0.0974    13.074     4.665     4.361 -0.0016 -0.0003  1.0000
 
              Baa    -0.1439    10.416     3.717     3.474 -0.3982  0.9173 -0.0001
     7 O(17)  Bbb    -0.1391    10.068     3.592     3.358  0.9173  0.3982  0.0008
              Bcc     0.2831   -20.484    -7.309    -6.833 -0.0007 -0.0002  1.0000
 
              Baa    -0.0651     4.714     1.682     1.572 -0.5186  0.8550  0.0006
     8 O(17)  Bbb    -0.0558     4.039     1.441     1.347  0.8550  0.5186  0.0008
              Bcc     0.1210    -8.753    -3.123    -2.920 -0.0003 -0.0009  1.0000
 
              Baa    -0.0127    -6.776    -2.418    -2.260 -0.6352  0.7723 -0.0005
     9 H(1)   Bbb    -0.0108    -5.756    -2.054    -1.920 -0.0004  0.0003  1.0000
              Bcc     0.0235    12.533     4.472     4.180  0.7723  0.6352  0.0001
 
              Baa    -0.0049    -2.592    -0.925    -0.865  0.6903  0.7235  0.0027
    10 H(1)   Bbb    -0.0044    -2.330    -0.831    -0.777 -0.0016 -0.0022  1.0000
              Bcc     0.0092     4.922     1.756     1.642  0.7235 -0.6903 -0.0003
 

 ---------------------------------------------------------------------------------

 D2PCM: PCM CHGder 2nd derivatives, FixD1E=F FixD2E=F DoIter=F DoCFld=F I1PDM=0
 Calling FoFJK, ICntrl=    100147 FMM=F ISym2X=0 I1Cent= 0 IOpClX= 1 NMat=1 NMatS=1 NMatT=0.
 ***** Axes restored to original set *****
 -------------------------------------------------------------------
 Center     Atomic                   Forces (Hartrees/Bohr)
 Number     Number              X              Y              Z
 -------------------------------------------------------------------
      1        7           0.013628757    0.065245205   -0.000012189
      2        7           0.112275532    0.013061010   -0.000039022
      3        7          -0.004948305   -0.076666060    0.000013894
      4        7          -0.036402320    0.040346641    0.000011384
      5        6          -0.026893971   -0.027156951    0.000017270
      6        6          -0.093021417   -0.002479568    0.000012382
      7        8           0.033234919   -0.029354522   -0.000001749
      8        8           0.018822315    0.025122399   -0.000009314
      9        1          -0.016840483   -0.007113939    0.000006427
     10        1           0.000144974   -0.001004214    0.000000917
 -------------------------------------------------------------------
 Cartesian Forces:  Max     0.112275532 RMS     0.036277191
 FormGI is forming the generalized inverse of G from B-inverse, IUseBI=4.

 GradGradGradGradGradGradGradGradGradGradGradGradGradGradGradGradGradGrad
 Berny optimization.
 Internal  Forces:  Max     0.062630916 RMS     0.017757218
 Search for a saddle point.
 Step number   1 out of a maximum of   59
 All quantities printed in internal units (Hartrees-Bohrs-Radians)
 Swapping is turned off.
 Second derivative matrix not updated -- analytic derivatives used.
 ITU=  0
     Eigenvalues ---   -0.05070  -0.00422   0.00343   0.01442   0.01892
     Eigenvalues ---    0.02569   0.04572   0.06013   0.07572   0.10919
     Eigenvalues ---    0.11432   0.16356   0.23371   0.25642   0.26448
     Eigenvalues ---    0.31162   0.31967   0.38774   0.39524   0.49742
     Eigenvalues ---    0.52392   0.58847   0.63942   0.89878
 Eigenvectors required to have negative eigenvalues:
                          R11       R3        A3        A2        R5
   1                    0.74642  -0.53578  -0.22194   0.18758   0.15388
                          A16       R10       A14       A12       A6
   1                   -0.13023  -0.08811   0.07873  -0.07218   0.06000
 RFO step:  Lambda0=4.359512100D-05 Lambda=-4.37999232D-02.
 Linear search not attempted -- option 19 set.
 Maximum step size (   0.300) exceeded in Quadratic search.
    -- Step size scaled by   0.632
 Iteration  1 RMS(Cart)=  0.04426799 RMS(Int)=  0.00685156
 Iteration  2 RMS(Cart)=  0.00719212 RMS(Int)=  0.00230615
 Iteration  3 RMS(Cart)=  0.00002049 RMS(Int)=  0.00230604
 Iteration  4 RMS(Cart)=  0.00000009 RMS(Int)=  0.00230604
 Variable       Old X    -DE/DX   Delta X   Delta X   Delta X     New X
                                 (Linear)    (Quad)   (Total)
    R1        2.48741   0.04609   0.00000   0.05092   0.05376   2.54117
    R2        2.49361   0.03045   0.00000   0.02312   0.02291   2.51651
    R3        2.28905  -0.01413   0.00000  -0.03232  -0.03266   2.25639
    R4        2.44239   0.06263   0.00000   0.06569   0.06675   2.50914
    R5        2.90447  -0.04714   0.00000  -0.22994  -0.22912   2.67535
    R6        2.48598   0.04442   0.00000   0.04871   0.04786   2.53384
    R7        2.54812  -0.01113   0.00000  -0.03360  -0.03520   2.51293
    R8        2.03846  -0.00078   0.00000   0.00006   0.00006   2.03852
    R9        2.27143   0.04307   0.00000   0.04475   0.04475   2.31618
   R10        2.38420   0.02877   0.00000   0.04634   0.04571   2.42990
   R11        2.55909   0.00630   0.00000   0.02570   0.02451   2.58360
    A1        1.81970  -0.00267   0.00000  -0.01132  -0.01032   1.80938
    A2        1.66652  -0.00195   0.00000  -0.01308  -0.01277   1.65375
    A3        2.79696   0.00463   0.00000   0.02449   0.01913   2.81610
    A4        1.96865  -0.00932   0.00000  -0.00550  -0.00944   1.95921
    A5        1.93363   0.00134   0.00000   0.02697   0.02177   1.95540
    A6        2.38091   0.00798   0.00000  -0.02131  -0.02879   2.35212
    A7        1.85838  -0.01577   0.00000  -0.02590  -0.02327   1.83511
    A8        1.87048   0.01502   0.00000   0.01946   0.01872   1.88920
    A9        1.90758   0.01274   0.00000   0.02327   0.02332   1.93090
   A10        2.18390  -0.00571   0.00000  -0.01455  -0.01467   2.16923
   A11        2.19171  -0.00703   0.00000  -0.00872  -0.00886   2.18285
   A12        2.06532   0.00962   0.00000   0.03996   0.03921   2.10453
   A13        1.82805   0.00478   0.00000   0.04873   0.04968   1.87774
   A14        2.38982  -0.01439   0.00000  -0.08870  -0.08941   2.30041
   A15        1.72905  -0.00182   0.00000  -0.04344  -0.04413   1.68492
   A16        2.26753  -0.00234   0.00000  -0.01917  -0.01850   2.24902
    D1       -0.00009   0.00000   0.00000   0.03978   0.04193   0.04184
    D2       -3.14092   0.00000   0.00000  -0.12322  -0.12337   3.01889
    D3        3.14091   0.00001   0.00000   0.09450   0.09351  -3.04877
    D4        0.00008   0.00001   0.00000  -0.06851  -0.07180  -0.07171
    D5        0.00002  -0.00000   0.00000  -0.02376  -0.02622  -0.02620
    D6       -3.14153  -0.00000   0.00000  -0.00480  -0.00515   3.13650
    D7       -3.13983   0.00000   0.00000  -0.18486  -0.18746   2.95589
    D8        0.00180   0.00000   0.00000  -0.16589  -0.16639  -0.16459
    D9       -0.00007   0.00000   0.00000   0.03957   0.03988   0.03980
   D10        3.13982  -0.00000   0.00000   0.19642   0.19706  -2.94630
   D11        0.00013  -0.00000   0.00000  -0.03986  -0.04101  -0.04088
   D12        3.14068  -0.00001   0.00000   0.18122   0.17555  -2.96696
   D13        3.14139  -0.00000   0.00000   0.06134   0.06002  -3.08178
   D14       -0.00009  -0.00001   0.00000   0.08816   0.09041   0.09033
   D15        0.00083   0.00001   0.00000  -0.15666  -0.15619  -0.15536
   D16       -3.14065  -0.00000   0.00000  -0.12983  -0.12579   3.01674
   D17       -0.00011  -0.00000   0.00000   0.02266   0.02283   0.02273
   D18        0.00005   0.00000   0.00000   0.00114   0.00250   0.00255
   D19       -3.14158   0.00000   0.00000  -0.01794  -0.01878   3.12283
   D20        0.00004   0.00001   0.00000  -0.05471  -0.05600  -0.05596
   D21       -3.14140  -0.00001   0.00000  -0.02015  -0.02091   3.12087
   D22        0.00002  -0.00001   0.00000   0.01580   0.01191   0.01193
         Item               Value     Threshold  Converged?
 Maximum Force            0.062631     0.000450     NO 
 RMS     Force            0.017757     0.000300     NO 
 Maximum Displacement     0.168569     0.001800     NO 
 RMS     Displacement     0.047082     0.001200     NO 
 Predicted change in Energy=-2.130343D-02
 GradGradGradGradGradGradGradGradGradGradGradGradGradGradGradGradGradGrad

                          Input orientation:                          
 ---------------------------------------------------------------------
 Center     Atomic      Atomic             Coordinates (Angstroms)
 Number     Number       Type             X           Y           Z
 ---------------------------------------------------------------------
      1          7           0       -0.635091    0.983527    0.042003
      2          7           0       -0.001863   -0.201860    0.088733
      3          7           0       -0.844755   -1.225362    0.018174
      4          7           0       -2.065239   -0.671751   -0.024391
      5          6           0       -1.923465    0.650347   -0.007597
      6          6           0        1.402783   -0.058145   -0.014338
      7          8           0        2.129419   -1.044475   -0.051978
      8          8           0        1.665577    1.200564   -0.014336
      9          1           0        0.368056    1.630514    0.013493
     10          1           0       -2.733812    1.361165   -0.049501
 ---------------------------------------------------------------------
                    Distance matrix (angstroms):
                    1          2          3          4          5
     1  N    0.000000
     2  N    1.344731   0.000000
     3  N    2.218945   1.327781   0.000000
     4  N    2.188533   2.119225   1.340850   0.000000
     5  C    1.331682   2.104302   2.163923   1.329783   0.000000
     6  C    2.289363   1.415736   2.532761   3.521901   3.400872
     7  O    3.429889   2.296120   2.980495   4.211275   4.393206
     8  O    2.311569   2.181232   3.491123   4.174285   3.630978
     9  H    1.194031   1.870854   3.102734   3.350043   2.492437
    10  H    2.134388   3.150507   3.203629   2.140179   1.078740
                    6          7          8          9         10
     6  C    0.000000
     7  O    1.225669   0.000000
     8  O    1.285850   2.292765   0.000000
     9  H    1.980657   3.203475   1.367183   0.000000
    10  H    4.373453   5.425691   4.402459   3.114178   0.000000
 Stoichiometry    C2H2N4O2(1-,2)
 Framework group  C1[X(C2H2N4O2)]
 Deg. of freedom    24
 Full point group                 C1      NOp   1
 Largest Abelian subgroup         C1      NOp   1
 Largest concise Abelian subgroup C1      NOp   1
                         Standard orientation:                         
 ---------------------------------------------------------------------
 Center     Atomic      Atomic             Coordinates (Angstroms)
 Number     Number       Type             X           Y           Z
 ---------------------------------------------------------------------
      1          7           0       -0.639630    0.981680    0.027689
      2          7           0       -0.002413   -0.200994    0.087179
      3          7           0       -0.841084   -1.228082    0.018461
      4          7           0       -2.063268   -0.679300   -0.036173
      5          6           0       -1.926424    0.643399   -0.028011
      6          6           0        1.402353   -0.052844   -0.007645
      7          8           0        2.132811   -1.036732   -0.033344
      8          8           0        1.660555    1.206794   -0.015016
      9          1           0        0.361321    1.632142    0.001127
     10          1           0       -2.739059    1.350901   -0.080412
 ---------------------------------------------------------------------
 Rotational constants (GHZ):           5.5114186           1.8848744           1.4059225
 Standard basis: 6-31+G(d,p) (6D, 7F)
 There are   162 symmetry adapted cartesian basis functions of A   symmetry.
 There are   162 symmetry adapted basis functions of A   symmetry.
   162 basis functions,   270 primitive gaussians,   162 cartesian basis functions
    30 alpha electrons       29 beta electrons
       nuclear repulsion energy       368.8499712287 Hartrees.
 NAtoms=   10 NActive=   10 NUniq=   10 SFac= 1.00D+00 NAtFMM=   60 NAOKFM=F Big=F
 Integral buffers will be    131072 words long.
 Raffenetti 2 integral format.
 Two-electron integral symmetry is turned on.
 ------------------------------------------------------------------------------
 Polarizable Continuum Model (PCM)
 =================================
 Model                : PCM.
 Atomic radii         : SMD-Coulomb.
 Polarization charges : Total charges.
 Charge compensation  : None.
 Solution method      : Matrix inversion.
 Cavity type          : VdW (van der Waals Surface) (Alpha=1.000).
 Cavity algorithm     : GePol (No added spheres)
                        Default sphere list used, NSphG=   10.
                        Lebedev-Laikov grids with approx.  5.0 points / Ang**2.
                        Smoothing algorithm: York/Karplus (Gamma=1.0000).
                        Polarization charges: spherical gaussians, with
                                              point-specific exponents (IZeta= 3).
                        Self-potential: point-specific (ISelfS= 7).
                        Self-field    : sphere-specific E.n sum rule (ISelfD= 2).
 1st derivatives      : Analytical E(r).r(x)/FMM algorithm (CHGder, D1EAlg=3).
                        Cavity 1st derivative terms included.
 Solvent              : Water, Eps=  78.355300 Eps(inf)=   1.777849
 ------------------------------------------------------------------------------
 Spheres list:
 ISph  on   Nord     Re0    Alpha      Xe            Ye            Ze
    1   N      1    1.8900  1.000     -0.639630      0.981680      0.027689
    2   N      2    1.8900  1.000     -0.002413     -0.200994      0.087179
    3   N      3    1.8900  1.000     -0.841084     -1.228082      0.018461
    4   N      4    1.8900  1.000     -2.063268     -0.679300     -0.036173
    5   C      5    1.8500  1.000     -1.926424      0.643399     -0.028011
    6   C      6    1.8500  1.000      1.402353     -0.052844     -0.007645
    7   O      7    1.5200  1.000      2.132811     -1.036732     -0.033344
    8   O      8    1.5200  1.000      1.660555      1.206794     -0.015016
    9   H      9    1.2000  1.000      0.361321      1.632142      0.001127
   10   H     10    1.2000  1.000     -2.739059      1.350901     -0.080412
 ------------------------------------------------------------------------------
 ------------------------------------------------------------------------------
 Atomic radii for non-electrostatic terms: SMD-CDS.
 ------------------------------------------------------------------------------
 Nuclear repulsion after PCM non-electrostatic terms =      368.8555207438 Hartrees.
 One-electron integrals computed using PRISM.
 NBasis=   162 RedAO= T EigKep=  4.34D-05  NBF=   162
 NBsUse=   162 1.00D-06 EigRej= -1.00D+00 NBFU=   162
 Initial guess from the checkpoint file:  "/scratch/gongke2021/sidanzuo-TS/Gau-5093.chk"
 B after Tr=    -0.000000   -0.000000    0.000000
         Rot=    1.000000    0.000182   -0.000142   -0.000692 Ang=   0.08 deg.
 Initial guess <Sx>= 0.0000 <Sy>= 0.0000 <Sz>= 0.5000 <S**2>= 0.7606 S= 0.5053
 ExpMin= 4.38D-02 ExpMax= 5.48D+03 ExpMxC= 8.25D+02 IAcc=2 IRadAn=         4 AccDes= 0.00D+00
 Harris functional with IExCor= 1009 and IRadAn=       4 diagonalized for initial guess.
 HarFok:  IExCor= 1009 AccDes= 0.00D+00 IRadAn=         4 IDoV= 1 UseB2=F ITyADJ=14
 ICtDFT=  3500011 ScaDFX=  1.000000  1.000000  1.000000  1.000000
 FoFCou: FMM=F IPFlag=           0 FMFlag=      100000 FMFlg1=           0
         NFxFlg=           0 DoJE=T BraDBF=F KetDBF=T FulRan=T
         wScrn=  0.000000 ICntrl=       500 IOpCl=  0 I1Cent=   200000004 NGrid=           0
         NMat0=    1 NMatS0=      1 NMatT0=    0 NMatD0=    1 NMtDS0=    0 NMtDT0=    0
 Petite list used in FoFCou.
 Keep R1 and R2 ints in memory in canonical form, NReq=194097766.
 Requested convergence on RMS density matrix=1.00D-08 within 128 cycles.
 Requested convergence on MAX density matrix=1.00D-06.
 Requested convergence on             energy=1.00D-06.
 No special actions if energy rises.
 Inv3:  Mode=1 IEnd=     2770563.
 Iteration    1 A*A^-1 deviation from unit magnitude is 4.44D-15 for    960.
 Iteration    1 A*A^-1 deviation from orthogonality  is 2.55D-15 for    961    797.
 Iteration    1 A^-1*A deviation from unit magnitude is 4.22D-15 for    960.
 Iteration    1 A^-1*A deviation from orthogonality  is 1.42D-15 for    957    817.
 Error on total polarization charges =  0.04426
 SCF Done:  E(UM062X) =  -446.769564449     A.U. after   18 cycles
            NFock= 18  Conv=0.42D-08     -V/T= 2.0076
 <Sx>= 0.0000 <Sy>= 0.0000 <Sz>= 0.5000 <S**2>= 0.7618 S= 0.5059
 <L.S>= 0.000000000000E+00
 SMD-CDS (non-electrostatic) energy       (kcal/mol) =       3.48
 (included in total energy above)
 Annihilation of the first spin contaminant:
 S**2 before annihilation     0.7618,   after     0.7501
 D1PCM: PCM CHGder 1st derivatives, ID1Alg=3 FixD1E=F DoIter=F DoCFld=F I1PDM=0.
 Calling FoFJK, ICntrl=      2127 FMM=F ISym2X=0 I1Cent= 0 IOpClX= 1 NMat=1 NMatS=1 NMatT=0.
 ***** Axes restored to original set *****
 -------------------------------------------------------------------
 Center     Atomic                   Forces (Hartrees/Bohr)
 Number     Number              X              Y              Z
 -------------------------------------------------------------------
      1        7           0.004940219    0.031398819    0.004190379
      2        7           0.038320672    0.006368045   -0.000228580
      3        7          -0.004197774   -0.036588450   -0.001072194
      4        7          -0.015981964    0.016030544   -0.000144433
      5        6          -0.011064683   -0.011370259   -0.003154507
      6        6          -0.031049210   -0.000873853    0.004525442
      7        8           0.016364449   -0.012926557   -0.001636022
      8        8           0.012475179    0.011539526   -0.001523138
      9        1          -0.009926070   -0.003334546   -0.001357180
     10        1           0.000119183   -0.000243269    0.000400233
 -------------------------------------------------------------------
 Cartesian Forces:  Max     0.038320672 RMS     0.014713027

 GradGradGradGradGradGradGradGradGradGradGradGradGradGradGradGradGradGrad
 Berny optimization.
 FormGI is forming the generalized inverse of G from B-inverse, IUseBI=4.
 Internal  Forces:  Max     0.030591160 RMS     0.007771406
 Search for a saddle point.
 Step number   2 out of a maximum of   59
 All quantities printed in internal units (Hartrees-Bohrs-Radians)
 Swapping is turned off.
 Update second derivatives using D2CorX and points    1    2
 ITU=  0  0
     Eigenvalues ---   -0.05016  -0.01222   0.00353   0.01441   0.01891
     Eigenvalues ---    0.02568   0.04557   0.06007   0.10494   0.10923
     Eigenvalues ---    0.11212   0.16156   0.23264   0.25737   0.26595
     Eigenvalues ---    0.31064   0.31890   0.38724   0.39439   0.49640
     Eigenvalues ---    0.52387   0.58738   0.63882   0.89890
 Eigenvectors required to have negative eigenvalues:
                          R11       R3        A3        A2        R5
   1                    0.74411  -0.53354  -0.22142   0.18530   0.13375
                          A16       R10       A14       A12       D12
   1                   -0.12973  -0.08677   0.07098  -0.06890   0.06426
 RFO step:  Lambda0=4.648070323D-04 Lambda=-1.24406645D-02.
 Linear search not attempted -- option 19 set.
 Iteration  1 RMS(Cart)=  0.05034269 RMS(Int)=  0.02042199
 Iteration  2 RMS(Cart)=  0.01033626 RMS(Int)=  0.00507530
 Iteration  3 RMS(Cart)=  0.00022218 RMS(Int)=  0.00507141
 Iteration  4 RMS(Cart)=  0.00000137 RMS(Int)=  0.00507141
 Iteration  5 RMS(Cart)=  0.00000002 RMS(Int)=  0.00507141
 Variable       Old X    -DE/DX   Delta X   Delta X   Delta X     New X
                                 (Linear)    (Quad)   (Total)
    R1        2.54117   0.02076   0.00000   0.02515   0.03239   2.57357
    R2        2.51651   0.01351   0.00000   0.01457   0.01437   2.53088
    R3        2.25639  -0.00537   0.00000  -0.01530  -0.01611   2.24028
    R4        2.50914   0.03059   0.00000   0.04322   0.04552   2.55466
    R5        2.67535  -0.00883   0.00000  -0.18555  -0.18329   2.49206
    R6        2.53384   0.01931   0.00000   0.03572   0.03338   2.56722
    R7        2.51293  -0.00290   0.00000  -0.01861  -0.02221   2.49071
    R8        2.03852  -0.00026   0.00000   0.00026   0.00026   2.03878
    R9        2.31618   0.02016   0.00000   0.03290   0.03290   2.34908
   R10        2.42990   0.01380   0.00000   0.04043   0.03865   2.46856
   R11        2.58360   0.00657   0.00000   0.02464   0.02139   2.60499
    A1        1.80938  -0.00176   0.00000  -0.01262  -0.01067   1.79871
    A2        1.65375  -0.00035   0.00000  -0.01420  -0.01413   1.63962
    A3        2.81610   0.00209   0.00000   0.03896   0.02792   2.84401
    A4        1.95921  -0.00329   0.00000   0.01136   0.00151   1.96072
    A5        1.95540  -0.00085   0.00000   0.03753   0.02559   1.98099
    A6        2.35212   0.00424   0.00000   0.00480  -0.01689   2.33523
    A7        1.83511  -0.00753   0.00000  -0.02694  -0.02095   1.81416
    A8        1.88920   0.00658   0.00000   0.01508   0.01350   1.90270
    A9        1.93090   0.00602   0.00000   0.01632   0.01709   1.94798
   A10        2.16923  -0.00292   0.00000  -0.01137  -0.01204   2.15719
   A11        2.18285  -0.00310   0.00000  -0.00426  -0.00497   2.17788
   A12        2.10453   0.00610   0.00000   0.03911   0.03705   2.14157
   A13        1.87774   0.00065   0.00000   0.03776   0.04028   1.91801
   A14        2.30041  -0.00671   0.00000  -0.07510  -0.07714   2.22327
   A15        1.68492  -0.00072   0.00000  -0.03473  -0.03749   1.64743
   A16        2.24902   0.00134   0.00000  -0.01334  -0.01209   2.23693
    D1        0.04184  -0.00047   0.00000  -0.06823  -0.07222  -0.03038
    D2        3.01889   0.00046   0.00000   0.19731   0.19534  -3.06895
    D3       -3.04877  -0.00056   0.00000  -0.14902  -0.14573   3.08869
    D4       -0.07171   0.00038   0.00000   0.11652   0.12183   0.05012
    D5       -0.02620   0.00040   0.00000   0.04321   0.04692   0.02072
    D6        3.13650  -0.00001   0.00000   0.00855   0.00907  -3.13762
    D7        2.95589  -0.00034   0.00000   0.27913   0.28314  -3.04415
    D8       -0.16459  -0.00074   0.00000   0.24447   0.24529   0.08070
    D9        0.03980  -0.00032   0.00000  -0.06706  -0.06771  -0.02791
   D10       -2.94630   0.00046   0.00000  -0.29664  -0.29811   3.03877
   D11       -0.04088   0.00030   0.00000   0.06646   0.06896   0.02808
   D12       -2.96696   0.00007   0.00000  -0.28593  -0.27760   3.03863
   D13       -3.08178   0.00008   0.00000  -0.09665  -0.09528   3.10612
   D14        0.09033  -0.00090   0.00000  -0.14763  -0.15171  -0.06138
   D15       -0.15536   0.00010   0.00000   0.25286   0.25207   0.09670
   D16        3.01674  -0.00088   0.00000   0.20188   0.19564  -3.07080
   D17        0.02273   0.00017   0.00000  -0.03657  -0.03679  -0.01407
   D18        0.00255  -0.00044   0.00000  -0.00493  -0.00702  -0.00447
   D19        3.12283  -0.00003   0.00000   0.02996   0.03127  -3.12908
   D20       -0.05596   0.00031   0.00000   0.09184   0.09304   0.03708
   D21        3.12087  -0.00116   0.00000   0.02977   0.03036  -3.13195
   D22        0.01193  -0.00041   0.00000  -0.02185  -0.01630  -0.00437
         Item               Value     Threshold  Converged?
 Maximum Force            0.030591     0.000450     NO 
 RMS     Force            0.007771     0.000300     NO 
 Maximum Displacement     0.266215     0.001800     NO 
 RMS     Displacement     0.059239     0.001200     NO 
 Predicted change in Energy=-7.542753D-03
 GradGradGradGradGradGradGradGradGradGradGradGradGradGradGradGradGradGrad

                          Input orientation:                          
 ---------------------------------------------------------------------
 Center     Atomic      Atomic             Coordinates (Angstroms)
 Number     Number       Type             X           Y           Z
 ---------------------------------------------------------------------
      1          7           0       -0.627533    1.006383   -0.020078
      2          7           0        0.027537   -0.187164   -0.052142
      3          7           0       -0.819870   -1.239690   -0.011668
      4          7           0       -2.051776   -0.667453    0.010927
      5          6           0       -1.916550    0.643591    0.002297
      6          6           0        1.339527   -0.068794    0.009124
      7          8           0        2.102202   -1.050203    0.029383
      8          8           0        1.672275    1.194419    0.010832
      9          1           0        0.370142    1.646583   -0.005348
     10          1           0       -2.734344    1.346853    0.026935
 ---------------------------------------------------------------------
                    Distance matrix (angstroms):
                    1          2          3          4          5
     1  N    0.000000
     2  N    1.361873   0.000000
     3  N    2.254309   1.351868   0.000000
     4  N    2.197990   2.134994   1.358514   0.000000
     5  C    1.339285   2.114850   2.179369   1.318028   0.000000
     6  C    2.241914   1.318742   2.456507   3.443738   3.333103
     7  O    3.418105   2.248492   2.928497   4.171615   4.361197
     8  O    2.307689   2.148930   3.483702   4.163548   3.630861
     9  H    1.185508   1.866064   3.121977   3.349734   2.497001
    10  H    2.134663   3.160293   3.218215   2.126872   1.078876
                    6          7          8          9         10
     6  C    0.000000
     7  O    1.243080   0.000000
     8  O    1.306304   2.285500   0.000000
     9  H    1.970389   3.205291   1.378500   0.000000
    10  H    4.312864   5.397968   4.409285   3.119089   0.000000
 Stoichiometry    C2H2N4O2(1-,2)
 Framework group  C1[X(C2H2N4O2)]
 Deg. of freedom    24
 Full point group                 C1      NOp   1
 Largest Abelian subgroup         C1      NOp   1
 Largest concise Abelian subgroup C1      NOp   1
                         Standard orientation:                         
 ---------------------------------------------------------------------
 Center     Atomic      Atomic             Coordinates (Angstroms)
 Number     Number       Type             X           Y           Z
 ---------------------------------------------------------------------
      1          7           0       -0.634191    1.003358   -0.012856
      2          7           0        0.027146   -0.186546   -0.051060
      3          7           0       -0.814394   -1.243734   -0.009699
      4          7           0       -2.049251   -0.678216    0.019900
      5          6           0       -1.921124    0.633558    0.014234
      6          6           0        1.338739   -0.061264    0.004723
      7          8           0        2.106769   -1.038594    0.018941
      8          8           0        1.664686    1.203717    0.008392
      9          1           0        0.360078    1.648890   -0.000799
     10          1           0       -2.742576    1.332328    0.044401
 ---------------------------------------------------------------------
 Rotational constants (GHZ):           5.4676881           1.9243375           1.4238403
 Standard basis: 6-31+G(d,p) (6D, 7F)
 There are   162 symmetry adapted cartesian basis functions of A   symmetry.
 There are   162 symmetry adapted basis functions of A   symmetry.
   162 basis functions,   270 primitive gaussians,   162 cartesian basis functions
    30 alpha electrons       29 beta electrons
       nuclear repulsion energy       369.8142929010 Hartrees.
 NAtoms=   10 NActive=   10 NUniq=   10 SFac= 1.00D+00 NAtFMM=   60 NAOKFM=F Big=F
 Integral buffers will be    131072 words long.
 Raffenetti 2 integral format.
 Two-electron integral symmetry is turned on.
 ------------------------------------------------------------------------------
 Polarizable Continuum Model (PCM)
 =================================
 Model                : PCM.
 Atomic radii         : SMD-Coulomb.
 Polarization charges : Total charges.
 Charge compensation  : None.
 Solution method      : Matrix inversion.
 Cavity type          : VdW (van der Waals Surface) (Alpha=1.000).
 Cavity algorithm     : GePol (No added spheres)
                        Default sphere list used, NSphG=   10.
                        Lebedev-Laikov grids with approx.  5.0 points / Ang**2.
                        Smoothing algorithm: York/Karplus (Gamma=1.0000).
                        Polarization charges: spherical gaussians, with
                                              point-specific exponents (IZeta= 3).
                        Self-potential: point-specific (ISelfS= 7).
                        Self-field    : sphere-specific E.n sum rule (ISelfD= 2).
 1st derivatives      : Analytical E(r).r(x)/FMM algorithm (CHGder, D1EAlg=3).
                        Cavity 1st derivative terms included.
 Solvent              : Water, Eps=  78.355300 Eps(inf)=   1.777849
 ------------------------------------------------------------------------------
 Spheres list:
 ISph  on   Nord     Re0    Alpha      Xe            Ye            Ze
    1   N      1    1.8900  1.000     -0.634191      1.003358     -0.012856
    2   N      2    1.8900  1.000      0.027146     -0.186546     -0.051060
    3   N      3    1.8900  1.000     -0.814394     -1.243734     -0.009699
    4   N      4    1.8900  1.000     -2.049251     -0.678216      0.019900
    5   C      5    1.8500  1.000     -1.921124      0.633558      0.014234
    6   C      6    1.8500  1.000      1.338739     -0.061264      0.004723
    7   O      7    1.5200  1.000      2.106769     -1.038594      0.018941
    8   O      8    1.5200  1.000      1.664686      1.203717      0.008392
    9   H      9    1.2000  1.000      0.360078      1.648890     -0.000799
   10   H     10    1.2000  1.000     -2.742576      1.332328      0.044401
 ------------------------------------------------------------------------------
 ------------------------------------------------------------------------------
 Atomic radii for non-electrostatic terms: SMD-CDS.
 ------------------------------------------------------------------------------
 Nuclear repulsion after PCM non-electrostatic terms =      369.8195388175 Hartrees.
 One-electron integrals computed using PRISM.
 NBasis=   162 RedAO= T EigKep=  4.61D-05  NBF=   162
 NBsUse=   162 1.00D-06 EigRej= -1.00D+00 NBFU=   162
 Initial guess from the checkpoint file:  "/scratch/gongke2021/sidanzuo-TS/Gau-5093.chk"
 B after Tr=     0.000000    0.000000   -0.000000
         Rot=    1.000000    0.000071   -0.000043   -0.000046 Ang=   0.01 deg.
 Initial guess <Sx>= 0.0000 <Sy>= 0.0000 <Sz>= 0.5000 <S**2>= 0.7618 S= 0.5059
 ExpMin= 4.38D-02 ExpMax= 5.48D+03 ExpMxC= 8.25D+02 IAcc=2 IRadAn=         4 AccDes= 0.00D+00
 Harris functional with IExCor= 1009 and IRadAn=       4 diagonalized for initial guess.
 HarFok:  IExCor= 1009 AccDes= 0.00D+00 IRadAn=         4 IDoV= 1 UseB2=F ITyADJ=14
 ICtDFT=  3500011 ScaDFX=  1.000000  1.000000  1.000000  1.000000
 FoFCou: FMM=F IPFlag=           0 FMFlag=      100000 FMFlg1=           0
         NFxFlg=           0 DoJE=T BraDBF=F KetDBF=T FulRan=T
         wScrn=  0.000000 ICntrl=       500 IOpCl=  0 I1Cent=   200000004 NGrid=           0
         NMat0=    1 NMatS0=      1 NMatT0=    0 NMatD0=    1 NMtDS0=    0 NMtDT0=    0
 Petite list used in FoFCou.
 Keep R1 and R2 ints in memory in canonical form, NReq=194097766.
 Requested convergence on RMS density matrix=1.00D-08 within 128 cycles.
 Requested convergence on MAX density matrix=1.00D-06.
 Requested convergence on             energy=1.00D-06.
 No special actions if energy rises.
 Inv3:  Mode=1 IEnd=     2764800.
 Iteration    1 A*A^-1 deviation from unit magnitude is 3.33D-15 for    951.
 Iteration    1 A*A^-1 deviation from orthogonality  is 2.22D-15 for    960    796.
 Iteration    1 A^-1*A deviation from unit magnitude is 3.11D-15 for    951.
 Iteration    1 A^-1*A deviation from orthogonality  is 1.99D-15 for    316    120.
 Error on total polarization charges =  0.04459
 SCF Done:  E(UM062X) =  -446.768862376     A.U. after   17 cycles
            NFock= 17  Conv=0.74D-08     -V/T= 2.0076
 <Sx>= 0.0000 <Sy>= 0.0000 <Sz>= 0.5000 <S**2>= 0.7626 S= 0.5063
 <L.S>= 0.000000000000E+00
 SMD-CDS (non-electrostatic) energy       (kcal/mol) =       3.29
 (included in total energy above)
 Annihilation of the first spin contaminant:
 S**2 before annihilation     0.7626,   after     0.7501
 D1PCM: PCM CHGder 1st derivatives, ID1Alg=3 FixD1E=F DoIter=F DoCFld=F I1PDM=0.
 Calling FoFJK, ICntrl=      2127 FMM=F ISym2X=0 I1Cent= 0 IOpClX= 1 NMat=1 NMatS=1 NMatT=0.
 ***** Axes restored to original set *****
 -------------------------------------------------------------------
 Center     Atomic                   Forces (Hartrees/Bohr)
 Number     Number              X              Y              Z
 -------------------------------------------------------------------
      1        7          -0.000942962    0.010608997   -0.003288923
      2        7          -0.046917842   -0.004027104    0.000124201
      3        7          -0.007611410   -0.010091456   -0.000129085
      4        7          -0.004191274   -0.001847089   -0.000485479
      5        6          -0.001891944    0.000452312    0.002060838
      6        6           0.056890088    0.006595165   -0.001281960
      7        8           0.005298124   -0.007157714    0.001127724
      8        8           0.003243549    0.005605419    0.001282355
      9        1          -0.003838273   -0.000195741    0.000889829
     10        1          -0.000038056    0.000057212   -0.000299500
 -------------------------------------------------------------------
 Cartesian Forces:  Max     0.056890088 RMS     0.014085745

 GradGradGradGradGradGradGradGradGradGradGradGradGradGradGradGradGradGrad
 Berny optimization.
 FormGI is forming the generalized inverse of G from B-inverse, IUseBI=4.
 Internal  Forces:  Max     0.056506703 RMS     0.009035499
 Search for a saddle point.
 Step number   3 out of a maximum of   59
 All quantities printed in internal units (Hartrees-Bohrs-Radians)
 Swapping is turned off.
 Update second derivatives using D2CorX and points    1    2    3
 ITU=  0  0  0
     Eigenvalues ---   -0.04886  -0.00803   0.00385   0.01443   0.01891
     Eigenvalues ---    0.02568   0.04544   0.05997   0.10909   0.11270
     Eigenvalues ---    0.14829   0.19837   0.23232   0.26079   0.30310
     Eigenvalues ---    0.31883   0.32272   0.38715   0.39441   0.49728
     Eigenvalues ---    0.52516   0.58649   0.63805   0.90388
 Eigenvectors required to have negative eigenvalues:
                          R11       R3        A3        A2        A16
   1                   -0.75699   0.53986   0.21898  -0.18669   0.14275
                          R10       R5        A12       A14       A15
   1                    0.08008  -0.07136   0.06244  -0.05218   0.04968
 RFO step:  Lambda0=1.065931465D-03 Lambda=-1.47061063D-02.
 Linear search not attempted -- option 19 set.
 Maximum step size (   0.300) exceeded in Quadratic search.
    -- Step size scaled by   0.905
 Iteration  1 RMS(Cart)=  0.05619247 RMS(Int)=  0.02071245
 Iteration  2 RMS(Cart)=  0.00759831 RMS(Int)=  0.00331610
 Iteration  3 RMS(Cart)=  0.00008887 RMS(Int)=  0.00331541
 Iteration  4 RMS(Cart)=  0.00000016 RMS(Int)=  0.00331541
 Variable       Old X    -DE/DX   Delta X   Delta X   Delta X     New X
                                 (Linear)    (Quad)   (Total)
    R1        2.57357   0.00539   0.00000   0.01634   0.02123   2.59480
    R2        2.53088   0.00444   0.00000   0.00282   0.00283   2.53371
    R3        2.24028   0.00404   0.00000   0.08497   0.08477   2.32505
    R4        2.55466   0.01265   0.00000   0.01726   0.01846   2.57312
    R5        2.49206   0.05651   0.00000   0.20713   0.20803   2.70009
    R6        2.56722   0.00299   0.00000   0.00998   0.00851   2.57573
    R7        2.49071   0.00390   0.00000  -0.00590  -0.00794   2.48277
    R8        2.03878   0.00007   0.00000   0.00100   0.00100   2.03978
    R9        2.34908   0.00893   0.00000  -0.01561  -0.01561   2.33348
   R10        2.46856   0.00455   0.00000  -0.00617  -0.00785   2.46071
   R11        2.60499   0.00889   0.00000  -0.14122  -0.14316   2.46182
    A1        1.79871  -0.00134   0.00000  -0.00794  -0.00710   1.79160
    A2        1.63962   0.00185   0.00000  -0.03241  -0.03116   1.60847
    A3        2.84401  -0.00052   0.00000   0.03442   0.02304   2.86705
    A4        1.96072  -0.00056   0.00000  -0.00371  -0.00911   1.95161
    A5        1.98099  -0.00704   0.00000  -0.04351  -0.04814   1.93285
    A6        2.33523   0.00768   0.00000   0.02375   0.01208   2.34731
    A7        1.81416  -0.00132   0.00000  -0.00011   0.00315   1.81731
    A8        1.90270   0.00053   0.00000  -0.00454  -0.00541   1.89729
    A9        1.94798   0.00271   0.00000   0.01482   0.01561   1.96360
   A10        2.15719  -0.00141   0.00000  -0.00752  -0.00798   2.14921
   A11        2.17788  -0.00129   0.00000  -0.00754  -0.00802   2.16986
   A12        2.14157   0.00430   0.00000   0.00527   0.00487   2.14644
   A13        1.91801  -0.00906   0.00000  -0.03745  -0.03673   1.88128
   A14        2.22327   0.00480   0.00000   0.03192   0.03147   2.25473
   A15        1.64743   0.00408   0.00000   0.02924   0.02661   1.67405
   A16        2.23693   0.01024   0.00000   0.07900   0.08013   2.31706
    D1       -0.03038   0.00040   0.00000  -0.04260  -0.04498  -0.07536
    D2       -3.06895  -0.00077   0.00000   0.14811   0.13992  -2.92903
    D3        3.08869   0.00026   0.00000  -0.12049  -0.11564   2.97305
    D4        0.05012  -0.00091   0.00000   0.07022   0.06926   0.11938
    D5        0.02072  -0.00046   0.00000   0.02191   0.02408   0.04480
    D6       -3.13762   0.00005   0.00000   0.00653   0.00740  -3.13022
    D7       -3.04415  -0.00011   0.00000   0.29642   0.29746  -2.74669
    D8        0.08070   0.00040   0.00000   0.28105   0.28078   0.36147
    D9       -0.02791  -0.00008   0.00000  -0.04356  -0.04773  -0.07564
   D10        3.03877  -0.00046   0.00000  -0.31154  -0.31432   2.72446
   D11        0.02808  -0.00013   0.00000   0.04631   0.04857   0.07665
   D12        3.03863  -0.00001   0.00000  -0.20229  -0.20183   2.83681
   D13        3.10612  -0.00030   0.00000  -0.07659  -0.07603   3.03009
   D14       -0.06138   0.00113   0.00000  -0.08620  -0.08773  -0.14911
   D15        0.09670  -0.00080   0.00000   0.17187   0.17032   0.26702
   D16       -3.07080   0.00063   0.00000   0.16226   0.15862  -2.91219
   D17       -0.01407  -0.00017   0.00000  -0.03094  -0.03209  -0.04616
   D18       -0.00447   0.00043   0.00000   0.00568   0.00493   0.00045
   D19       -3.12908  -0.00008   0.00000   0.02127   0.02184  -3.10725
   D20        0.03708  -0.00079   0.00000   0.05143   0.05305   0.09013
   D21       -3.13195   0.00070   0.00000   0.04068   0.03978  -3.09217
   D22       -0.00437   0.00001   0.00000  -0.00464  -0.00567  -0.01004
         Item               Value     Threshold  Converged?
 Maximum Force            0.056507     0.000450     NO 
 RMS     Force            0.009035     0.000300     NO 
 Maximum Displacement     0.206950     0.001800     NO 
 RMS     Displacement     0.060202     0.001200     NO 
 Predicted change in Energy=-1.038406D-02
 GradGradGradGradGradGradGradGradGradGradGradGradGradGradGradGradGradGrad

                          Input orientation:                          
 ---------------------------------------------------------------------
 Center     Atomic      Atomic             Coordinates (Angstroms)
 Number     Number       Type             X           Y           Z
 ---------------------------------------------------------------------
      1          7           0       -0.645082    0.997931   -0.072610
      2          7           0       -0.006928   -0.214609   -0.161655
      3          7           0       -0.876614   -1.254696   -0.035470
      4          7           0       -2.100166   -0.658361    0.036113
      5          6           0       -1.935723    0.644927    0.013023
      6          6           0        1.401808   -0.059632    0.019981
      7          8           0        2.178775   -1.016199    0.098003
      8          8           0        1.663285    1.215927    0.033198
      9          1           0        0.421988    1.607981   -0.017898
     10          1           0       -2.739733    1.361256    0.087576
 ---------------------------------------------------------------------
                    Distance matrix (angstroms):
                    1          2          3          4          5
     1  N    0.000000
[...]
 Variable       Old X    -DE/DX   Delta X   Delta X   Delta X     New X
                                 (Linear)    (Quad)   (Total)
    R1        2.65025  -0.00004   0.00000  -0.00007  -0.00007   2.65018
    R2        2.55071   0.00002   0.00000   0.00006   0.00006   2.55077
    R3        2.39003  -0.00001   0.00000   0.00002   0.00002   2.39005
    R4        2.63662   0.00004   0.00000   0.00027   0.00027   2.63689
    R5        2.70141  -0.00002   0.00000   0.00006   0.00006   2.70147
    R6        2.54929  -0.00002   0.00000  -0.00011  -0.00011   2.54918
    R7        2.49299  -0.00003   0.00000  -0.00006  -0.00006   2.49292
    R8        2.04063  -0.00000   0.00000  -0.00000  -0.00000   2.04063
    R9        2.31921  -0.00000   0.00000  -0.00001  -0.00001   2.31920
   R10        2.44999  -0.00002   0.00000  -0.00005  -0.00005   2.44994
   R11        2.37437  -0.00002   0.00000  -0.00019  -0.00019   2.37418
    A1        1.78166   0.00000   0.00000   0.00005   0.00005   1.78171
    A2        1.58589   0.00000   0.00000   0.00003   0.00003   1.58592
    A3        2.40258  -0.00000   0.00000  -0.00051  -0.00051   2.40207
    A4        1.92688  -0.00001   0.00000  -0.00009  -0.00009   1.92679
    A5        1.90097   0.00000   0.00000  -0.00008  -0.00008   1.90089
    A6        2.12549   0.00000   0.00000  -0.00028  -0.00028   2.12521
    A7        1.83212   0.00000   0.00000   0.00000   0.00000   1.83212
    A8        1.90136   0.00000   0.00000   0.00004   0.00004   1.90140
    A9        1.98177   0.00001   0.00000  -0.00000  -0.00000   1.98177
   A10        2.14172  -0.00000   0.00000   0.00001   0.00001   2.14173
   A11        2.15917  -0.00001   0.00000  -0.00001  -0.00001   2.15916
   A12        2.12703  -0.00000   0.00000  -0.00003  -0.00003   2.12700
   A13        1.90836   0.00000   0.00000   0.00006   0.00006   1.90842
   A14        2.24749  -0.00000   0.00000  -0.00003  -0.00003   2.24746
   A15        1.66634  -0.00000   0.00000   0.00000   0.00000   1.66634
   A16        2.34740  -0.00000   0.00000   0.00006   0.00006   2.34746
    D1        0.01824  -0.00000   0.00000  -0.00007  -0.00007   0.01817
    D2       -2.35852   0.00000   0.00000   0.00048   0.00048  -2.35804
    D3        2.45111  -0.00000   0.00000  -0.00058  -0.00058   2.45053
    D4        0.07436  -0.00000   0.00000  -0.00004  -0.00004   0.07432
    D5       -0.03831  -0.00000   0.00000   0.00005   0.00005  -0.03826
    D6        3.13698   0.00000   0.00000   0.00012   0.00012   3.13710
    D7       -1.86985  -0.00000   0.00000   0.00021   0.00021  -1.86965
    D8        1.30544   0.00000   0.00000   0.00028   0.00028   1.30571
    D9        0.04107  -0.00000   0.00000  -0.00030  -0.00030   0.04077
   D10        1.94536  -0.00000   0.00000  -0.00039  -0.00039   1.94497
   D11        0.00631  -0.00000   0.00000   0.00006   0.00006   0.00637
   D12        2.26819  -0.00000   0.00000  -0.00045  -0.00045   2.26774
   D13        3.00407   0.00000   0.00000   0.00030   0.00030   3.00437
   D14       -0.16179   0.00000   0.00000   0.00029   0.00029  -0.16150
   D15        0.73112   0.00001   0.00000   0.00081   0.00081   0.73193
   D16       -2.43473   0.00001   0.00000   0.00079   0.00079  -2.43395
   D17       -0.02961  -0.00000   0.00000  -0.00002  -0.00002  -0.02964
   D18        0.04499  -0.00000   0.00000  -0.00002  -0.00002   0.04497
   D19       -3.13068  -0.00000   0.00000  -0.00009  -0.00009  -3.13077
   D20        0.15230  -0.00000   0.00000  -0.00036  -0.00036   0.15195
   D21       -3.01571  -0.00000   0.00000  -0.00038  -0.00038  -3.01609
   D22       -0.13821   0.00001   0.00000   0.00047   0.00047  -0.13774
         Item               Value     Threshold  Converged?
 Maximum Force            0.000037     0.000450     YES
 RMS     Force            0.000011     0.000300     YES
 Maximum Displacement     0.000914     0.001800     YES
 RMS     Displacement     0.000231     0.001200     YES
 Predicted change in Energy=-2.398340D-08
 Optimization completed.
    -- Stationary point found.
                           ----------------------------
                           !   Optimized Parameters   !
                           ! (Angstroms and Degrees)  !
 --------------------------                            --------------------------
 ! Name  Definition              Value          Derivative Info.                !
 --------------------------------------------------------------------------------
 ! R1    R(1,2)                  1.4024         -DE/DX =    0.0                 !
 ! R2    R(1,5)                  1.3498         -DE/DX =    0.0                 !
 ! R3    R(1,9)                  1.2647         -DE/DX =    0.0                 !
 ! R4    R(2,3)                  1.3952         -DE/DX =    0.0                 !
 ! R5    R(2,6)                  1.4295         -DE/DX =    0.0                 !
 ! R6    R(3,4)                  1.349          -DE/DX =    0.0                 !
 ! R7    R(4,5)                  1.3192         -DE/DX =    0.0                 !
 ! R8    R(5,10)                 1.0799         -DE/DX =    0.0                 !
 ! R9    R(6,7)                  1.2273         -DE/DX =    0.0                 !
 ! R10   R(6,8)                  1.2965         -DE/DX =    0.0                 !
 ! R11   R(8,9)                  1.2565         -DE/DX =    0.0                 !
 ! A1    A(2,1,5)              102.0817         -DE/DX =    0.0                 !
 ! A2    A(2,1,9)               90.8647         -DE/DX =    0.0                 !
 ! A3    A(5,1,9)              137.6579         -DE/DX =    0.0                 !
 ! A4    A(1,2,3)              110.4023         -DE/DX =    0.0                 !
 ! A5    A(1,2,6)              108.9176         -DE/DX =    0.0                 !
 ! A6    A(3,2,6)              121.7819         -DE/DX =    0.0                 !
 ! A7    A(2,3,4)              104.9725         -DE/DX =    0.0                 !
 ! A8    A(3,4,5)              108.9401         -DE/DX =    0.0                 !
 ! A9    A(1,5,4)              113.5471         -DE/DX =    0.0                 !
 ! A10   A(1,5,10)             122.7115         -DE/DX =    0.0                 !
 ! A11   A(4,5,10)             123.7112         -DE/DX =    0.0                 !
 ! A12   A(2,6,7)              121.8698         -DE/DX =    0.0                 !
 ! A13   A(2,6,8)              109.3409         -DE/DX =    0.0                 !
 ! A14   A(7,6,8)              128.772          -DE/DX =    0.0                 !
 ! A15   A(6,8,9)               95.4744         -DE/DX =    0.0                 !
 ! A16   A(1,9,8)              134.4961         -DE/DX =    0.0                 !
 ! D1    D(5,1,2,3)              1.0451         -DE/DX =    0.0                 !
 ! D2    D(5,1,2,6)           -135.133          -DE/DX =    0.0                 !
 ! D3    D(9,1,2,3)            140.4385         -DE/DX =    0.0                 !
 ! D4    D(9,1,2,6)              4.2604         -DE/DX =    0.0                 !
 ! D5    D(2,1,5,4)             -2.1951         -DE/DX =    0.0                 !
 ! D6    D(2,1,5,10)           179.7356         -DE/DX =    0.0                 !
 ! D7    D(9,1,5,4)           -107.1347         -DE/DX =    0.0                 !
 ! D8    D(9,1,5,10)            74.796          -DE/DX =    0.0                 !
 ! D9    D(2,1,9,8)              2.3529         -DE/DX =    0.0                 !
 ! D10   D(5,1,9,8)            111.4606         -DE/DX =    0.0                 !
 ! D11   D(1,2,3,4)              0.3617         -DE/DX =    0.0                 !
 ! D12   D(6,2,3,4)            129.9578         -DE/DX =    0.0                 !
 ! D13   D(1,2,6,7)            172.1203         -DE/DX =    0.0                 !
 ! D14   D(1,2,6,8)             -9.2697         -DE/DX =    0.0                 !
 ! D15   D(3,2,6,7)             41.89           -DE/DX =    0.0                 !
 ! D16   D(3,2,6,8)           -139.5            -DE/DX =    0.0                 !
 ! D17   D(2,3,4,5)             -1.6967         -DE/DX =    0.0                 !
 ! D18   D(3,4,5,1)              2.5779         -DE/DX =    0.0                 !
 ! D19   D(3,4,5,10)          -179.375          -DE/DX =    0.0                 !
 ! D20   D(2,6,8,9)              8.7264         -DE/DX =    0.0                 !
 ! D21   D(7,6,8,9)           -172.7877         -DE/DX =    0.0                 !
 ! D22   D(6,8,9,1)             -7.9191         -DE/DX =    0.0                 !
 --------------------------------------------------------------------------------
 GradGradGradGradGradGradGradGradGradGradGradGradGradGradGradGradGradGrad


 ----------------------------------------------------------------------

 Electric dipole moment (input orientation):
 (Debye = 10**-18 statcoulomb cm , SI units = C m)
                  (au)            (Debye)         (10**-30 SI)
   Tot        0.275377D+01      0.699937D+01      0.233474D+02
   x         -0.166792D+01     -0.423944D+01     -0.141412D+02
   y          0.218590D+01      0.555600D+01      0.185328D+02
   z         -0.152016D+00     -0.386386D+00     -0.128885D+01

 Dipole polarizability, Alpha (input orientation).
 (esu units = cm**3 , SI units = C**2 m**2 J**-1)
 Alpha(0;0):
               (au)            (10**-24 esu)      (10**-40 SI)
   iso        0.902293D+02      0.133706D+02      0.148768D+02
   aniso      0.535674D+02      0.793788D+01      0.883208D+01
   xx         0.113291D+03      0.167879D+02      0.186791D+02
   yx        -0.305573D+01     -0.452813D+00     -0.503822D+00
   yy         0.101771D+03      0.150809D+02      0.167798D+02
   zx        -0.155510D+01     -0.230442D+00     -0.256402D+00
   zy        -0.367779D+01     -0.544992D+00     -0.606385D+00
   zz         0.556262D+02      0.824295D+01      0.917152D+01

 ----------------------------------------------------------------------

 Dipole orientation:
     7         -0.27564699          0.64713954          2.31901797
     7         -0.76188573          0.62024949         -0.28610233
     7         -2.25166422         -1.46024030         -0.92163923
     7         -2.67212088         -2.66757999          1.28390457
     6         -1.47337879         -1.46234232          3.10747289
     6          1.52284687          1.19158413         -1.60942821
     8          1.67535655          1.02527112         -3.91763751
     8          3.22912140          1.91566985         -0.00730877
     1          1.97152337          1.36148275          1.92890907
     1         -1.48987540         -2.05680077          5.05952612

 Electric dipole moment (dipole orientation):
 (Debye = 10**-18 statcoulomb cm , SI units = C m)
                  (au)            (Debye)         (10**-30 SI)
   Tot        0.275377D+01      0.699937D+01      0.233474D+02
   x          0.000000D+00      0.000000D+00      0.000000D+00
   y          0.000000D+00      0.000000D+00      0.000000D+00
   z          0.275377D+01      0.699937D+01      0.233474D+02

 Dipole polarizability, Alpha (dipole orientation).
 (esu units = cm**3 , SI units = C**2 m**2 J**-1)
 Alpha(0;0):
               (au)            (10**-24 esu)      (10**-40 SI)
   iso        0.902293D+02      0.133706D+02      0.148768D+02
   aniso      0.535674D+02      0.793788D+01      0.883208D+01
   xx         0.838310D+02      0.124225D+02      0.138219D+02
   yx         0.253772D+02      0.376051D+01      0.418413D+01
   yy         0.778438D+02      0.115353D+02      0.128347D+02
   zx        -0.430889D+01     -0.638511D+00     -0.710440D+00
   zy        -0.450941D+01     -0.668226D+00     -0.743502D+00
   zz         0.109013D+03      0.161541D+02      0.179739D+02

 ----------------------------------------------------------------------
 1\1\GINC-NODE3\Freq\UM062X\6-31+G(d,p)\C2H2N4O2(1-,2)\GONGKE2021\05-No
 v-2023\0\\#N Geom=AllCheck Guess=TCheck SCRF=Check GenChk UM062X/6-31+
 G(d,p) Freq\\Title Card Required\\-1,2\N,-0.6582447369,1.0139493183,-0
 .4279256843\N,0.0121019326,-0.2160161043,-0.496376795\N,-0.8266890304,
 -1.2508674254,-0.081394285\N,-1.9948247173,-0.6504560863,0.2265602247\
 C,-1.8667197909,0.6507837615,0.0512429384\C,1.3296731888,-0.0559296358
 ,0.0345840328\O,2.0740739603,-1.0137456504,0.2207538975\O,1.5634772976
 ,1.204151951,0.2305174766\H,0.3865664571,1.5811284425,0.0036634037\H,-
 2.6578045609,1.3615254289,0.2386357905\\Version=ES64L-G16RevA.03\State
 =2-A\HF=-446.7766269\S2=0.764198\S2-1=0.\S2A=0.750063\RMSD=2.511e-09\R
 MSF=2.277e-05\ZeroPoint=0.0556601\Thermal=0.0613201\Dipole=-1.6679237,
 2.1858974,-0.152016\DipoleDeriv=-1.1826199,-0.6029855,-0.0350524,-0.46
 74755,-1.0496941,0.2653766,-0.0235738,0.4604805,-0.3919836,-1.6281934,
 -0.0892356,0.0569642,-0.2975168,-0.0977753,-0.1333182,-0.4192467,-0.06
 1463,-0.3856242,0.2735381,0.5773256,-0.2582062,0.1282107,-0.4287135,-0
 .0252025,-0.1358455,-0.1608438,-0.1792726,-0.6809864,-0.5728163,0.0332
 176,0.0671625,-0.2846376,0.006221,0.1353734,0.1458166,-0.3358135,0.517
 4314,0.4946178,-0.2248094,0.1218141,0.6667848,-0.1806956,-0.2589864,-0
 .3546837,0.1595541,3.2775364,-0.4787904,0.4963278,-0.694142,2.8925142,
 0.0688633,0.8480332,0.0477832,0.7622681,-1.7630763,0.6506431,-0.137704
 5,1.0217222,-1.5591422,0.1233311,-0.3058664,0.1332834,-0.6677772,-1.75
 78788,-0.3715101,-0.1443903,-0.0084948,-1.7836732,-0.0821495,-0.199369
 6,-0.1650728,-0.5997041,1.8420069,0.3456809,0.1898858,0.0977031,0.5105
 126,-0.0401451,0.3334017,-0.0681538,0.4336867,0.102242,0.0470705,0.023
 7674,0.0310166,0.1338244,-0.0022812,0.0260802,0.0228535,0.2046662\Pola
 r=113.2906185,-3.0557308,101.7712263,-1.555103,-3.6777859,55.6261707\Q
 uadrupole=-6.4521612,0.1106415,6.3415198,-4.1000825,-1.7895331,1.33081
 22\PG=C01 [X(C2H2N4O2)]\NImag=1\\0.58120856,0.06271781,0.42877084,-0.0
 8387910,-0.02538933,0.13824260,-0.11546491,0.03542803,0.00817437,0.645
 39602,0.05632410,-0.17408443,-0.03376888,-0.00267577,0.52408830,-0.010
 66227,0.01919254,-0.04106516,0.00453621,-0.01996678,0.11974958,0.00809
 090,-0.01964260,0.00417388,-0.10025903,-0.06126578,0.00467369,0.336149
 90,-0.00961302,-0.07746084,0.01640816,0.00400248,-0.16440400,0.0219870
 4,-0.07024627,0.44805323,-0.00210156,0.00923221,-0.00512450,0.01549817
 ,0.05612579,-0.03583325,-0.06407995,-0.01821973,0.07905317,-0.05416977
 ,-0.03251676,0.03012259,-0.09993349,-0.03830674,0.03202127,-0.17886913
 ,0.02828517,0.03739932,0.39360820,-0.08397026,-0.04274739,0.03604152,0
 .01433873,0.00048700,-0.00760378,0.08961719,-0.13955342,-0.01939094,0.
 04611190,0.60140741,0.03887364,0.02334463,0.02170222,0.03736091,0.0148
 7089,0.00203227,0.03377352,-0.00356899,-0.06564709,-0.10732911,-0.0653
 5445,0.12633238,-0.27510259,-0.04205168,0.07727143,-0.08926858,0.05090
 594,0.02440014,-0.04122716,0.06091116,0.01551384,-0.07702226,-0.056980
 76,0.00622747,0.71365991,-0.06828498,-0.11957799,0.01105883,0.01265410
 ,-0.00913476,0.00001429,0.08690372,-0.07155518,-0.01510054,-0.03083046
 ,-0.40331078,0.04101424,-0.15461321,0.80798551,0.08285675,0.00882378,-
 0.08649857,0.03212438,-0.01428992,-0.00610734,0.00946827,-0.01100812,0
 .02122314,0.00477246,0.04933362,-0.08010622,-0.17307614,-0.01247687,0.
 19875398,-0.05315920,0.01254638,-0.01405563,-0.14113208,0.02072084,0.0
 0347367,-0.03669596,-0.02930277,0.00011951,0.01596652,-0.01417213,-0.0
 0732921,0.01492031,0.00880054,-0.00900078,0.58312247,-0.00446950,-0.00
 576546,-0.00077560,-0.02364979,-0.10223206,0.00353027,-0.02116314,-0.0
 0333213,-0.01073662,-0.00496329,-0.00714392,0.00433251,0.00866892,-0.0
 0736667,-0.00518595,-0.21057045,0.85306337,-0.00728795,0.00334331,-0.0
 0231982,-0.04447326,0.02052380,-0.06342525,0.01047054,-0.02026852,0.00
 402115,0.01149126,0.00259074,-0.00533622,0.00562733,-0.00210369,-0.003
 70490,0.08707716,-0.02618776,0.24072512,-0.00771756,-0.00165574,-0.000
 96375,-0.05462024,0.03708725,-0.03300670,0.00870763,0.00472546,0.00201
 886,-0.00610569,0.00415011,0.00147054,-0.00297258,0.00145580,0.0004041
 2,-0.28142258,0.23787509,-0.05601630,0.32339893,0.01345518,0.00136589,
 0.00126181,0.03034310,0.00668029,0.02425098,-0.00567720,0.00145226,-0.
 00234926,0.00642081,-0.00236846,-0.00413215,-0.00009250,0.00183427,0.0
 0120476,0.24358467,-0.39226446,0.05630582,-0.31091766,0.49109729,-0.00
 294766,-0.00368800,0.00267297,-0.02733183,0.01476197,0.00411730,0.0008
 1792,0.00215041,-0.00051389,-0.00302324,0.00099515,0.00132067,-0.00158
 504,0.00124314,0.00078481,-0.04845634,0.05917186,-0.08996118,0.0813041
 7,-0.07231474,0.05662705,-0.11325225,-0.03019092,-0.02612231,-0.032430
 63,-0.03364970,-0.01643123,0.00044548,-0.00020296,-0.00458937,-0.01008
 377,-0.00968360,0.00972114,0.01601688,-0.00154661,-0.01852387,-0.13101
 803,-0.06320988,-0.02301079,0.02163450,0.04646752,0.00359932,0.2226469
 8,0.05270349,0.01588896,0.00968027,-0.05153805,-0.04645250,-0.03446618
 ,0.00315308,0.01163776,-0.00052490,-0.00225460,0.00668156,-0.00052311,
 -0.01346409,-0.00312507,0.00900912,-0.06270934,-0.30736240,-0.03960656
 ,0.03080870,-0.10693334,-0.00013328,0.09639885,0.46688830,-0.02592849,
 -0.00375597,0.00387909,-0.02456643,-0.02751642,0.01753207,-0.00123519,
 0.00873680,-0.00308495,-0.00412234,-0.00388079,0.00263800,0.00151377,-
 0.00279473,-0.00286726,-0.02058586,-0.03872828,-0.08858375,0.00561538,
 0.00097654,0.02278933,0.06266734,0.06925914,0.07588287,0.04249740,-0.0
 0323106,0.00370872,-0.00897347,-0.02725286,-0.01142695,0.00155171,0.01
 498456,-0.00228434,0.00731359,0.01627628,-0.00894655,-0.03268241,-0.00
 643269,0.02177074,0.02852087,0.08065851,0.01502625,-0.00021685,-0.0239
 0424,-0.00188128,0.02654892,-0.05300170,0.00683627,-0.06497187,-0.0104
 5350,-0.03940529,-0.01605548,-0.01376591,-0.03386349,-0.00898100,-0.00
 006934,-0.00177438,-0.00047606,0.00316763,0.00229558,-0.00340972,-0.00
 402486,-0.00367318,0.00766566,0.03041964,-0.02844549,0.00480593,-0.003
 15051,-0.00101328,-0.00186559,-0.00453615,-0.03697125,-0.00231875,0.00
 226466,0.14304476,0.00329502,-0.02460492,-0.02830483,-0.00383705,-0.01
 274776,-0.00286477,0.00130234,0.00102723,-0.00124046,0.00351459,0.0049
 5955,-0.00166187,-0.00087581,0.01307023,0.00545556,0.00880179,0.015419
 18,0.00847489,-0.00148164,-0.00514920,0.00207620,0.01239040,-0.0127747
 1,-0.02829668,-0.02331932,0.02089967,0.04687684,-0.01293060,0.01859653
 ,0.00156981,-0.00331361,-0.00188729,0.00242217,0.00210566,-0.00354381,
 0.00250553,0.00929581,-0.00568745,-0.00382235,-0.22632154,0.15189381,0
 .04920405,0.00089768,0.00082354,0.00109576,-0.00068556,0.00032032,-0.0
 0049603,-0.00050808,-0.00009634,-0.00019444,0.00041211,0.00014835,0.00
 020967,0.23104812,-0.00840931,0.01301571,0.00153870,-0.00513691,-0.001
 08435,0.00204263,-0.00160965,-0.00306330,0.00144005,0.02488635,-0.0157
 4759,-0.00657386,0.15074109,-0.19207615,-0.03307608,0.00068261,0.00084
 923,0.00059692,-0.00037849,0.00014954,-0.00032092,0.00015344,-0.000252
 01,0.00002245,-0.00036148,-0.00019397,-0.00009927,-0.16056765,0.198402
 90,0.00778161,-0.00649825,-0.00318399,0.00251454,0.00200730,0.00586455
 ,0.00063498,0.00275572,0.00714667,-0.00484679,0.00230939,-0.00127414,0
 .04498301,-0.03392490,-0.04693321,-0.00004432,-0.00083961,0.00010996,0
 .00065532,-0.00005458,0.00008675,0.00029938,0.00008020,0.00011128,0.00
 051647,-0.00026465,-0.00051487,-0.05249418,0.03442938,0.03858700\\-0.0
 0004264,0.00002490,0.00000150,-0.00002296,-0.00004541,0.00001647,0.000
 05221,0.00001054,-0.00003126,-0.00001320,-0.00003167,-0.00001510,0.000
 01167,0.00002779,-0.00003188,0.00001661,-0.00001373,0.00001979,0.00000
 138,0.00000600,0.00002297,0.00001151,0.00002051,0.00001130,-0.00001021
 ,0.00000877,0.00002214,-0.00000437,-0.00000771,-0.00001593\\\@


 I WISH TO HAVE NO CONNECTION WITH ANY SHIP THAT DOES NOT SAIL FAST,
 FOR I INTEND TO GO IN HARM'S WAY.
     -- JOHN PAUL JONES, USN 1747-1792
 Job cpu time:       0 days  0 hours 32 minutes 38.2 seconds.
 Elapsed time:       0 days  0 hours  1 minutes 38.9 seconds.
 File lengths (MBytes):  RWF=     82 Int=      0 D2E=      0 Chk=      9 Scr=      1
 Normal termination of Gaussian 16 at Sun Nov  5 06:27:50 2023.
