 Entering Gaussian System, Link 0=/opt/soft/g16/g16
 Initial command:
 /opt/soft/g16/l1.exe "/scratch/gongke2021/1-H-Tz-RC/Gau-28578.inp" -scrdir="/scratch/gongke2021/1-H-Tz-RC/"
 Entering Link 1 = /opt/soft/g16/l1.exe PID=     28579.
  
 Copyright (c) 1988,1990,1992,1993,1995,1998,2003,2009,2016,
            Gaussian, Inc.  All Rights Reserved.
  
 This is part of the Gaussian(R) 16 program.  It is based on
 the Gaussian(R) 09 system (copyright 2009, Gaussian, Inc.),
 the Gaussian(R) 03 system (copyright 2003, Gaussian, Inc.),
 the Gaussian(R) 98 system (copyright 1998, Gaussian, Inc.),
 the Gaussian(R) 94 system (copyright 1995, Gaussian, Inc.),
 the Gaussian 92(TM) system (copyright 1992, Gaussian, Inc.),
 the Gaussian 90(TM) system (copyright 1990, Gaussian, Inc.),
 the Gaussian 88(TM) system (copyright 1988, Gaussian, Inc.),
 the Gaussian 86(TM) system (copyright 1986, Carnegie Mellon
 University), and the Gaussian 82(TM) system (copyright 1983,
 Carnegie Mellon University). Gaussian is a federally registered
 trademark of Gaussian, Inc.
  
 This software contains proprietary and confidential information,
 including trade secrets, belonging to Gaussian, Inc.
  
 This software is provided under written license and may be
 used, copied, transmitted, or stored only in accord with that
 written license.
  
 The following legend is applicable only to US Government
 contracts under FAR:
  
                    RESTRICTED RIGHTS LEGEND
  
 Use, reproduction and disclosure by the US Government is
 subject to restrictions as set forth in subparagraphs (a)
 and (c) of the Commercial Computer Software - Restricted
 Rights clause in FAR 52.227-19.
  
 Gaussian, Inc.
 340 Quinnipiac St., Bldg. 40, Wallingford CT 06492
  
  
 ---------------------------------------------------------------
 Warning -- This program may not be used in any manner that
 competes with the business of Gaussian, Inc. or will provide
 assistance to any competitor of Gaussian, Inc.  The licensee
 of this program is prohibited from giving any competitor of
 Gaussian, Inc. access to this program.  By using this program,
 the user acknowledges that Gaussian, Inc. is engaged in the
 business of creating and licensing software in the field of
 computational chemistry and represents and warrants to the
 licensee that it is not a competitor of Gaussian, Inc. and that
 it will not use this program in any manner prohibited above.
 ---------------------------------------------------------------
  

 Cite this work as:
 Gaussian 16, Revision A.03,
 M. J. Frisch, G. W. Trucks, H. B. Schlegel, G. E. Scuseria, 
 M. A. Robb, J. R. Cheeseman, G. Scalmani, V. Barone, 
 G. A. Petersson, H. Nakatsuji, X. Li, M. Caricato, A. V. Marenich, 
 J. Bloino, B. G. Janesko, R. Gomperts, B. Mennucci, H. P. Hratchian, 
 J. V. Ortiz, A. F. Izmaylov, J. L. Sonnenberg, D. Williams-Young, 
 F. Ding, F. Lipparini, F. Egidi, J. Goings, B. Peng, A. Petrone, 
 T. Henderson, D. Ranasinghe, V. G. Zakrzewski, J. Gao, N. Rega, 
 G. Zheng, W. Liang, M. Hada, M. Ehara, K. Toyota, R. Fukuda, 
 J. Hasegawa, M. Ishida, T. Nakajima, Y. Honda, O. Kitao, H. Nakai, 
 T. Vreven, K. Throssell, J. A. Montgomery, Jr., J. E. Peralta, 
 F. Ogliaro, M. J. Bearpark, J. J. Heyd, E. N. Brothers, K. N. Kudin, 
 V. N. Staroverov, T. A. Keith, R. Kobayashi, J. Normand, 
 K. Raghavachari, A. P. Rendell, J. C. Burant, S. S. Iyengar, 
 J. Tomasi, M. Cossi, J. M. Millam, M. Klene, C. Adamo, R. Cammi, 
 J. W. Ochterski, R. L. Martin, K. Morokuma, O. Farkas, 
 J. B. Foresman, and D. J. Fox, Gaussian, Inc., Wallingford CT, 2016.
 
 ******************************************
 Gaussian 16:  ES64L-G16RevA.03 25-Dec-2016
                 5-Jul-2023 
 ******************************************
 %mem=10GB
 %nprocshared=24
 Will use up to   24 processors via shared memory.
 -----------------------------------------------------
 # opt freq 6-31+g(d,p) m062x scrf=(SMD,solvent=water)
 -----------------------------------------------------
 1/18=20,19=15,26=3,38=1/1,3;
 2/9=110,12=2,17=6,18=5,40=1/2;
 3/5=1,6=6,7=111,11=2,25=1,30=1,70=32201,71=1,72=1,74=-55/1,2,3;
 4//1;
 5/5=2,38=5,53=1/2;
 6/7=2,8=2,9=2,10=2,28=1/1;
 7//1,2,3,16;
 1/18=20,19=15,26=3/3(2);
 2/9=110/2;
 99//99;
 2/9=110/2;
 3/5=1,6=6,7=111,11=2,25=1,30=1,70=32205,71=1,72=1,74=-55/1,2,3;
 4/5=5,16=3,69=1/1;
 5/5=2,38=5,53=1/2;
 7//1,2,3,16;
 1/18=20,19=15,26=3/3(-5);
 2/9=110/2;
 6/7=2,8=2,9=2,10=2,19=2,28=1/1;
 99/9=1/99;
 -------
 h2o-opt
 -------
 Symbolic Z-matrix:
 Charge =  0 Multiplicity = 1
 N                    -0.4678   -0.2995    0.03831 
 N                    -1.24307   0.78451   0.01258 
 C                    -2.54727   0.4475   -0.02418 
 C                    -2.5309   -0.92947  -0.01854 
 N                    -1.2378   -1.34356   0.01971 
 H                    -3.34083   1.17636  -0.05118 
 H                    -3.35016  -1.63011  -0.03976 
 H                    -0.78115   1.69596   0.02056 
 C                     2.21435  -0.85932  -0.01066 
 O                     2.5259    0.26758  -0.05085 
 O                     1.98299  -1.99212   0.02816 
 O                     0.81895   2.66045  -0.04243 
 H                     1.18239   3.36379   0.50342 
 H                     1.49073   1.96425  -0.08607 
 
 Add virtual bond connecting atoms O12        and H8         Dist= 3.53D+00.
 Add virtual bond connecting atoms H14        and O10        Dist= 3.76D+00.

 GradGradGradGradGradGradGradGradGradGradGradGradGradGradGradGradGradGrad
 Berny optimization.
 Initialization pass.
                           ----------------------------
                           !    Initial Parameters    !
                           ! (Angstroms and Degrees)  !
 --------------------------                            --------------------------
 ! Name  Definition              Value          Derivative Info.                !
 --------------------------------------------------------------------------------
 ! R1    R(1,2)                  1.333          estimate D2E/DX2                !
 ! R2    R(1,5)                  1.2974         estimate D2E/DX2                !
 ! R3    R(2,3)                  1.3475         estimate D2E/DX2                !
 ! R4    R(2,8)                  1.0219         estimate D2E/DX2                !
 ! R5    R(3,4)                  1.3771         estimate D2E/DX2                !
 ! R6    R(3,6)                  1.0778         estimate D2E/DX2                !
 ! R7    R(4,5)                  1.3583         estimate D2E/DX2                !
 ! R8    R(4,7)                  1.0782         estimate D2E/DX2                !
 ! R9    R(8,12)                 1.8694         estimate D2E/DX2                !
 ! R10   R(9,10)                 1.1699         estimate D2E/DX2                !
 ! R11   R(9,11)                 1.1568         estimate D2E/DX2                !
 ! R12   R(10,14)                1.9878         estimate D2E/DX2                !
 ! R13   R(12,13)                0.9616         estimate D2E/DX2                !
 ! R14   R(12,14)                0.9685         estimate D2E/DX2                !
 ! A1    A(2,1,5)              107.9975         estimate D2E/DX2                !
 ! A2    A(1,2,3)              111.1032         estimate D2E/DX2                !
 ! A3    A(1,2,8)              117.5364         estimate D2E/DX2                !
 ! A4    A(3,2,8)              131.3602         estimate D2E/DX2                !
 ! A5    A(2,3,4)              103.7956         estimate D2E/DX2                !
 ! A6    A(2,3,6)              122.9662         estimate D2E/DX2                !
 ! A7    A(4,3,6)              133.2381         estimate D2E/DX2                !
 ! A8    A(3,4,5)              108.4365         estimate D2E/DX2                !
 ! A9    A(3,4,7)              129.8409         estimate D2E/DX2                !
 ! A10   A(5,4,7)              121.7226         estimate D2E/DX2                !
 ! A11   A(1,5,4)              108.6672         estimate D2E/DX2                !
 ! A12   A(2,8,12)             147.873          estimate D2E/DX2                !
 ! A13   A(9,10,14)            133.1654         estimate D2E/DX2                !
 ! A14   A(8,12,13)            132.9799         estimate D2E/DX2                !
 ! A15   A(8,12,14)            102.9651         estimate D2E/DX2                !
 ! A16   A(13,12,14)           106.811          estimate D2E/DX2                !
 ! A17   L(10,9,11,1,-1)       183.9089         estimate D2E/DX2                !
 ! A18   L(10,14,12,1,-1)      167.2682         estimate D2E/DX2                !
 ! A19   L(10,9,11,1,-2)       180.0199         estimate D2E/DX2                !
 ! A20   L(10,14,12,1,-2)      176.8904         estimate D2E/DX2                !
 ! D1    D(5,1,2,3)             -0.0257         estimate D2E/DX2                !
 ! D2    D(5,1,2,8)           -179.8582         estimate D2E/DX2                !
 ! D3    D(2,1,5,4)             -0.0039         estimate D2E/DX2                !
 ! D4    D(1,2,3,4)              0.043          estimate D2E/DX2                !
 ! D5    D(1,2,3,6)           -179.8849         estimate D2E/DX2                !
 ! D6    D(8,2,3,4)            179.8452         estimate D2E/DX2                !
 ! D7    D(8,2,3,6)             -0.0827         estimate D2E/DX2                !
 ! D8    D(1,2,8,12)             5.8276         estimate D2E/DX2                !
 ! D9    D(3,2,8,12)          -173.9643         estimate D2E/DX2                !
 ! D10   D(2,3,4,5)             -0.0443         estimate D2E/DX2                !
 ! D11   D(2,3,4,7)            179.9973         estimate D2E/DX2                !
 ! D12   D(6,3,4,5)            179.8727         estimate D2E/DX2                !
 ! D13   D(6,3,4,7)             -0.0857         estimate D2E/DX2                !
 ! D14   D(3,4,5,1)              0.0311         estimate D2E/DX2                !
 ! D15   D(7,4,5,1)            179.9936         estimate D2E/DX2                !
 ! D16   D(2,8,12,13)         -130.0447         estimate D2E/DX2                !
 ! D17   D(2,8,12,14)           -1.7137         estimate D2E/DX2                !
 ! D18   D(9,10,12,8)           -0.7431         estimate D2E/DX2                !
 ! D19   D(9,10,12,13)         139.61           estimate D2E/DX2                !
 --------------------------------------------------------------------------------
 Trust Radius=3.00D-01 FncErr=1.00D-07 GrdErr=1.00D-06 EigMax=2.50D+02 EigMin=1.00D-04
 Number of steps in this run=     63 maximum allowed number of steps=    100.
 GradGradGradGradGradGradGradGradGradGradGradGradGradGradGradGradGradGrad

                          Input orientation:                          
 ---------------------------------------------------------------------
 Center     Atomic      Atomic             Coordinates (Angstroms)
 Number     Number       Type             X           Y           Z
 ---------------------------------------------------------------------
      1          7           0       -0.467804   -0.299496    0.038311
      2          7           0       -1.243066    0.784512    0.012581
      3          6           0       -2.547268    0.447503   -0.024178
      4          6           0       -2.530904   -0.929472   -0.018540
      5          7           0       -1.237801   -1.343557    0.019714
      6          1           0       -3.340826    1.176362   -0.051183
      7          1           0       -3.350164   -1.630112   -0.039759
      8          1           0       -0.781145    1.695963    0.020559
      9          6           0        2.214347   -0.859322   -0.010658
     10          8           0        2.525895    0.267578   -0.050848
     11          8           0        1.982985   -1.992121    0.028157
     12          8           0        0.818953    2.660454   -0.042428
     13          1           0        1.182392    3.363792    0.503424
     14          1           0        1.490731    1.964246   -0.086074
 ---------------------------------------------------------------------
                    Distance matrix (angstroms):
                    1          2          3          4          5
     1  N    0.000000
     2  N    1.332954   0.000000
     3  C    2.210449   1.347542   0.000000
     4  C    2.157889   2.144117   1.377084   0.000000
     5  N    1.297422   2.128087   2.219127   1.358324   0.000000
     6  H    3.231164   2.134996   1.077821   2.256452   3.282946
     7  H    3.175631   3.205154   2.227413   1.078209   2.132540
     8  H    2.019989   1.021850   2.163295   3.155328   3.073633
     9  C    2.740390   3.828372   4.937707   4.745776   3.486077
    10  O    3.048238   3.804775   5.076423   5.196652   4.094648
    11  O    2.978498   4.256447   5.145648   4.637521   3.285448
    12  O    3.228555   2.788209   4.028514   4.910161   4.501800
    13  H    4.044645   3.574417   4.763766   5.700274   5.315115
    14  H    2.995974   2.979119   4.313905   4.954968   4.289247
                    6          7          8          9         10
     6  H    0.000000
     7  H    2.806513   0.000000
     8  H    2.612872   4.203126   0.000000
     9  C    5.916553   5.617717   3.937439   0.000000
    10  O    5.936691   6.174902   3.603040   1.169864   0.000000
    11  O    6.195849   5.345853   4.608952   1.156836   2.325346
    12  O    4.416601   5.982516   1.869365   3.786417   2.939316
    13  H    5.054893   6.765958   2.621124   4.377660   3.420345
    14  H    4.895500   6.029579   2.290146   2.915792   1.987835
                   11         12         13         14
    11  O    0.000000
    12  O    4.796499   0.000000
    13  H    5.436233   0.961627   0.000000
    14  H    3.988509   0.968450   1.549616   0.000000
 Stoichiometry    C3H5N3O3
 Framework group  C1[X(C3H5N3O3)]
 Deg. of freedom    36
 Full point group                 C1      NOp   1
 Largest Abelian subgroup         C1      NOp   1
 Largest concise Abelian subgroup C1      NOp   1
                         Standard orientation:                         
 ---------------------------------------------------------------------
 Center     Atomic      Atomic             Coordinates (Angstroms)
 Number     Number       Type             X           Y           Z
 ---------------------------------------------------------------------
      1          7           0       -0.467804   -0.299496    0.038311
      2          7           0       -1.243066    0.784512    0.012581
      3          6           0       -2.547268    0.447503   -0.024178
      4          6           0       -2.530904   -0.929472   -0.018540
      5          7           0       -1.237801   -1.343557    0.019714
      6          1           0       -3.340826    1.176362   -0.051183
      7          1           0       -3.350164   -1.630112   -0.039759
      8          1           0       -0.781145    1.695963    0.020559
      9          6           0        2.214347   -0.859322   -0.010658
     10          8           0        2.525895    0.267578   -0.050848
     11          8           0        1.982985   -1.992121    0.028157
     12          8           0        0.818953    2.660454   -0.042428
     13          1           0        1.182392    3.363792    0.503424
     14          1           0        1.490731    1.964246   -0.086074
 ---------------------------------------------------------------------
 Rotational constants (GHZ):           1.9686045           1.0923390           0.7032646
 Standard basis: 6-31+G(d,p) (6D, 7F)
 There are   196 symmetry adapted cartesian basis functions of A   symmetry.
 There are   196 symmetry adapted basis functions of A   symmetry.
   196 basis functions,   323 primitive gaussians,   196 cartesian basis functions
    34 alpha electrons       34 beta electrons
       nuclear repulsion energy       422.3828106502 Hartrees.
 NAtoms=   14 NActive=   14 NUniq=   14 SFac= 1.00D+00 NAtFMM=   60 NAOKFM=F Big=F
 Integral buffers will be    131072 words long.
 Raffenetti 2 integral format.
 Two-electron integral symmetry is turned on.
 ------------------------------------------------------------------------------
 Polarizable Continuum Model (PCM)
 =================================
 Model                : PCM.
 Atomic radii         : SMD-Coulomb.
 Polarization charges : Total charges.
 Charge compensation  : None.
 Solution method      : On-the-fly selection.
 Cavity type          : VdW (van der Waals Surface) (Alpha=1.000).
 Cavity algorithm     : GePol (No added spheres)
                        Default sphere list used, NSphG=   14.
                        Lebedev-Laikov grids with approx.  5.0 points / Ang**2.
                        Smoothing algorithm: York/Karplus (Gamma=1.0000).
                        Polarization charges: spherical gaussians, with
                                              point-specific exponents (IZeta= 3).
                        Self-potential: point-specific (ISelfS= 7).
                        Self-field    : sphere-specific E.n sum rule (ISelfD= 2).
 1st derivatives      : Analytical E(r).r(x)/FMM algorithm (CHGder, D1EAlg=3).
                        Cavity 1st derivative terms included.
 Solvent              : Water, Eps=  78.355300 Eps(inf)=   1.777849
 ------------------------------------------------------------------------------
 Spheres list:
 ISph  on   Nord     Re0    Alpha      Xe            Ye            Ze
    1   N      1    1.8900  1.000     -0.467804     -0.299496      0.038311
    2   N      2    1.8900  1.000     -1.243066      0.784512      0.012581
    3   C      3    1.8500  1.000     -2.547268      0.447503     -0.024178
    4   C      4    1.8500  1.000     -2.530904     -0.929472     -0.018540
    5   N      5    1.8900  1.000     -1.237801     -1.343557      0.019714
    6   H      6    1.2000  1.000     -3.340826      1.176362     -0.051183
    7   H      7    1.2000  1.000     -3.350164     -1.630112     -0.039759
    8   H      8    1.2000  1.000     -0.781145      1.695963      0.020559
    9   C      9    1.8500  1.000      2.214347     -0.859322     -0.010658
   10   O     10    1.5200  1.000      2.525895      0.267578     -0.050848
   11   O     11    1.5200  1.000      1.982985     -1.992121      0.028157
   12   O     12    1.5200  1.000      0.818953      2.660454     -0.042428
   13   H     13    1.2000  1.000      1.182392      3.363792      0.503424
   14   H     14    1.2000  1.000      1.490731      1.964246     -0.086074
 ------------------------------------------------------------------------------
 ------------------------------------------------------------------------------
 Atomic radii for non-electrostatic terms: SMD-CDS.
 ------------------------------------------------------------------------------
 Nuclear repulsion after PCM non-electrostatic terms =      422.3932744287 Hartrees.
 One-electron integrals computed using PRISM.
 NBasis=   196 RedAO= T EigKep=  4.23D-05  NBF=   196
 NBsUse=   196 1.00D-06 EigRej= -1.00D+00 NBFU=   196
 ExpMin= 4.38D-02 ExpMax= 5.48D+03 ExpMxC= 8.25D+02 IAcc=3 IRadAn=         5 AccDes= 0.00D+00
 Harris functional with IExCor= 1009 and IRadAn=       5 diagonalized for initial guess.
 HarFok:  IExCor= 1009 AccDes= 0.00D+00 IRadAn=         5 IDoV= 1 UseB2=F ITyADJ=14
 ICtDFT=  3500011 ScaDFX=  1.000000  1.000000  1.000000  1.000000
 FoFCou: FMM=F IPFlag=           0 FMFlag=      100000 FMFlg1=           0
         NFxFlg=           0 DoJE=T BraDBF=F KetDBF=T FulRan=T
         wScrn=  0.000000 ICntrl=       500 IOpCl=  0 I1Cent=   200000004 NGrid=           0
         NMat0=    1 NMatS0=      1 NMatT0=    0 NMatD0=    1 NMtDS0=    0 NMtDT0=    0
 Petite list used in FoFCou.
 Requested convergence on RMS density matrix=1.00D-08 within 128 cycles.
 Requested convergence on MAX density matrix=1.00D-06.
 Requested convergence on             energy=1.00D-06.
 No special actions if energy rises.
 Inv3:  Mode=1 IEnd=     4938267.
 Iteration    1 A*A^-1 deviation from unit magnitude is 2.66D-15 for    185.
 Iteration    1 A*A^-1 deviation from orthogonality  is 2.50D-15 for    696    391.
 Iteration    1 A^-1*A deviation from unit magnitude is 3.33D-15 for    232.
 Iteration    1 A^-1*A deviation from orthogonality  is 5.07D-14 for   1092   1059.
 Error on total polarization charges =  0.03996
 SCF Done:  E(RM062X) =  -507.090510953     A.U. after   14 cycles
            NFock= 14  Conv=0.26D-08     -V/T= 2.0083
 SMD-CDS (non-electrostatic) energy       (kcal/mol) =       6.57
 (included in total energy above)

 **********************************************************************

            Population analysis using the SCF density.

 **********************************************************************

 Orbital symmetries:
       Occupied  (A) (A) (A) (A) (A) (A) (A) (A) (A) (A) (A) (A)
                 (A) (A) (A) (A) (A) (A) (A) (A) (A) (A) (A) (A)
                 (A) (A) (A) (A) (A) (A) (A) (A) (A) (A)
       Virtual   (A) (A) (A) (A) (A) (A) (A) (A) (A) (A) (A) (A)
                 (A) (A) (A) (A) (A) (A) (A) (A) (A) (A) (A) (A)
                 (A) (A) (A) (A) (A) (A) (A) (A) (A) (A) (A) (A)
                 (A) (A) (A) (A) (A) (A) (A) (A) (A) (A) (A) (A)
                 (A) (A) (A) (A) (A) (A) (A) (A) (A) (A) (A) (A)
                 (A) (A) (A) (A) (A) (A) (A) (A) (A) (A) (A) (A)
                 (A) (A) (A) (A) (A) (A) (A) (A) (A) (A) (A) (A)
                 (A) (A) (A) (A) (A) (A) (A) (A) (A) (A) (A) (A)
                 (A) (A) (A) (A) (A) (A) (A) (A) (A) (A) (A) (A)
                 (A) (A) (A) (A) (A) (A) (A) (A) (A) (A) (A) (A)
                 (A) (A) (A) (A) (A) (A) (A) (A) (A) (A) (A) (A)
                 (A) (A) (A) (A) (A) (A) (A) (A) (A) (A) (A) (A)
                 (A) (A) (A) (A) (A) (A) (A) (A) (A) (A) (A) (A)
                 (A) (A) (A) (A) (A) (A)
 The electronic state is 1-A.
 Alpha  occ. eigenvalues --  -19.73068 -19.72886 -19.65266 -14.84863 -14.83160
 Alpha  occ. eigenvalues --  -14.79569 -10.75499 -10.59439 -10.57321  -1.29195
 Alpha  occ. eigenvalues --   -1.24170  -1.22539  -1.13620  -1.01121  -0.90744
 Alpha  occ. eigenvalues --   -0.72778  -0.70623  -0.66611  -0.64532  -0.62211
 Alpha  occ. eigenvalues --   -0.60262  -0.60069  -0.59501  -0.55226  -0.52508
 Alpha  occ. eigenvalues --   -0.51549  -0.47459  -0.44493  -0.44484  -0.41621
 Alpha  occ. eigenvalues --   -0.40701  -0.36924  -0.35583  -0.32257
 Alpha virt. eigenvalues --    0.01248   0.03035   0.03166   0.03783   0.05300
 Alpha virt. eigenvalues --    0.05641   0.05837   0.06846   0.07852   0.07925
 Alpha virt. eigenvalues --    0.08673   0.08826   0.09337   0.09889   0.11962
 Alpha virt. eigenvalues --    0.12515   0.15215   0.16210   0.17344   0.17861
 Alpha virt. eigenvalues --    0.18475   0.19085   0.20671   0.21299   0.22392
 Alpha virt. eigenvalues --    0.22683   0.23416   0.23779   0.25462   0.25526
 Alpha virt. eigenvalues --    0.25643   0.26735   0.27478   0.28757   0.29100
 Alpha virt. eigenvalues --    0.29369   0.31392   0.32289   0.33378   0.34460
 Alpha virt. eigenvalues --    0.35048   0.35795   0.36377   0.37398   0.40159
 Alpha virt. eigenvalues --    0.41365   0.43146   0.43952   0.45107   0.52375
 Alpha virt. eigenvalues --    0.56841   0.71390   0.71971   0.73255   0.76237
 Alpha virt. eigenvalues --    0.77255   0.79936   0.89217   0.89854   0.92892
 Alpha virt. eigenvalues --    0.93418   0.95237   0.95882   0.96468   1.00422
 Alpha virt. eigenvalues --    1.00484   1.02172   1.02709   1.03466   1.06492
 Alpha virt. eigenvalues --    1.07759   1.13678   1.16051   1.17931   1.18447
 Alpha virt. eigenvalues --    1.18965   1.19327   1.21687   1.24393   1.25588
 Alpha virt. eigenvalues --    1.27427   1.29210   1.29977   1.32387   1.32555
 Alpha virt. eigenvalues --    1.37030   1.38861   1.39282   1.40398   1.40595
 Alpha virt. eigenvalues --    1.42784   1.45804   1.48409   1.49693   1.52251
 Alpha virt. eigenvalues --    1.54474   1.57551   1.58071   1.59228   1.61913
 Alpha virt. eigenvalues --    1.63817   1.64639   1.67291   1.78052   1.83113
 Alpha virt. eigenvalues --    1.84738   1.85090   1.91110   1.96084   2.02101
 Alpha virt. eigenvalues --    2.08038   2.08255   2.10280   2.13446   2.18941
 Alpha virt. eigenvalues --    2.19385   2.20471   2.20682   2.21281   2.27698
 Alpha virt. eigenvalues --    2.30319   2.35621   2.37093   2.39048   2.41228
 Alpha virt. eigenvalues --    2.42133   2.49094   2.53357   2.58058   2.58860
 Alpha virt. eigenvalues --    2.61757   2.66696   2.67507   2.69568   2.72500
 Alpha virt. eigenvalues --    2.74950   2.79117   2.84861   2.91624   2.94951
 Alpha virt. eigenvalues --    2.98858   3.03362   3.03871   3.06976   3.08200
 Alpha virt. eigenvalues --    3.22748   3.32223   3.34781   3.37656   3.47505
 Alpha virt. eigenvalues --    3.52345   3.63672   3.81465   4.02325   4.15021
 Alpha virt. eigenvalues --    4.21787   4.29469   4.33038   4.45118   4.66510
 Alpha virt. eigenvalues --    4.74816   4.95945
          Condensed to atoms (all electrons):
               1          2          3          4          5          6
     1  N    7.147191  -0.140798  -0.048083  -0.014336   0.086062   0.012165
     2  N   -0.140798   7.080956   0.217828  -0.050692  -0.037954  -0.046105
     3  C   -0.048083   0.217828   5.381523   0.194658   0.010450   0.386968
     4  C   -0.014336  -0.050692   0.194658   5.455168   0.242131  -0.011295
     5  N    0.086062  -0.037954   0.010450   0.242131   7.061309  -0.002930
     6  H    0.012165  -0.046105   0.386968  -0.011295  -0.002930   0.412840
     7  H    0.015504  -0.003329  -0.020853   0.393611  -0.053959   0.000518
     8  H   -0.005684   0.278723  -0.010876  -0.000715   0.007449  -0.000540
     9  C   -0.019197   0.022759  -0.004866  -0.002450  -0.000294   0.000042
    10  O    0.010407  -0.025568   0.001997  -0.003378   0.016048   0.000004
    11  O    0.031344   0.009884  -0.005702   0.005121  -0.039113   0.000002
    12  O    0.029467  -0.057749   0.007455  -0.005246   0.010599  -0.000111
    13  H   -0.002588   0.004409  -0.000401   0.000213  -0.000618  -0.000000
    14  H    0.002225   0.000637  -0.001647   0.001125  -0.002861  -0.000000
               7          8          9         10         11         12
     1  N    0.015504  -0.005684  -0.019197   0.010407   0.031344   0.029467
     2  N   -0.003329   0.278723   0.022759  -0.025568   0.009884  -0.057749
     3  C   -0.020853  -0.010876  -0.004866   0.001997  -0.005702   0.007455
     4  C    0.393611  -0.000715  -0.002450  -0.003378   0.005121  -0.005246
     5  N   -0.053959   0.007449  -0.000294   0.016048  -0.039113   0.010599
     6  H    0.000518  -0.000540   0.000042   0.000004   0.000002  -0.000111
     7  H    0.450022  -0.000045   0.000118   0.000000  -0.000010   0.000000
     8  H   -0.000045   0.284802   0.000970  -0.000125   0.000107   0.004268
     9  C    0.000118   0.000970   4.300270   0.424041   0.441280  -0.005503
    10  O    0.000000  -0.000125   0.424041   8.124445  -0.110992  -0.002925
    11  O   -0.000010   0.000107   0.441280  -0.110992   8.037945   0.000275
    12  O    0.000000   0.004268  -0.005503  -0.002925   0.000275   8.332191
    13  H   -0.000000  -0.000585   0.000514   0.000059  -0.000004   0.287441
    14  H   -0.000000  -0.000856  -0.000570   0.005019   0.000069   0.270392
              13         14
     1  N   -0.002588   0.002225
     2  N    0.004409   0.000637
     3  C   -0.000401  -0.001647
     4  C    0.000213   0.001125
     5  N   -0.000618  -0.002861
     6  H   -0.000000  -0.000000
     7  H   -0.000000  -0.000000
     8  H   -0.000585  -0.000856
     9  C    0.000514  -0.000570
    10  O    0.000059   0.005019
    11  O   -0.000004   0.000069
    12  O    0.287441   0.270392
    13  H    0.285576  -0.014182
    14  H   -0.014182   0.288510
 Mulliken charges:
               1
     1  N   -0.103677
     2  N   -0.253001
     3  C   -0.108450
     4  C   -0.203913
     5  N   -0.296319
     6  H    0.248442
     7  H    0.218422
     8  H    0.443107
     9  C    0.842884
    10  O   -0.439033
    11  O   -0.370209
    12  O   -0.870554
    13  H    0.440165
    14  H    0.452139
 Sum of Mulliken charges =  -0.00000
 Mulliken charges with hydrogens summed into heavy atoms:
               1
     1  N   -0.103677
     2  N    0.190106
     3  C    0.139991
     4  C    0.014509
     5  N   -0.296319
     9  C    0.842884
    10  O   -0.439033
    11  O   -0.370209
    12  O    0.021749
 Electronic spatial extent (au):  <R**2>=           1475.4024
 Charge=              0.0000 electrons
 Dipole moment (field-independent basis, Debye):
    X=             -1.2114    Y=              5.3977    Z=              1.0346  Tot=              5.6278
 Quadrupole moment (field-independent basis, Debye-Ang):
   XX=            -35.9183   YY=            -50.8844   ZZ=            -52.8085
   XY=              0.3687   XZ=              1.6426   YZ=              4.6762
 Traceless Quadrupole moment (field-independent basis, Debye-Ang):
   XX=             10.6187   YY=             -4.3473   ZZ=             -6.2715
   XY=              0.3687   XZ=              1.6426   YZ=              4.6762
 Octapole moment (field-independent basis, Debye-Ang**2):
  XXX=            -16.2364  YYY=             57.1196  ZZZ=              0.9970  XYY=              7.4802
  XXY=             11.0822  XXZ=              1.0612  XZZ=             12.4512  YZZ=              2.8865
  YYZ=             15.4046  XYZ=              5.3515
 Hexadecapole moment (field-independent basis, Debye-Ang**3):
 XXXX=           -989.1756 YYYY=           -563.9191 ZZZZ=            -52.7325 XXXY=             -8.4308
 XXXZ=              6.5515 YYYX=             60.7284 YYYZ=             57.8706 ZZZX=              0.7334
 ZZZY=              3.9311 XXYY=           -249.0166 XXZZ=           -209.0829 YYZZ=           -115.9960
 XXYZ=              7.4748 YYXZ=             18.3681 ZZXY=             -3.4013
 N-N= 4.223932744287D+02 E-N=-2.031671710057D+03  KE= 5.028995901587D+02
 D1PCM: PCM CHGder 1st derivatives, ID1Alg=3 FixD1E=F DoIter=F DoCFld=F I1PDM=0.
 Calling FoFJK, ICntrl=      2127 FMM=F ISym2X=0 I1Cent= 0 IOpClX= 0 NMat=1 NMatS=1 NMatT=0.
 ***** Axes restored to original set *****
 -------------------------------------------------------------------
 Center     Atomic                   Forces (Hartrees/Bohr)
 Number     Number              X              Y              Z
 -------------------------------------------------------------------
      1        7           0.003760762    0.005590376    0.000096347
      2        7          -0.000588610   -0.006439261   -0.000163072
      3        6           0.002155864   -0.000718917    0.000053625
      4        6          -0.002146191   -0.000031486   -0.000093331
      5        7          -0.003069261   -0.002889229   -0.000027665
      6        1          -0.000388223    0.000419724    0.000034592
      7        1          -0.000712264    0.000264340   -0.000013265
      8        1          -0.000043738    0.002558328    0.000469868
      9        6           0.006156008    0.015898036   -0.000557010
     10        8          -0.001972430   -0.008200795    0.000074151
     11        8          -0.003294207   -0.008162529    0.000303366
     12        8          -0.002980054   -0.002193112   -0.004467787
     13        1           0.002290788    0.001912764    0.002789488
     14        1           0.000831555    0.001991762    0.001500691
 -------------------------------------------------------------------
 Cartesian Forces:  Max     0.015898036 RMS     0.003840235

 GradGradGradGradGradGradGradGradGradGradGradGradGradGradGradGradGradGrad
 Berny optimization.
 FormGI is forming the generalized inverse of G from B-inverse, IUseBI=4.
 Internal  Forces:  Max     0.008663872 RMS     0.002357421
 Search for a local minimum.
 Step number   1 out of a maximum of   63
 All quantities printed in internal units (Hartrees-Bohrs-Radians)
 Mixed Optimization -- RFO/linear search
 Second derivative matrix not updated -- first step.
 ITU=  0
     Eigenvalues ---    0.00230   0.00230   0.00739   0.01383   0.01446
     Eigenvalues ---    0.01934   0.02322   0.02339   0.02386   0.02389
     Eigenvalues ---    0.03388   0.04394   0.04908   0.04908   0.05389
     Eigenvalues ---    0.13094   0.16000   0.16000   0.16000   0.16000
     Eigenvalues ---    0.16000   0.22170   0.23916   0.25000   0.36212
     Eigenvalues ---    0.36259   0.44044   0.46054   0.48382   0.53694
     Eigenvalues ---    0.54234   0.55125   0.56841   0.65147   1.21550
     Eigenvalues ---    1.29887
 RFO step:  Lambda=-9.29980359D-04 EMin= 2.30000000D-03
 Linear search not attempted -- first point.
 Iteration  1 RMS(Cart)=  0.05358380 RMS(Int)=  0.00095734
 Iteration  2 RMS(Cart)=  0.00208123 RMS(Int)=  0.00002327
 Iteration  3 RMS(Cart)=  0.00000179 RMS(Int)=  0.00002325
 Iteration  4 RMS(Cart)=  0.00000000 RMS(Int)=  0.00002325
 Variable       Old X    -DE/DX   Delta X   Delta X   Delta X     New X
                                 (Linear)    (Quad)   (Total)
    R1        2.51892  -0.00172   0.00000  -0.00302  -0.00301   2.51591
    R2        2.45177   0.00571   0.00000   0.00900   0.00899   2.46077
    R3        2.54649  -0.00041   0.00000  -0.00153  -0.00152   2.54496
    R4        1.93102   0.00384   0.00000   0.00870   0.00870   1.93971
    R5        2.60231  -0.00125   0.00000  -0.00295  -0.00295   2.59936
    R6        2.03679   0.00057   0.00000   0.00157   0.00157   2.03835
    R7        2.56686   0.00091   0.00000   0.00228   0.00228   2.56914
    R8        2.03752   0.00037   0.00000   0.00102   0.00102   2.03854
    R9        3.53259   0.00154   0.00000   0.02803   0.02803   3.56062
   R10        2.21072  -0.00822   0.00000  -0.00676  -0.00676   2.20397
   R11        2.18610   0.00866   0.00000   0.00667   0.00667   2.19277
   R12        3.75646   0.00086   0.00000   0.01918   0.01918   3.77564
   R13        1.81721   0.00384   0.00000   0.00696   0.00696   1.82417
   R14        1.83011   0.00004   0.00000   0.00007   0.00007   1.83018
    A1        1.88491  -0.00229   0.00000  -0.00771  -0.00771   1.87720
    A2        1.93912   0.00131   0.00000   0.00360   0.00361   1.94272
    A3        2.05140   0.00230   0.00000   0.01658   0.01657   2.06797
    A4        2.29267  -0.00361   0.00000  -0.02017  -0.02017   2.27250
    A5        1.81158   0.00178   0.00000   0.00489   0.00489   1.81647
    A6        2.14617  -0.00094   0.00000  -0.00275  -0.00275   2.14341
    A7        2.32544  -0.00084   0.00000  -0.00214  -0.00214   2.32330
    A8        1.89257  -0.00143   0.00000  -0.00652  -0.00653   1.88605
    A9        2.26615   0.00003   0.00000  -0.00095  -0.00095   2.26520
   A10        2.12446   0.00139   0.00000   0.00747   0.00748   2.13194
   A11        1.89660   0.00063   0.00000   0.00574   0.00574   1.90234
   A12        2.58087   0.00429   0.00000   0.01708   0.01708   2.59795
   A13        2.32417  -0.00195   0.00000  -0.01214  -0.01214   2.31204
   A14        2.32094  -0.00059   0.00000  -0.00777  -0.00786   2.31307
   A15        1.79708   0.00239   0.00000   0.01004   0.00998   1.80706
   A16        1.86420  -0.00221   0.00000  -0.01959  -0.01964   1.84456
   A17        3.20982  -0.00349   0.00000  -0.06974  -0.06974   3.14008
   A18        2.91938   0.00002   0.00000   0.00045   0.00044   2.91982
   A19        3.14194  -0.00001   0.00000  -0.00016  -0.00016   3.14178
   A20        3.08732   0.00055   0.00000   0.03390   0.03388   3.12120
    D1       -0.00045  -0.00000   0.00000   0.00005   0.00006  -0.00039
    D2       -3.13912  -0.00004   0.00000  -0.00239  -0.00244  -3.14156
    D3       -0.00007   0.00001   0.00000   0.00033   0.00033   0.00026
    D4        0.00075  -0.00000   0.00000  -0.00040  -0.00040   0.00035
    D5       -3.13958  -0.00003   0.00000  -0.00159  -0.00159  -3.14117
    D6        3.13889   0.00006   0.00000   0.00258   0.00256   3.14145
    D7       -0.00144   0.00003   0.00000   0.00139   0.00138  -0.00006
    D8        0.10171  -0.00001   0.00000  -0.00317  -0.00317   0.09854
    D9       -3.03625  -0.00007   0.00000  -0.00628  -0.00629  -3.04254
   D10       -0.00077   0.00001   0.00000   0.00059   0.00059  -0.00018
   D11        3.14155  -0.00002   0.00000  -0.00090  -0.00089   3.14065
   D12        3.13937   0.00005   0.00000   0.00197   0.00195   3.14133
   D13       -0.00150   0.00001   0.00000   0.00047   0.00047  -0.00103
   D14        0.00054  -0.00002   0.00000  -0.00059  -0.00059  -0.00004
   D15        3.14148   0.00002   0.00000   0.00075   0.00076  -3.14095
   D16       -2.26971   0.00041   0.00000  -0.03197  -0.03198  -2.30169
   D17       -0.02991  -0.00071   0.00000  -0.05974  -0.05973  -0.08964
   D18       -0.01297   0.00006   0.00000  -0.01388  -0.01395  -0.02692
   D19        2.43665  -0.00016   0.00000  -0.01908  -0.01901   2.41764
         Item               Value     Threshold  Converged?
 Maximum Force            0.008664     0.000450     NO 
 RMS     Force            0.002357     0.000300     NO 
 Maximum Displacement     0.153247     0.001800     NO 
 RMS     Displacement     0.054670     0.001200     NO 
 Predicted change in Energy=-4.716145D-04
 GradGradGradGradGradGradGradGradGradGradGradGradGradGradGradGradGradGrad

                          Input orientation:                          
 ---------------------------------------------------------------------
 Center     Atomic      Atomic             Coordinates (Angstroms)
 Number     Number       Type             X           Y           Z
 ---------------------------------------------------------------------
      1          7           0       -0.491060   -0.349691   -0.011325
      2          7           0       -1.242591    0.749170    0.003701
      3          6           0       -2.554503    0.445022   -0.005336
      4          6           0       -2.578970   -0.930117   -0.026772
      5          7           0       -1.294146   -1.374577   -0.029685
      6          1           0       -3.328651    1.196088    0.003715
      7          1           0       -3.420061   -1.605473   -0.039245
      8          1           0       -0.774240    1.662409    0.019314
      9          6           0        2.295442   -0.831712    0.007810
     10          8           0        2.592976    0.294273   -0.054317
     11          8           0        1.997723   -1.951516    0.069812
     12          8           0        0.824848    2.656077   -0.056478
     13          1           0        1.175577    3.370618    0.489638
     14          1           0        1.513982    1.975761   -0.071753
 ---------------------------------------------------------------------
                    Distance matrix (angstroms):
                    1          2          3          4          5
     1  N    0.000000
     2  N    1.331360   0.000000
     3  C    2.211199   1.346737   0.000000
     4  C    2.167141   2.146355   1.375523   0.000000
     5  N    1.302181   2.124635   2.213602   1.359531   0.000000
     6  H    3.231343   2.133396   1.078650   2.254706   3.278512
     7  H    3.186976   3.207422   2.225953   1.078747   2.138438
     8  H    2.032160   1.026451   2.156844   3.159171   3.081556
     9  C    2.827950   3.875162   5.015196   4.875527   3.630599
    10  O    3.150844   3.862884   5.149919   5.314971   4.230294
    11  O    2.960822   4.218733   5.145075   4.690277   3.343525
    12  O    3.281508   2.813223   4.038737   4.944456   4.553793
    13  H    4.107230   3.599397   4.766299   5.732331   5.374579
    14  H    3.071086   3.018098   4.347429   5.019801   4.371741
                    6          7          8          9         10
     6  H    0.000000
     7  H    2.803380   0.000000
     8  H    2.596674   4.205098   0.000000
     9  C    5.978495   5.767832   3.955214   0.000000
    10  O    5.990184   6.306019   3.635294   1.166289   0.000000
    11  O    6.187248   5.429919   4.554863   1.160363   2.326651
    12  O    4.403038   6.015011   1.884198   3.785691   2.950323
    13  H    5.025213   6.794194   2.634572   4.375595   3.430569
    14  H    4.905576   6.096808   2.311372   2.915290   1.997983
                   11         12         13         14
    11  O    0.000000
    12  O    4.756207   0.000000
    13  H    5.401600   0.965309   0.000000
    14  H    3.959489   0.968488   1.541202   0.000000
 Stoichiometry    C3H5N3O3
 Framework group  C1[X(C3H5N3O3)]
 Deg. of freedom    36
 Full point group                 C1      NOp   1
 Largest Abelian subgroup         C1      NOp   1
 Largest concise Abelian subgroup C1      NOp   1
                         Standard orientation:                         
 ---------------------------------------------------------------------
 Center     Atomic      Atomic             Coordinates (Angstroms)
 Number     Number       Type             X           Y           Z
 ---------------------------------------------------------------------
      1          7           0       -0.503553   -0.335203   -0.005306
      2          7           0       -1.227345    0.782020    0.016066
      3          6           0       -2.546468    0.510734    0.011761
      4          6           0       -2.605350   -0.863297   -0.013498
      5          7           0       -1.332047   -1.339670   -0.023165
      6          1           0       -3.301578    1.280854    0.026262
      7          1           0       -3.463086   -1.517413   -0.024309
      8          1           0       -0.736278    1.683237    0.032289
      9          6           0        2.270101   -0.886665    0.000558
     10          8           0        2.595392    0.231724   -0.059623
     11          8           0        1.944779   -1.998869    0.060632
     12          8           0        0.886788    2.636912   -0.047490
     13          1           0        1.257536    3.340857    0.499162
     14          1           0        1.558652    1.939659   -0.067649
 ---------------------------------------------------------------------
 Rotational constants (GHZ):           1.9856803           1.0539103           0.6892641
 Standard basis: 6-31+G(d,p) (6D, 7F)
 There are   196 symmetry adapted cartesian basis functions of A   symmetry.
 There are   196 symmetry adapted basis functions of A   symmetry.
   196 basis functions,   323 primitive gaussians,   196 cartesian basis functions
    34 alpha electrons       34 beta electrons
       nuclear repulsion energy       420.0495497927 Hartrees.
 NAtoms=   14 NActive=   14 NUniq=   14 SFac= 1.00D+00 NAtFMM=   60 NAOKFM=F Big=F
 Integral buffers will be    131072 words long.
 Raffenetti 2 integral format.
 Two-electron integral symmetry is turned on.
 ------------------------------------------------------------------------------
 Polarizable Continuum Model (PCM)
 =================================
 Model                : PCM.
 Atomic radii         : SMD-Coulomb.
 Polarization charges : Total charges.
 Charge compensation  : None.
 Solution method      : On-the-fly selection.
 Cavity type          : VdW (van der Waals Surface) (Alpha=1.000).
 Cavity algorithm     : GePol (No added spheres)
                        Default sphere list used, NSphG=   14.
                        Lebedev-Laikov grids with approx.  5.0 points / Ang**2.
                        Smoothing algorithm: York/Karplus (Gamma=1.0000).
                        Polarization charges: spherical gaussians, with
                                              point-specific exponents (IZeta= 3).
                        Self-potential: point-specific (ISelfS= 7).
                        Self-field    : sphere-specific E.n sum rule (ISelfD= 2).
 1st derivatives      : Analytical E(r).r(x)/FMM algorithm (CHGder, D1EAlg=3).
                        Cavity 1st derivative terms included.
 Solvent              : Water, Eps=  78.355300 Eps(inf)=   1.777849
 ------------------------------------------------------------------------------
 Spheres list:
 ISph  on   Nord     Re0    Alpha      Xe            Ye            Ze
    1   N      1    1.8900  1.000     -0.503553     -0.335203     -0.005306
    2   N      2    1.8900  1.000     -1.227345      0.782020      0.016066
    3   C      3    1.8500  1.000     -2.546468      0.510734      0.011761
    4   C      4    1.8500  1.000     -2.605350     -0.863297     -0.013498
    5   N      5    1.8900  1.000     -1.332047     -1.339670     -0.023165
    6   H      6    1.2000  1.000     -3.301578      1.280854      0.026262
    7   H      7    1.2000  1.000     -3.463086     -1.517413     -0.024309
    8   H      8    1.2000  1.000     -0.736278      1.683237      0.032289
    9   C      9    1.8500  1.000      2.270101     -0.886665      0.000558
   10   O     10    1.5200  1.000      2.595392      0.231724     -0.059623
   11   O     11    1.5200  1.000      1.944779     -1.998869      0.060632
   12   O     12    1.5200  1.000      0.886788      2.636912     -0.047490
   13   H     13    1.2000  1.000      1.257536      3.340857      0.499162
   14   H     14    1.2000  1.000      1.558652      1.939659     -0.067649
 ------------------------------------------------------------------------------
 ------------------------------------------------------------------------------
 Atomic radii for non-electrostatic terms: SMD-CDS.
 ------------------------------------------------------------------------------
 Nuclear repulsion after PCM non-electrostatic terms =      420.0600969163 Hartrees.
 One-electron integrals computed using PRISM.
 NBasis=   196 RedAO= T EigKep=  4.31D-05  NBF=   196
 NBsUse=   196 1.00D-06 EigRej= -1.00D+00 NBFU=   196
 Initial guess from the checkpoint file:  "/scratch/gongke2021/1-H-Tz-RC/Gau-28579.chk"
 B after Tr=    -0.000000    0.000000    0.000000
         Rot=    0.999946   -0.000039    0.000111    0.010412 Ang=  -1.19 deg.
 ExpMin= 4.38D-02 ExpMax= 5.48D+03 ExpMxC= 8.25D+02 IAcc=2 IRadAn=         4 AccDes= 0.00D+00
 Harris functional with IExCor= 1009 and IRadAn=       4 diagonalized for initial guess.
 HarFok:  IExCor= 1009 AccDes= 0.00D+00 IRadAn=         4 IDoV= 1 UseB2=F ITyADJ=14
 ICtDFT=  3500011 ScaDFX=  1.000000  1.000000  1.000000  1.000000
 FoFCou: FMM=F IPFlag=           0 FMFlag=      100000 FMFlg1=           0
         NFxFlg=           0 DoJE=T BraDBF=F KetDBF=T FulRan=T
         wScrn=  0.000000 ICntrl=       500 IOpCl=  0 I1Cent=   200000004 NGrid=           0
         NMat0=    1 NMatS0=      1 NMatT0=    0 NMatD0=    1 NMtDS0=    0 NMtDT0=    0
 Petite list used in FoFCou.
 Requested convergence on RMS density matrix=1.00D-08 within 128 cycles.
 Requested convergence on MAX density matrix=1.00D-06.
 Requested convergence on             energy=1.00D-06.
 No special actions if energy rises.
 Inv3:  Mode=1 IEnd=     5031075.
 Iteration    1 A*A^-1 deviation from unit magnitude is 2.89D-15 for    217.
 Iteration    1 A*A^-1 deviation from orthogonality  is 1.82D-15 for    699    457.
 Iteration    1 A^-1*A deviation from unit magnitude is 2.89D-15 for    759.
 Iteration    1 A^-1*A deviation from orthogonality  is 7.66D-15 for   1073   1066.
 Error on total polarization charges =  0.04005
 SCF Done:  E(RM062X) =  -507.090593999     A.U. after   12 cycles
            NFock= 12  Conv=0.32D-08     -V/T= 2.0084
 SMD-CDS (non-electrostatic) energy       (kcal/mol) =       6.62
 (included in total energy above)
 D1PCM: PCM CHGder 1st derivatives, ID1Alg=3 FixD1E=F DoIter=F DoCFld=F I1PDM=0.
 Calling FoFJK, ICntrl=      2127 FMM=F ISym2X=0 I1Cent= 0 IOpClX= 0 NMat=1 NMatS=1 NMatT=0.
 ***** Axes restored to original set *****
 -------------------------------------------------------------------
 Center     Atomic                   Forces (Hartrees/Bohr)
 Number     Number              X              Y              Z
 -------------------------------------------------------------------
      1        7          -0.000263122    0.002974670    0.000148835
      2        7          -0.000448837   -0.000212502   -0.000173549
      3        6          -0.000253432    0.001269901    0.000004423
      4        6           0.001116339    0.000528492    0.000030826
      5        7          -0.000040960   -0.002804267   -0.000074462
      6        1           0.000069705    0.000154028    0.000030238
      7        1           0.000158188    0.000059558   -0.000016109
      8        1          -0.000050248   -0.001661640    0.000349254
      9        6          -0.006457527    0.004612551   -0.000193341
     10        8           0.002888724   -0.003827412    0.000034936
     11        8           0.003791013   -0.002440508    0.000079643
     12        8          -0.000256487    0.000137403   -0.001474085
     13        1          -0.000163585    0.000191640    0.000713977
     14        1          -0.000089772    0.001018086    0.000539416
 -------------------------------------------------------------------
 Cartesian Forces:  Max     0.006457527 RMS     0.001784480

 GradGradGradGradGradGradGradGradGradGradGradGradGradGradGradGradGradGrad
 Berny optimization.
 Using GEDIIS/GDIIS optimizer.
 FormGI is forming the generalized inverse of G from B-inverse, IUseBI=4.
 Internal  Forces:  Max     0.009399025 RMS     0.001523587
 Search for a local minimum.
 Step number   2 out of a maximum of   63
 All quantities printed in internal units (Hartrees-Bohrs-Radians)
 Mixed Optimization -- RFO/linear search
 Update second derivatives using D2CorX and points    1    2
 DE= -8.30D-05 DEPred=-4.72D-04 R= 1.76D-01
 Trust test= 1.76D-01 RLast= 1.21D-01 DXMaxT set to 3.00D-01
 ITU=  0  0
 Use linear search instead of GDIIS.
     Eigenvalues ---    0.00229   0.00230   0.00739   0.01349   0.01430
     Eigenvalues ---    0.01930   0.02323   0.02339   0.02386   0.02389
     Eigenvalues ---    0.03296   0.04200   0.04908   0.05226   0.09543
     Eigenvalues ---    0.13136   0.15576   0.16000   0.16000   0.16000
     Eigenvalues ---    0.18638   0.22509   0.24370   0.26559   0.36215
     Eigenvalues ---    0.36237   0.44412   0.46472   0.47520   0.53675
     Eigenvalues ---    0.53923   0.54497   0.56830   0.63156   1.15605
     Eigenvalues ---    1.27260
 RFO step:  Lambda=-4.37306561D-04 EMin= 2.28885287D-03
 Quartic linear search produced a step of -0.45681.
 Iteration  1 RMS(Cart)=  0.03431384 RMS(Int)=  0.00088270
 Iteration  2 RMS(Cart)=  0.00097082 RMS(Int)=  0.00001962
 Iteration  3 RMS(Cart)=  0.00000111 RMS(Int)=  0.00001960
 Iteration  4 RMS(Cart)=  0.00000000 RMS(Int)=  0.00001960
 Variable       Old X    -DE/DX   Delta X   Delta X   Delta X     New X
                                 (Linear)    (Quad)   (Total)
    R1        2.51591  -0.00132   0.00138  -0.00413  -0.00276   2.51315
    R2        2.46077   0.00111  -0.00411   0.00934   0.00523   2.46600
    R3        2.54496  -0.00108   0.00069  -0.00260  -0.00190   2.54306
    R4        1.93971  -0.00193  -0.00397   0.00574   0.00177   1.94148
    R5        2.59936   0.00069   0.00135  -0.00196  -0.00061   2.59875
    R6        2.03835   0.00006  -0.00072   0.00155   0.00084   2.03919
    R7        2.56914   0.00029  -0.00104   0.00257   0.00153   2.57067
    R8        2.03854  -0.00016  -0.00046   0.00071   0.00024   2.03878
    R9        3.56062  -0.00040  -0.01281   0.02099   0.00818   3.56880
   R10        2.20397  -0.00141   0.00309  -0.00696  -0.00387   2.20010
   R11        2.19277   0.00139  -0.00304   0.00682   0.00378   2.19655
   R12        3.77564   0.00152  -0.00876   0.03555   0.02679   3.80243
   R13        1.82417   0.00048  -0.00318   0.00697   0.00380   1.82797
   R14        1.83018   0.00055  -0.00003   0.00062   0.00059   1.83077
    A1        1.87720   0.00071   0.00352  -0.00585  -0.00233   1.87487
    A2        1.94272   0.00087  -0.00165   0.00493   0.00328   1.94600
    A3        2.06797  -0.00161  -0.00757   0.01053   0.00296   2.07093
    A4        2.27250   0.00074   0.00921  -0.01546  -0.00624   2.26626
    A5        1.81647  -0.00087  -0.00224   0.00214  -0.00010   1.81637
    A6        2.14341   0.00026   0.00126  -0.00193  -0.00067   2.14274
    A7        2.32330   0.00060   0.00098  -0.00021   0.00076   2.32407
    A8        1.88605   0.00102   0.00298  -0.00324  -0.00025   1.88579
    A9        2.26520  -0.00046   0.00043  -0.00212  -0.00169   2.26351
   A10        2.13194  -0.00055  -0.00342   0.00536   0.00194   2.13388
   A11        1.90234  -0.00174  -0.00262   0.00202  -0.00060   1.90174
   A12        2.59795  -0.00114  -0.00780   0.01339   0.00558   2.60353
   A13        2.31204   0.00248   0.00554  -0.00280   0.00274   2.31478
   A14        2.31307  -0.00044   0.00359  -0.01096  -0.00733   2.30574
   A15        1.80706  -0.00063  -0.00456   0.00516   0.00058   1.80764
   A16        1.84456   0.00033   0.00897  -0.01915  -0.01023   1.83433
   A17        3.14008   0.00940   0.03186   0.04103   0.07289   3.21297
   A18        2.91982  -0.00019  -0.00020  -0.00865  -0.00884   2.91098
   A19        3.14178  -0.00010   0.00008  -0.00129  -0.00121   3.14057
   A20        3.12120   0.00063  -0.01548   0.04611   0.03064   3.15185
    D1       -0.00039   0.00003  -0.00003   0.00079   0.00076   0.00037
    D2       -3.14156   0.00000   0.00111  -0.00209  -0.00096   3.14067
    D3        0.00026  -0.00002  -0.00015  -0.00028  -0.00043  -0.00017
    D4        0.00035  -0.00002   0.00018  -0.00093  -0.00075  -0.00040
    D5       -3.14117  -0.00003   0.00072  -0.00200  -0.00127   3.14074
    D6        3.14145   0.00001  -0.00117   0.00238   0.00122  -3.14051
    D7       -0.00006   0.00000  -0.00063   0.00132   0.00070   0.00063
    D8        0.09854   0.00003   0.00145  -0.00032   0.00112   0.09966
    D9       -3.04254  -0.00001   0.00287  -0.00384  -0.00096  -3.04350
   D10       -0.00018   0.00001  -0.00027   0.00073   0.00046   0.00028
   D11        3.14065   0.00001   0.00041  -0.00050  -0.00010   3.14055
   D12        3.14133   0.00001  -0.00089   0.00196   0.00107  -3.14079
   D13       -0.00103   0.00001  -0.00021   0.00072   0.00051  -0.00052
   D14       -0.00004   0.00001   0.00027  -0.00029  -0.00003  -0.00007
   D15       -3.14095   0.00001  -0.00035   0.00083   0.00048  -3.14046
   D16       -2.30169   0.00036   0.01461   0.01869   0.03324  -2.26844
   D17       -0.08964  -0.00035   0.02729  -0.01737   0.00997  -0.07967
   D18       -0.02692   0.00036   0.00637   0.00626   0.01270  -0.01422
   D19        2.41764  -0.00035   0.00868  -0.00590   0.00272   2.42037
         Item               Value     Threshold  Converged?
 Maximum Force            0.009399     0.000450     NO 
 RMS     Force            0.001524     0.000300     NO 
 Maximum Displacement     0.152125     0.001800     NO 
 RMS     Displacement     0.034471     0.001200     NO 
 Predicted change in Energy=-3.806493D-04
 GradGradGradGradGradGradGradGradGradGradGradGradGradGradGradGradGradGrad

                          Input orientation:                          
 ---------------------------------------------------------------------
 Center     Atomic      Atomic             Coordinates (Angstroms)
 Number     Number       Type             X           Y           Z
 ---------------------------------------------------------------------
      1          7           0       -0.499529   -0.354653    0.026854
      2          7           0       -1.246412    0.745466    0.003674
      3          6           0       -2.559006    0.449925   -0.023537
      4          6           0       -2.592386   -0.924850   -0.016466
      5          7           0       -1.309908   -1.377411    0.014693
      6          1           0       -3.327825    1.206844   -0.044348
      7          1           0       -3.438890   -1.593585   -0.030438
      8          1           0       -0.777447    1.659555    0.009658
      9          6           0        2.295625   -0.836951   -0.011379
     10          8           0        2.594349    0.287447   -0.055545
     11          8           0        2.078224   -1.978031    0.030570
     12          8           0        0.821567    2.662309   -0.054972
     13          1           0        1.163327    3.374876    0.502838
     14          1           0        1.514638    1.985390   -0.052523
 ---------------------------------------------------------------------
                    Distance matrix (angstroms):
                    1          2          3          4          5
     1  N    0.000000
     2  N    1.329900   0.000000
     3  C    2.211636   1.345729   0.000000
     4  C    2.169574   2.145229   1.375199   0.000000
     5  N    1.304950   2.123855   2.213790   1.360343   0.000000
     6  H    3.231501   2.132476   1.079092   2.255165   3.279306
     7  H    3.190310   3.206132   2.224899   1.078875   2.140406
     8  H    2.033364   1.027386   2.153662   3.158138   3.083294
     9  C    2.836716   3.879471   5.022315   4.888804   3.645908
    10  O    3.160880   3.868428   5.156015   5.326670   4.244986
    11  O    3.046339   4.297833   5.234674   4.788110   3.440993
    12  O    3.294548   2.820330   4.040285   4.952198   4.568081
    13  H    4.111087   3.601361   4.763210   5.732599   5.379535
    14  H    3.088522   3.027205   4.353512   5.033730   4.392152
                    6          7          8          9         10
     6  H    0.000000
     7  H    2.802665   0.000000
     8  H    2.590809   4.203309   0.000000
     9  C    5.983425   5.784248   3.959388   0.000000
    10  O    5.993126   6.319722   3.640871   1.164241   0.000000
    11  O    6.274903   5.530829   4.624644   1.162363   2.325123
    12  O    4.397266   6.022020   1.888528   3.797310   2.963566
    13  H    5.016993   6.793407   2.636694   4.391583   3.448453
    14  H    4.904656   6.111218   2.315964   2.928693   2.012162
                   11         12         13         14
    11  O    0.000000
    12  O    4.808249   0.000000
    13  H    5.451026   0.967318   0.000000
    14  H    4.004153   0.968799   1.537048   0.000000
 Stoichiometry    C3H5N3O3
 Framework group  C1[X(C3H5N3O3)]
 Deg. of freedom    36
 Full point group                 C1      NOp   1
 Largest Abelian subgroup         C1      NOp   1
 Largest concise Abelian subgroup C1      NOp   1
                         Standard orientation:                         
 ---------------------------------------------------------------------
 Center     Atomic      Atomic             Coordinates (Angstroms)
 Number     Number       Type             X           Y           Z
 ---------------------------------------------------------------------
      1          7           0       -0.510755   -0.344916    0.029658
      2          7           0       -1.248212    0.761585    0.008575
      3          6           0       -2.563276    0.477320   -0.019504
      4          6           0       -2.608394   -0.897133   -0.015246
      5          7           0       -1.329833   -1.360690    0.015246
      6          1           0       -3.325599    1.240816   -0.038923
      7          1           0       -3.460575   -1.558585   -0.030754
      8          1           0       -0.771460    1.671622    0.016519
      9          6           0        2.280188   -0.850985   -0.008998
     10          8           0        2.588511    0.270909   -0.050807
     11          8           0        2.053043   -1.990251    0.030578
     12          8           0        0.836071    2.660815   -0.045741
     13          1           0        1.183781    3.369298    0.513591
     14          1           0        1.523337    1.977999   -0.044535
 ---------------------------------------------------------------------
 Rotational constants (GHZ):           1.9693502           1.0380717           0.6804409
 Standard basis: 6-31+G(d,p) (6D, 7F)
 There are   196 symmetry adapted cartesian basis functions of A   symmetry.
 There are   196 symmetry adapted basis functions of A   symmetry.
   196 basis functions,   323 primitive gaussians,   196 cartesian basis functions
    34 alpha electrons       34 beta electrons
       nuclear repulsion energy       418.6570737248 Hartrees.
 NAtoms=   14 NActive=   14 NUniq=   14 SFac= 1.00D+00 NAtFMM=   60 NAOKFM=F Big=F
 Integral buffers will be    131072 words long.
 Raffenetti 2 integral format.
 Two-electron integral symmetry is turned on.
 ------------------------------------------------------------------------------
 Polarizable Continuum Model (PCM)
 =================================
 Model                : PCM.
 Atomic radii         : SMD-Coulomb.
 Polarization charges : Total charges.
 Charge compensation  : None.
 Solution method      : On-the-fly selection.
 Cavity type          : VdW (van der Waals Surface) (Alpha=1.000).
 Cavity algorithm     : GePol (No added spheres)
                        Default sphere list used, NSphG=   14.
                        Lebedev-Laikov grids with approx.  5.0 points / Ang**2.
                        Smoothing algorithm: York/Karplus (Gamma=1.0000).
                        Polarization charges: spherical gaussians, with
                                              point-specific exponents (IZeta= 3).
                        Self-potential: point-specific (ISelfS= 7).
                        Self-field    : sphere-specific E.n sum rule (ISelfD= 2).
 1st derivatives      : Analytical E(r).r(x)/FMM algorithm (CHGder, D1EAlg=3).
                        Cavity 1st derivative terms included.
 Solvent              : Water, Eps=  78.355300 Eps(inf)=   1.777849
 ------------------------------------------------------------------------------
 Spheres list:
 ISph  on   Nord     Re0    Alpha      Xe            Ye            Ze
    1   N      1    1.8900  1.000     -0.510755     -0.344916      0.029658
    2   N      2    1.8900  1.000     -1.248212      0.761585      0.008575
    3   C      3    1.8500  1.000     -2.563276      0.477320     -0.019504
    4   C      4    1.8500  1.000     -2.608394     -0.897133     -0.015246
    5   N      5    1.8900  1.000     -1.329833     -1.360690      0.015246
    6   H      6    1.2000  1.000     -3.325599      1.240816     -0.038923
    7   H      7    1.2000  1.000     -3.460575     -1.558585     -0.030754
    8   H      8    1.2000  1.000     -0.771460      1.671622      0.016519
    9   C      9    1.8500  1.000      2.280188     -0.850985     -0.008998
   10   O     10    1.5200  1.000      2.588511      0.270909     -0.050807
   11   O     11    1.5200  1.000      2.053043     -1.990251      0.030578
   12   O     12    1.5200  1.000      0.836071      2.660815     -0.045741
   13   H     13    1.2000  1.000      1.183781      3.369298      0.513591
   14   H     14    1.2000  1.000      1.523337      1.977999     -0.044535
 ------------------------------------------------------------------------------
 ------------------------------------------------------------------------------
 Atomic radii for non-electrostatic terms: SMD-CDS.
 ------------------------------------------------------------------------------
 Nuclear repulsion after PCM non-electrostatic terms =      418.6675850483 Hartrees.
 One-electron integrals computed using PRISM.
 NBasis=   196 RedAO= T EigKep=  4.42D-05  NBF=   196
 NBsUse=   196 1.00D-06 EigRej= -1.00D+00 NBFU=   196
 Initial guess from the checkpoint file:  "/scratch/gongke2021/1-H-Tz-RC/Gau-28579.chk"
 B after Tr=    -0.000000   -0.000000   -0.000000
         Rot=    0.999962   -0.000065   -0.000091   -0.008710 Ang=  -1.00 deg.
 ExpMin= 4.38D-02 ExpMax= 5.48D+03 ExpMxC= 8.25D+02 IAcc=2 IRadAn=         4 AccDes= 0.00D+00
 Harris functional with IExCor= 1009 and IRadAn=       4 diagonalized for initial guess.
 HarFok:  IExCor= 1009 AccDes= 0.00D+00 IRadAn=         4 IDoV= 1 UseB2=F ITyADJ=14
 ICtDFT=  3500011 ScaDFX=  1.000000  1.000000  1.000000  1.000000
 FoFCou: FMM=F IPFlag=           0 FMFlag=      100000 FMFlg1=           0
         NFxFlg=           0 DoJE=T BraDBF=F KetDBF=T FulRan=T
         wScrn=  0.000000 ICntrl=       500 IOpCl=  0 I1Cent=   200000004 NGrid=           0
         NMat0=    1 NMatS0=      1 NMatT0=    0 NMatD0=    1 NMtDS0=    0 NMtDT0=    0
 Petite list used in FoFCou.
 Requested convergence on RMS density matrix=1.00D-08 within 128 cycles.
 Requested convergence on MAX density matrix=1.00D-06.
 Requested convergence on             energy=1.00D-06.
 No special actions if energy rises.
 Inv3:  Mode=1 IEnd=     5015547.
 Iteration    1 A*A^-1 deviation from unit magnitude is 3.11D-15 for   1095.
 Iteration    1 A*A^-1 deviation from orthogonality  is 2.66D-15 for   1171     11.
 Iteration    1 A^-1*A deviation from unit magnitude is 2.89D-15 for   1095.
 Iteration    1 A^-1*A deviation from orthogonality  is 2.80D-14 for   1099   1068.
 Error on total polarization charges =  0.04017
 SCF Done:  E(RM062X) =  -507.090788691     A.U. after   11 cycles
            NFock= 11  Conv=0.71D-08     -V/T= 2.0084
 SMD-CDS (non-electrostatic) energy       (kcal/mol) =       6.60
 (included in total energy above)
 D1PCM: PCM CHGder 1st derivatives, ID1Alg=3 FixD1E=F DoIter=F DoCFld=F I1PDM=0.
 Calling FoFJK, ICntrl=      2127 FMM=F ISym2X=0 I1Cent= 0 IOpClX= 0 NMat=1 NMatS=1 NMatT=0.
 ***** Axes restored to original set *****
 -------------------------------------------------------------------
 Center     Atomic                   Forces (Hartrees/Bohr)
 Number     Number              X              Y              Z
 -------------------------------------------------------------------
      1        7          -0.001574329   -0.000169704   -0.000144661
      2        7           0.000630204    0.002571280   -0.000004689
      3        6          -0.000966117    0.001329587   -0.000028018
      4        6           0.002090513   -0.000070461    0.000139509
      5        7           0.000439042   -0.001358079   -0.000009552
      6        1           0.000288900   -0.000098056   -0.000039285
      7        1           0.000409385   -0.000084395   -0.000015376
      8        1           0.000030091   -0.002472974    0.000362546
      9        6           0.002698683   -0.003951254   -0.000031940
     10        8          -0.001474273    0.001464300   -0.000027734
     11        8          -0.002037139    0.001744397    0.000050222
     12        8           0.001464624    0.001325328    0.000119245
     13        1          -0.001425222   -0.000784128   -0.000443519
     14        1          -0.000574362    0.000554158    0.000073252
 -------------------------------------------------------------------
 Cartesian Forces:  Max     0.003951254 RMS     0.001263022

 GradGradGradGradGradGradGradGradGradGradGradGradGradGradGradGradGradGrad
 Berny optimization.
 Using GEDIIS/GDIIS optimizer.
 FormGI is forming the generalized inverse of G from B-inverse, IUseBI=4.
 Internal  Forces:  Max     0.006467889 RMS     0.001825813
 Search for a local minimum.
 Step number   3 out of a maximum of   63
 All quantities printed in internal units (Hartrees-Bohrs-Radians)
 Mixed Optimization -- RFO/linear search
 Update second derivatives using D2CorX and points    1    2    3
 DE= -1.95D-04 DEPred=-3.81D-04 R= 5.11D-01
 TightC=F SS=  1.41D+00  RLast= 9.41D-02 DXNew= 5.0454D-01 2.8236D-01
 Trust test= 5.11D-01 RLast= 9.41D-02 DXMaxT set to 3.00D-01
 ITU=  1  0  0
 Use linear search instead of GDIIS.
     Eigenvalues ---    0.00229   0.00230   0.00613   0.00744   0.01588
     Eigenvalues ---    0.01937   0.02323   0.02339   0.02386   0.02390
     Eigenvalues ---    0.03319   0.04305   0.04909   0.05629   0.12701
     Eigenvalues ---    0.13217   0.15862   0.16000   0.16000   0.18478
     Eigenvalues ---    0.22001   0.24228   0.25039   0.35634   0.36225
     Eigenvalues ---    0.37019   0.45663   0.46582   0.50401   0.53388
     Eigenvalues ---    0.53959   0.56777   0.58156   0.63780   1.15664
     Eigenvalues ---    1.26735
 RFO step:  Lambda=-9.44113317D-04 EMin= 2.29486555D-03
 Quartic linear search produced a step of -0.33076.
 Maximum step size (   0.300) exceeded in Quadratic search.
    -- Step size scaled by   0.983
 Iteration  1 RMS(Cart)=  0.17754458 RMS(Int)=  0.00802598
 Iteration  2 RMS(Cart)=  0.04388336 RMS(Int)=  0.00091753
 Iteration  3 RMS(Cart)=  0.00058325 RMS(Int)=  0.00086342
 Iteration  4 RMS(Cart)=  0.00000180 RMS(Int)=  0.00086342
 Iteration  5 RMS(Cart)=  0.00000001 RMS(Int)=  0.00086342
 Variable       Old X    -DE/DX   Delta X   Delta X   Delta X     New X
                                 (Linear)    (Quad)   (Total)
    R1        2.51315   0.00022   0.00091  -0.01050  -0.00957   2.50357
    R2        2.46600  -0.00091  -0.00173   0.02315   0.02142   2.48741
    R3        2.54306  -0.00061   0.00063  -0.00718  -0.00654   2.53652
    R4        1.94148  -0.00251  -0.00058   0.01161   0.01102   1.95250
    R5        2.59875   0.00137   0.00020  -0.00353  -0.00333   2.59542
    R6        2.03919  -0.00027  -0.00028   0.00360   0.00333   2.04252
    R7        2.57067  -0.00067  -0.00051   0.00595   0.00542   2.57610
    R8        2.03878  -0.00027  -0.00008   0.00142   0.00134   2.04011
    R9        3.56880  -0.00095  -0.00271   0.04448   0.04177   3.61057
   R10        2.20010   0.00198   0.00128  -0.01700  -0.01572   2.18438
   R11        2.19655  -0.00132  -0.00125   0.01694   0.01569   2.21224
   R12        3.80243   0.00020  -0.00886   0.09404   0.08516   3.88759
   R13        1.82797  -0.00134  -0.00126   0.01665   0.01539   1.84336
   R14        1.83077  -0.00084  -0.00019   0.00091   0.00077   1.83154
    A1        1.87487   0.00161   0.00077  -0.01191  -0.01112   1.86375
    A2        1.94600  -0.00033  -0.00108   0.01224   0.01118   1.95718
    A3        2.07093  -0.00158  -0.00098   0.02126   0.02026   2.09119
    A4        2.26626   0.00191   0.00206  -0.03351  -0.03147   2.23479
    A5        1.81637  -0.00108   0.00003   0.00319   0.00324   1.81961
    A6        2.14274   0.00040   0.00022  -0.00426  -0.00405   2.13870
    A7        2.32407   0.00068  -0.00025   0.00106   0.00080   2.32487
    A8        1.88579   0.00141   0.00008  -0.00484  -0.00477   1.88102
    A9        2.26351  -0.00039   0.00056  -0.00613  -0.00556   2.25795
   A10        2.13388  -0.00102  -0.00064   0.01097   0.01033   2.14421
   A11        1.90174  -0.00161   0.00020   0.00131   0.00148   1.90322
   A12        2.60353  -0.00383  -0.00185   0.02651   0.02465   2.62819
   A13        2.31478  -0.00248  -0.00091  -0.01330  -0.01421   2.30057
   A14        2.30574   0.00104   0.00243  -0.03116  -0.02657   2.27917
   A15        1.80764  -0.00609  -0.00019  -0.01047  -0.01106   1.79658
   A16        1.83433   0.00299   0.00338  -0.04587  -0.04469   1.78964
   A17        3.21297  -0.00513  -0.02411   0.06721   0.04310   3.25607
   A18        2.91098  -0.00647   0.00292  -0.22493  -0.22119   2.68980
   A19        3.14057   0.00011   0.00040  -0.00231  -0.00191   3.13866
   A20        3.15185   0.00057  -0.01014   0.12672   0.11716   3.26901
    D1        0.00037  -0.00003  -0.00025   0.00142   0.00118   0.00155
    D2        3.14067   0.00001   0.00032  -0.00525  -0.00506   3.13560
    D3       -0.00017   0.00000   0.00014  -0.00070  -0.00057  -0.00075
    D4       -0.00040   0.00005   0.00025  -0.00152  -0.00127  -0.00167
    D5        3.14074   0.00004   0.00042  -0.00436  -0.00392   3.13682
    D6       -3.14051   0.00001  -0.00040   0.00605   0.00555  -3.13496
    D7        0.00063  -0.00000  -0.00023   0.00321   0.00291   0.00354
    D8        0.09966  -0.00016  -0.00037  -0.00808  -0.00855   0.09111
    D9       -3.04350  -0.00011   0.00032  -0.01612  -0.01585  -3.05935
   D10        0.00028  -0.00004  -0.00015   0.00103   0.00086   0.00114
   D11        3.14055   0.00000   0.00003  -0.00119  -0.00114   3.13942
   D12       -3.14079  -0.00003  -0.00035   0.00432   0.00392  -3.13687
   D13       -0.00052   0.00001  -0.00017   0.00210   0.00192   0.00140
   D14       -0.00007   0.00002   0.00001  -0.00023  -0.00019  -0.00027
   D15       -3.14046  -0.00002  -0.00016   0.00181   0.00166  -3.13880
   D16       -2.26844   0.00089  -0.01100   0.04355   0.03017  -2.23827
   D17       -0.07967  -0.00102  -0.00330  -0.07445  -0.07559  -0.15527
   D18       -0.01422   0.00123  -0.00420   0.04493   0.04376   0.02954
   D19        2.42037  -0.00114  -0.00090  -0.03834  -0.04228   2.37809
         Item               Value     Threshold  Converged?
 Maximum Force            0.006468     0.000450     NO 
 RMS     Force            0.001826     0.000300     NO 
 Maximum Displacement     1.021076     0.001800     NO 
 RMS     Displacement     0.218462     0.001200     NO 
 Predicted change in Energy=-5.723529D-04
 GradGradGradGradGradGradGradGradGradGradGradGradGradGradGradGradGradGrad

                          Input orientation:                          
 ---------------------------------------------------------------------
 Center     Atomic      Atomic             Coordinates (Angstroms)
 Number     Number       Type             X           Y           Z
 ---------------------------------------------------------------------
      1          7           0       -0.353676   -0.379205    0.029924
      2          7           0       -1.121915    0.699401   -0.010125
      3          6           0       -2.427816    0.389776   -0.031262
      4          6           0       -2.450368   -0.983203   -0.003898
      5          7           0       -1.159554   -1.419948    0.033536
      6          1           0       -3.203279    1.142156   -0.059972
      7          1           0       -3.295927   -1.654413   -0.006222
      8          1           0       -0.689898    1.637954   -0.014685
      9          6           0        1.907686   -0.812207   -0.025294
     10          8           0        2.395587    0.235645   -0.036252
     11          8           0        1.537894   -1.922926   -0.020660
     12          8           0        0.856848    2.757860   -0.077169
     13          1           0        1.134739    3.489284    0.505345
     14          1           0        1.586005    2.126156    0.015814
 ---------------------------------------------------------------------
                    Distance matrix (angstroms):
                    1          2          3          4          5
     1  N    0.000000
     2  N    1.324834   0.000000
     3  C    2.212946   1.342271   0.000000
     4  C    2.182218   2.143824   1.373437   0.000000
     5  N    1.316282   2.120133   2.210835   1.363213   0.000000
     6  H    3.231541   2.128519   1.080853   2.255476   3.278709
     7  H    3.206915   3.204181   2.221025   1.079582   2.149568
     8  H    2.045474   1.033219   2.139762   3.157505   3.094134
     9  C    2.303106   3.385804   4.499042   4.361460   3.127422
    10  O    2.817955   3.548039   4.825868   4.996991   3.922357
    11  O    2.442063   3.735143   4.590812   4.097510   2.744476
    12  O    3.364226   2.856091   4.049562   4.993857   4.640282
    13  H    4.172123   3.625141   4.752546   5.754604   5.439388
    14  H    3.168500   3.060905   4.373556   5.095175   4.484781
                    6          7          8          9         10
     6  H    0.000000
     7  H    2.798619   0.000000
     8  H    2.562216   4.198945   0.000000
     9  C    5.471992   5.271362   3.570832   0.000000
    10  O    5.671828   5.997212   3.389271   1.155925   0.000000
    11  O    5.645794   4.841294   4.200352   1.170668   2.322780
    12  O    4.369832   6.059598   1.910633   3.721872   2.954820
    13  H    4.964574   6.808092   2.650878   4.402483   3.531181
    14  H    4.889912   6.174661   2.327876   2.956205   2.057224
                   11         12         13         14
    11  O    0.000000
    12  O    4.730409   0.000000
    13  H    5.452636   0.975463   0.000000
    14  H    4.049532   0.969208   1.517037   0.000000
 Stoichiometry    C3H5N3O3
 Framework group  C1[X(C3H5N3O3)]
 Deg. of freedom    36
 Full point group                 C1      NOp   1
 Largest Abelian subgroup         C1      NOp   1
 Largest concise Abelian subgroup C1      NOp   1
                         Standard orientation:                         
 ---------------------------------------------------------------------
 Center     Atomic      Atomic             Coordinates (Angstroms)
 Number     Number       Type             X           Y           Z
 ---------------------------------------------------------------------
      1          7           0       -0.386692   -0.294155    0.037753
      2          7           0       -0.917752    0.918855   -0.004279
      3          6           0       -2.259298    0.883079   -0.030084
      4          6           0       -2.562491   -0.456213   -0.003628
      5          7           0       -1.388537   -1.147915    0.037972
      6          1           0       -2.864240    1.778250   -0.061001
      7          1           0       -3.527519   -0.940141   -0.009259
      8          1           0       -0.302764    1.749111   -0.006790
      9          6           0        1.738344   -1.180857   -0.009966
     10          8           0        2.430427   -0.255056   -0.018617
     11          8           0        1.149023   -2.192370   -0.007273
     12          8           0        1.440669    2.528708   -0.063289
     13          1           0        1.860354    3.187832    0.520617
     14          1           0        2.024761    1.761143    0.031813
 ---------------------------------------------------------------------
 Rotational constants (GHZ):           1.9407194           1.2787650           0.7717523
 Standard basis: 6-31+G(d,p) (6D, 7F)
 There are   196 symmetry adapted cartesian basis functions of A   symmetry.
 There are   196 symmetry adapted basis functions of A   symmetry.
   196 basis functions,   323 primitive gaussians,   196 cartesian basis functions
    34 alpha electrons       34 beta electrons
       nuclear repulsion energy       433.5606031371 Hartrees.
 NAtoms=   14 NActive=   14 NUniq=   14 SFac= 1.00D+00 NAtFMM=   60 NAOKFM=F Big=F
 Integral buffers will be    131072 words long.
 Raffenetti 2 integral format.
 Two-electron integral symmetry is turned on.
 ------------------------------------------------------------------------------
 Polarizable Continuum Model (PCM)
 =================================
 Model                : PCM.
 Atomic radii         : SMD-Coulomb.
 Polarization charges : Total charges.
 Charge compensation  : None.
 Solution method      : On-the-fly selection.
 Cavity type          : VdW (van der Waals Surface) (Alpha=1.000).
 Cavity algorithm     : GePol (No added spheres)
                        Default sphere list used, NSphG=   14.
                        Lebedev-Laikov grids with approx.  5.0 points / Ang**2.
                        Smoothing algorithm: York/Karplus (Gamma=1.0000).
                        Polarization charges: spherical gaussians, with
                                              point-specific exponents (IZeta= 3).
                        Self-potential: point-specific (ISelfS= 7).
                        Self-field    : sphere-specific E.n sum rule (ISelfD= 2).
 1st derivatives      : Analytical E(r).r(x)/FMM algorithm (CHGder, D1EAlg=3).
                        Cavity 1st derivative terms included.
 Solvent              : Water, Eps=  78.355300 Eps(inf)=   1.777849
 ------------------------------------------------------------------------------
 Spheres list:
 ISph  on   Nord     Re0    Alpha      Xe            Ye            Ze
    1   N      1    1.8900  1.000     -0.386692     -0.294155      0.037753
    2   N      2    1.8900  1.000     -0.917752      0.918855     -0.004279
    3   C      3    1.8500  1.000     -2.259298      0.883079     -0.030084
    4   C      4    1.8500  1.000     -2.562491     -0.456213     -0.003628
    5   N      5    1.8900  1.000     -1.388537     -1.147915      0.037972
    6   H      6    1.2000  1.000     -2.864240      1.778250     -0.061001
    7   H      7    1.2000  1.000     -3.527519     -0.940141     -0.009259
    8   H      8    1.2000  1.000     -0.302764      1.749111     -0.006790
[...]
 ! A10   A(5,4,7)              122.0557         -DE/DX =    0.0                 !
 ! A11   A(1,5,4)              108.6845         -DE/DX =    0.0                 !
 ! A12   A(2,8,12)             174.769          -DE/DX =    0.0                 !
 ! A13   A(9,10,14)            141.9796         -DE/DX =    0.0                 !
 ! A14   A(8,12,13)            113.5339         -DE/DX =    0.0                 !
 ! A15   A(8,12,14)            103.4672         -DE/DX =    0.0                 !
 ! A16   A(13,12,14)           105.2865         -DE/DX =    0.0                 !
 ! A17   L(10,9,11,1,-1)       182.5782         -DE/DX =    0.0                 !
 ! A18   L(10,14,12,1,-1)      137.5644         -DE/DX =    0.0                 !
 ! A19   L(10,9,11,1,-2)       179.8534         -DE/DX =    0.0                 !
 ! A20   L(10,14,12,1,-2)      204.2438         -DE/DX =    0.0                 !
 ! D1    D(5,1,2,3)              0.0802         -DE/DX =    0.0                 !
 ! D2    D(5,1,2,8)            179.485          -DE/DX =    0.0                 !
 ! D3    D(2,1,5,4)             -0.0693         -DE/DX =    0.0                 !
 ! D4    D(1,2,3,4)             -0.0564         -DE/DX =    0.0                 !
 ! D5    D(1,2,3,6)           -179.99           -DE/DX =    0.0                 !
 ! D6    D(8,2,3,4)           -179.388          -DE/DX =    0.0                 !
 ! D7    D(8,2,3,6)              0.6784         -DE/DX =    0.0                 !
 ! D8    D(1,2,8,12)             2.414          -DE/DX =    0.0                 !
 ! D9    D(3,2,8,12)          -178.3016         -DE/DX =    0.0                 !
 ! D10   D(2,3,4,5)              0.0128         -DE/DX =    0.0                 !
 ! D11   D(2,3,4,7)           -179.9008         -DE/DX =    0.0                 !
 ! D12   D(6,3,4,5)            179.9362         -DE/DX =    0.0                 !
 ! D13   D(6,3,4,7)              0.0226         -DE/DX =    0.0                 !
 ! D14   D(3,4,5,1)              0.035          -DE/DX =    0.0                 !
 ! D15   D(7,4,5,1)            179.9566         -DE/DX =    0.0                 !
 ! D16   D(2,8,12,13)         -108.5274         -DE/DX =    0.0                 !
 ! D17   D(2,8,12,14)            5.0502         -DE/DX =    0.0                 !
 ! D18   D(9,10,12,8)          -37.2652         -DE/DX =    0.0                 !
 ! D19   D(9,10,12,13)          68.7813         -DE/DX =    0.0                 !
 --------------------------------------------------------------------------------
 GradGradGradGradGradGradGradGradGradGradGradGradGradGradGradGradGradGrad


 ----------------------------------------------------------------------

 Electric dipole moment (input orientation):
 (Debye = 10**-18 statcoulomb cm , SI units = C m)
                  (au)            (Debye)         (10**-30 SI)
   Tot        0.262760D+01      0.667870D+01      0.222778D+02
   x         -0.170862D+00     -0.434287D+00     -0.144863D+01
   y          0.260153D+01      0.661243D+01      0.220567D+02
   z          0.327334D+00      0.832000D+00      0.277525D+01

 Dipole polarizability, Alpha (input orientation).
 (esu units = cm**3 , SI units = C**2 m**2 J**-1)
 Alpha(0;0):
               (au)            (10**-24 esu)      (10**-40 SI)
   iso        0.865108D+02      0.128196D+02      0.142637D+02
   aniso      0.469232D+02      0.695330D+01      0.773659D+01
   xx         0.903724D+02      0.133918D+02      0.149004D+02
   yx         0.118463D+01      0.175543D+00      0.195318D+00
   yy         0.109333D+03      0.162015D+02      0.180266D+02
   zx         0.335270D+01      0.496819D+00      0.552786D+00
   zy        -0.986826D+01     -0.146233D+01     -0.162706D+01
   zz         0.598269D+02      0.886543D+01      0.986412D+01

 ----------------------------------------------------------------------

 Dipole orientation:
     7         -0.97623414         -0.68843198         -1.03152605
     7         -1.89472471         -0.02413534          1.21026273
     6         -4.43525067          0.10482806          1.16642634
     6         -5.05574480         -0.52726099         -1.27915624
     7         -2.88237778         -0.99845712         -2.56375507
     1         -5.54248314          0.61382607          2.80031565
     1         -6.88673625         -0.66412527         -2.16397827
     1         -0.66949862          0.29556710          2.69426742
     6          4.05169281          0.35343848         -1.91702738
     8          4.19384318          1.31275702          0.05758050
     8          4.00377718         -0.57886447         -3.90594418
     8          1.70232680          0.80126540          5.08788707
     1          1.78092461         -0.53448643          6.33152043
     1          3.27414091          0.68978306          4.16080389

 Electric dipole moment (dipole orientation):
 (Debye = 10**-18 statcoulomb cm , SI units = C m)
                  (au)            (Debye)         (10**-30 SI)
   Tot        0.262760D+01      0.667870D+01      0.222778D+02
   x          0.000000D+00      0.000000D+00      0.000000D+00
   y          0.000000D+00      0.000000D+00      0.000000D+00
   z          0.262760D+01      0.667870D+01      0.222778D+02

 Dipole polarizability, Alpha (dipole orientation).
 (esu units = cm**3 , SI units = C**2 m**2 J**-1)
 Alpha(0;0):
               (au)            (10**-24 esu)      (10**-40 SI)
   iso        0.865108D+02      0.128196D+02      0.142637D+02
   aniso      0.469232D+02      0.695330D+01      0.773659D+01
   xx         0.908014D+02      0.134554D+02      0.149711D+02
   yx        -0.556310D+00     -0.824367D-01     -0.917232D-01
   yy         0.628875D+02      0.931896D+01      0.103687D+02
   zx         0.168754D+01      0.250068D+00      0.278238D+00
   zy         0.159893D+02      0.236937D+01      0.263628D+01
   zz         0.105844D+03      0.156844D+02      0.174513D+02

 ----------------------------------------------------------------------
 1\1\GINC-NODE5\Freq\RM062X\6-31+G(d,p)\C3H5N3O3\GONGKE2021\05-Jul-2023
 \0\\#N Geom=AllCheck Guess=TCheck SCRF=Check GenChk RM062X/6-31+G(d,p)
  Freq\\h2o-opt\\0,1\N,-0.5000193964,-0.6167710586,0.2590946916\N,-1.04
 12516662,0.5750492633,0.0272308306\C,-2.3751699751,0.4838759839,-0.130
 645988\C,-2.6372829753,-0.8591530224,0.0179523098\N,-1.4615825483,-1.4
 983464908,0.2549263346\H,-2.9996914723,1.3409373081,-0.3277135885\H,-3
 .5762583056,-1.3874985221,-0.0316749999\H,-0.4367071898,1.4113877312,-
 0.0002804952\C,2.2126743318,-0.8576335336,-0.1721315056\O,2.2487300544
 ,0.2463710021,-0.5396815214\O,2.2276087912,-1.9644453988,0.1835636798\
 O,0.7466449201,2.7716645539,-0.0258214201\H,0.704821011,3.3349042338,0
 .7587017863\H,1.6038094205,2.32598795,0.025557886\\Version=ES64L-G16Re
 vA.03\State=1-A\HF=-507.0917425\RMSD=3.452e-09\RMSF=7.692e-06\ZeroPoin
 t=0.0964698\Thermal=0.1077654\Dipole=-0.1708616,2.6015304,0.3273341\Di
 poleDeriv=-0.7929626,0.2330141,-0.0944764,0.0670689,0.4284932,-0.08283
 88,-0.0628353,-0.0641512,-0.1978526,-0.1261796,-0.5795039,0.0846634,-0
 .6120884,-0.9700133,0.0220928,0.0884746,0.0319142,-0.1689867,-0.017239
 8,0.3606296,-0.0394943,-0.0043897,0.1951751,-0.0396417,0.0087371,0.008
 4535,-0.0734504,-0.0213268,0.0544705,0.012223,0.2772979,-0.0203618,0.0
 153944,-0.024824,-0.0144361,-0.1581861,0.0814568,-0.2972495,0.1008405,
 0.0202143,-0.5579416,0.0314186,0.0576075,-0.0054202,-0.3242041,0.16089
 72,0.0016012,-0.0130293,0.0212648,0.1356847,0.0197137,-0.0158469,0.016
 9419,0.2559643,0.0659825,-0.0298651,-0.017823,-0.0521922,0.1215244,0.0
 083772,-0.0134276,0.0132882,0.2344652,0.6658121,0.4709269,-0.0136994,0
 .485042,0.8927928,0.016834,-0.0168686,0.012561,0.4033584,1.0519457,-0.
 0129782,-0.0366968,-0.0276909,3.4546359,-0.8880845,-0.0529896,-0.89863
 92,1.0057257,-0.4856439,-0.0253943,0.0272359,-0.0578924,-1.8008292,0.4
 560026,0.0497536,0.4423137,-0.514692,-0.4614412,0.0465936,-0.0065164,0
 .0819574,-1.7472638,0.4373987,-0.0082034,0.443896,-0.4991742,-0.905565
 4,-0.184755,0.0924939,-0.1887433,-1.1013127,0.0500523,0.090834,0.02784
 36,-0.7341952,0.3958676,-0.0236321,-0.0481208,0.0034367,0.4423495,-0.0
 289285,-0.0301252,-0.0246281,0.3698203,0.3883975,-0.013858,-0.0476004,
 -0.0132851,0.5270668,-0.0177906,-0.0702863,0.0100627,0.4014076\Polar=9
 0.3723919,1.1846258,109.3332219,3.3527034,-9.8682589,59.8269048\Quadru
 pole=7.1912766,-3.7237022,-3.4675744,0.0593594,2.2167369,6.6800077\PG=
 C01 [X(C3H5N3O3)]\NImag=0\\0.62777517,0.02939469,0.50644610,0.05783362
 ,-0.04905028,0.13836858,-0.16627634,0.11059500,-0.02640209,0.79974236,
 0.05357690,-0.24025971,0.02915687,0.19581942,0.82861087,-0.01873805,0.
 03588582,-0.08413876,0.06216479,-0.06775040,0.13793852,-0.08556920,0.0
 7145082,-0.02321237,-0.35507602,-0.03054760,-0.03296648,0.70492610,0.0
 0774896,-0.03668046,0.00880309,-0.01174720,-0.13005281,0.00689378,-0.1
 4112331,0.84600454,-0.01485488,0.01712982,0.01728758,-0.03524572,0.004
 51892,-0.07121656,0.09251855,-0.11468529,0.15946542,-0.11989180,-0.055
 09780,-0.01079510,-0.03421553,-0.01588797,-0.00376542,-0.12779598,-0.0
 7558490,0.00309440,0.81115219,0.02416913,0.00810890,0.00514373,-0.1131
 0344,-0.02941086,-0.00888175,-0.03539522,-0.37255654,0.03614080,0.1823
 4760,0.71042793,-0.02165729,-0.00471153,0.02162545,0.00935225,0.003589
 91,0.01207594,-0.00223520,0.03101337,-0.07643068,0.06166512,-0.0542096
 2,0.15254004,-0.25605352,-0.16773850,0.00207946,-0.03594473,-0.0665133
 0,0.00120856,0.02076874,0.09758132,-0.01303633,-0.24482412,0.08353876,
 -0.03331481,0.52948693,-0.09812518,-0.21572109,0.00369832,-0.01553274,
 -0.14741933,0.02156831,0.00546151,-0.04967597,0.01006130,0.08744839,-0
 .17659888,0.02480145,0.03020989,0.58034232,-0.00732405,-0.00535925,-0.
 09784308,-0.00563952,0.01498741,0.02375781,-0.00060225,0.02176310,0.01
 608798,-0.03375235,0.02437287,-0.08258362,0.04878092,-0.05873987,0.133
 76548,-0.00492006,-0.00238503,-0.00121661,-0.01257216,0.02893605,-0.00
 520399,-0.15980468,0.14012358,-0.03561787,0.01224266,-0.00544248,0.002
 24588,0.00114274,-0.00511328,-0.00000449,0.16378468,-0.00476771,0.0001
 7922,0.00037514,-0.00661154,0.01176668,-0.00284509,0.15067314,-0.26535
 948,0.05122511,0.01557553,-0.00330383,0.00251425,0.00114280,-0.0045580
 3,0.00165401,-0.15627368,0.26145357,-0.00093841,0.00069555,0.00709479,
 -0.00026002,0.00163438,-0.00326390,-0.03714171,0.04989680,-0.04177373,
 -0.00060904,-0.00018594,0.00039273,-0.00083896,0.00083383,0.00637261,0
 .03926031,-0.05239377,0.03521745,-0.00352118,0.00210859,-0.00179453,0.
 00076376,0.00230917,-0.00099321,0.00537597,0.00308825,0.00030020,-0.29
 119894,-0.13633733,-0.01491746,-0.01678797,-0.01407537,0.00062101,-0.0
 0042167,-0.00039472,0.00027981,0.30529557,0.00577357,-0.00037230,0.001
 90123,-0.00150047,-0.00648970,0.00149262,-0.02175122,-0.00134818,-0.00
 267314,-0.14200125,-0.13980202,-0.00341217,0.01621403,0.01422541,-0.00
 076079,0.00057320,0.00011337,-0.00023779,0.14355624,0.13263503,-0.0022
 4855,0.00144855,0.00787848,-0.00047832,0.00202873,0.00564498,0.0036810
 4,0.00055768,0.00010194,-0.01418949,-0.00270946,-0.03176432,-0.0034347
 0,-0.00468074,-0.00684893,0.00014857,-0.00036303,-0.00210575,0.0165657
 2,0.00375391,0.02579846,0.02111670,0.00934274,0.00312265,-0.18879056,-
 0.15521312,-0.00145557,-0.00565694,-0.01928062,0.00230672,-0.00550586,
 0.00218515,-0.00158531,0.00405174,0.01259215,-0.00238394,0.00058278,0.
 00057547,0.00029178,0.00048478,-0.00065905,-0.00001698,0.17235638,-0.0
 1661141,-0.02078104,-0.00073062,-0.14582455,-0.27511108,0.01382514,-0.
 00102750,0.01225249,-0.00227403,0.00425320,0.00462979,0.00044787,0.008
 18749,0.00168816,0.00187793,-0.00042459,-0.00034684,-0.00025516,-0.000
 23459,0.00131240,-0.00005029,0.14134963,0.27109321,0.00646668,0.002899
 56,-0.01009257,-0.00279646,0.01211293,-0.02361251,0.00009717,-0.004378
 47,-0.00374124,-0.00168004,0.00021699,0.00418159,-0.00171292,0.0025923
 5,0.00771378,0.00041002,-0.00016595,-0.00196101,-0.00007619,-0.0000534
 7,0.00132409,-0.00121268,-0.01300438,0.03101228,-0.00352995,0.00079251
 ,-0.00211135,0.00004537,0.00153225,-0.00050522,0.00261897,0.00012117,0
 .00053003,0.00215111,-0.00147940,0.00089950,0.00054598,-0.00170277,-0.
 00023773,0.00017565,0.00011585,0.00008976,0.00023155,-0.00013061,0.000
 10686,0.00066232,0.00112793,-0.00011123,0.13199208,0.00001688,-0.00509
 461,0.00137812,0.00241574,-0.00068969,0.00001590,0.00011746,-0.0005005
 1,0.00017810,-0.00073167,-0.00019180,-0.00021310,-0.00156123,0.0005346
 9,0.00011083,0.00005506,0.00002028,0.00002980,-0.00008619,0.00005165,-
 0.00008550,0.00061367,-0.00021570,-0.00012562,0.01472564,1.70640064,0.
 00043003,0.00092562,-0.00100219,-0.00091174,-0.00001916,-0.00016921,-0
 .00040493,0.00025062,-0.00004585,-0.00019884,0.00014747,0.00010466,-0.
 00012010,0.00016350,-0.00040018,-0.00006204,-0.00002008,0.00001863,-0.
 00003433,0.00002756,0.00004110,-0.00037418,-0.00017723,0.00006261,-0.0
 0159138,-0.50895051,0.31200342,-0.00388956,-0.00407244,0.00272224,0.00
 106951,-0.00072109,0.00012520,-0.00091119,-0.00022665,-0.00011865,-0.0
 0112387,0.00028655,-0.00038180,-0.00118231,0.00106493,0.00033974,-0.00
 004318,-0.00001596,-0.00003580,-0.00013455,0.00008879,-0.00014767,0.00
 000371,-0.00035043,-0.00009451,-0.06738613,-0.02206450,0.00652434,0.04
 237474,0.00030518,0.00064795,0.00019987,-0.00089199,0.00013720,0.00009
 636,-0.00050246,0.00012528,-0.00016992,-0.00008950,0.00029485,-0.00010
 583,0.00005229,0.00021821,0.00007457,-0.00003783,-0.00002398,-0.000016
 93,-0.00001231,0.00002218,0.00000290,-0.00065690,-0.00026728,0.0000902
 0,-0.02107017,-0.84136301,0.25388279,0.02349191,0.95821321,0.00051741,
 0.00099665,0.00005740,0.00004886,0.00001814,0.00000663,0.00022692,-0.0
 0007390,0.00004135,0.00020094,-0.00001503,-0.00000161,0.00050544,-0.00
 025933,0.00016452,0.00002070,0.00001230,-0.00000035,0.00003978,-0.0000
 3226,-0.00000289,0.00007382,0.00004990,-0.00012254,0.00625540,0.255903
 36,-0.15736627,-0.01000592,-0.30360119,0.13787944,-0.00279247,0.004058
 92,0.00036834,-0.00146913,-0.00047483,0.00017048,-0.00088713,0.0003190
 0,-0.00018621,-0.00066294,0.00043726,-0.00022979,0.00038453,0.00033794
 ,-0.00001514,-0.00012443,-0.00007344,-0.00006874,-0.00008214,0.0000322
 8,-0.00002952,-0.00028047,-0.00038750,0.00005024,-0.06700124,0.0062865
 2,-0.00315489,0.03230617,-0.00246925,0.00143395,0.04041198,-0.00005146
 ,0.00037393,-0.00036689,0.00000328,0.00046523,-0.00005161,0.00024724,0
 .00005978,-0.00001576,0.00048903,-0.00009990,0.00017792,0.00085210,-0.
 00032323,-0.00006175,0.00002372,0.00002340,0.00000701,0.00005716,-0.00
 003218,0.00004055,-0.00019137,0.00015345,0.00004253,0.00642002,-0.8557
 3653,0.25219092,0.00055015,-0.11603123,0.04839098,-0.00817868,0.969291
 20,0.00064955,-0.00070677,0.00050789,0.00033437,-0.00003780,0.00022026
 ,0.00008818,-0.00010130,0.00000822,0.00000235,-0.00002208,-0.00005372,
 -0.00016937,0.00003146,0.00005162,0.00002669,-0.00000092,-0.00002279,0
 .00000382,-0.00000116,-0.00001838,0.00014763,0.00004874,-0.00002103,-0
 .00321482,0.25229603,-0.15354277,0.00042707,0.05012758,0.01972092,0.00
 164593,-0.30085536,0.13333675,-0.00224171,0.00163809,-0.00066620,-0.00
 646692,-0.01135956,-0.00073654,0.00200944,-0.00109052,0.00028975,-0.00
 035358,-0.00117709,0.00017133,-0.00157050,-0.00246845,0.00026768,-0.00
 002781,0.00004697,-0.00002734,-0.00000207,-0.00019526,0.00005491,0.002
 54808,0.00930562,0.00285337,-0.00039227,-0.00106329,0.00069250,0.00018
 067,0.00099458,-0.00039768,0.00010482,0.00048200,-0.00022548,0.4609591
 4,-0.00131679,0.00314912,-0.00048224,-0.01276614,-0.00997225,-0.000492
 45,0.00230671,-0.00229669,0.00051287,-0.00078412,-0.00144856,0.0000942
 6,-0.00196180,-0.00248903,0.00008481,-0.00003325,0.00002128,-0.0000113
 6,0.00001547,-0.00030276,0.00006077,0.01022061,0.00402954,0.00123376,0
 .00015880,0.00178436,-0.00099574,0.00111789,-0.00309082,-0.00014736,-0
 .00002950,-0.00108528,0.00047559,-0.22351603,0.31412363,-0.00014708,-0
 .00000177,0.00020404,-0.00097728,-0.00089481,0.00280300,0.00000177,0.0
 0000432,0.00025957,-0.00000795,-0.00003499,-0.00011516,-0.00002202,-0.
 00014742,-0.00018457,-0.00000617,0.00000959,0.00002935,0.00000389,-0.0
 0001821,-0.00005509,0.00234381,0.00118631,-0.00489324,0.00025087,0.000
 37045,-0.00032564,0.00044414,-0.00127153,0.00010382,-0.00008833,-0.000
 44577,0.00020649,0.03045831,0.24770998,0.38973683,-0.00011485,0.000268
 76,0.00002291,-0.00128548,-0.00127526,0.00050812,0.00018978,-0.0001468
 0,0.00008760,-0.00005146,-0.00014224,-0.00000675,-0.00017912,-0.000230
 97,-0.00005082,-0.00001076,0.00000295,0.00000003,0.00000056,-0.0000275
 4,-0.00000617,0.00226605,0.00142589,-0.00187575,-0.00008744,-0.0001045
 5,0.00011416,-0.00010621,0.00050329,-0.00000468,0.00002827,0.00013775,
 -0.00007773,-0.03865349,0.00735993,-0.01541146,0.03995981,0.00004505,0
 .00001493,0.00006989,-0.00045923,-0.00006347,0.00023618,-0.00005175,-0
 .00007801,0.00005283,-0.00003060,0.00001554,-0.00002183,0.00003868,0.0
 0000843,-0.00002875,-0.00000229,0.00000470,0.00000436,0.00000282,-0.00
 000714,-0.00000928,0.00012378,-0.00134911,-0.00149775,0.00006833,0.000
 09251,-0.00009454,0.00023673,-0.00042733,-0.00002921,-0.00002319,-0.00
 007430,0.00004838,0.03476002,-0.18173240,-0.23338443,-0.03186276,0.195
 23534,0.00002386,-0.00024022,0.00006414,0.00104583,0.00085515,-0.00013
 710,-0.00011980,0.00011447,-0.00003540,0.00005146,0.00007858,0.0000121
 8,0.00012542,0.00015180,-0.00001991,-0.00000342,-0.00000353,-0.0000006
 3,0.00000110,0.00002230,0.00000008,-0.00202445,-0.00170152,0.00009737,
 -0.00005093,-0.00023149,0.00015363,-0.00016757,0.00038011,0.00002435,0
 .00002374,0.00018770,-0.00009484,0.02411547,-0.25650905,-0.35440603,-0
 .01753506,0.25353494,0.35444120,-0.00009122,-0.00035636,0.00004903,0.0
 0047585,-0.00018108,0.00018734,-0.00018787,0.00021773,-0.00006760,0.00
 007812,0.00011274,-0.00000567,0.00016161,0.00013394,0.00000094,-0.0000
 0376,0.00000435,-0.00000166,-0.00000368,0.00002730,-0.00000570,-0.0038
 3870,-0.00078918,-0.00031770,-0.00002600,0.00138046,-0.00090860,-0.001
 15780,0.00038316,0.00108505,0.00006418,-0.00084094,0.00036181,-0.41609
 379,0.21922822,-0.01684251,-0.00195565,-0.00284560,-0.00548565,0.42257
 869,-0.00015780,-0.00001094,-0.00009622,-0.00039615,-0.00151108,0.0000
 0718,0.00014219,0.00010655,-0.00000160,0.00009405,-0.00006463,0.000035
 04,-0.00004253,-0.00023166,0.00002487,0.00000085,0.00000964,-0.0000008
 1,0.00000281,-0.00000576,0.00000522,-0.00100215,0.00291200,0.00003733,
 -0.00067956,-0.00509228,0.00266876,0.00061412,0.00154476,-0.00121304,0
 .00016446,0.00301566,-0.00130241,0.19364291,-0.12069015,-0.01308173,0.
 02409155,-0.01163969,0.00336075,-0.21647474,0.13165758,-0.00001285,0.0
 0008822,-0.00001176,-0.00023494,-0.00020027,0.00009091,0.00006911,-0.0
 0005828,-0.00000860,-0.00001604,-0.00004156,0.00001652,-0.00005060,-0.
 00007495,-0.00003353,0.00000243,0.00000198,0.00000261,0.00000039,-0.00
 000865,0.00000623,0.00076670,0.00075735,0.00005241,-0.00030976,-0.0006
 7637,0.00046806,0.00036919,0.00031101,-0.00050477,0.00007992,0.0007595
 2,-0.00029862,-0.05685009,0.00846614,-0.03336336,0.03423558,-0.0188807
 8,-0.00009904,0.02195095,0.00955664,0.03368293\\0.00000996,-0.00001445
 ,0.00000983,-0.00001675,0.00000206,-0.00000864,-0.00000071,0.00000514,
 0.00000419,0.00000071,0.00000134,0.00000311,-0.00000417,0.00001218,0.0
 0000209,0.00000131,0.00000289,-0.00001192,-0.00000500,0.00000760,0.000
 00750,-0.00000296,-0.00000662,0.00000360,0.00000360,-0.00001544,0.0000
 1199,0.00000204,-0.00000345,0.00000281,-0.00000641,0.00001001,0.000007
 59,0.00000956,-0.00000546,-0.00001198,0.00000519,0.00000295,-0.0000105
 6,0.00000363,0.00000124,-0.00000962\\\@


 WOE UNTO THEM THAT CALL EVIL GOOD, AND GOOD EVIL      
 Job cpu time:       0 days  0 hours 22 minutes 23.8 seconds.
 Elapsed time:       0 days  0 hours  0 minutes 56.7 seconds.
 File lengths (MBytes):  RWF=     97 Int=      0 D2E=      0 Chk=      8 Scr=      1
 Normal termination of Gaussian 16 at Wed Jul  5 13:47:51 2023.
