 Entering Gaussian System, Link 0=/opt/soft/g16/g16
 Initial command:
 /opt/soft/g16/l1.exe "/scratch/gongke2021/RC-2-N-test/Gau-31508.inp" -scrdir="/scratch/gongke2021/RC-2-N-test/"
 Entering Link 1 = /opt/soft/g16/l1.exe PID=     31509.
  
 Copyright (c) 1988,1990,1992,1993,1995,1998,2003,2009,2016,
            Gaussian, Inc.  All Rights Reserved.
  
 This is part of the Gaussian(R) 16 program.  It is based on
 the Gaussian(R) 09 system (copyright 2009, Gaussian, Inc.),
 the Gaussian(R) 03 system (copyright 2003, Gaussian, Inc.),
 the Gaussian(R) 98 system (copyright 1998, Gaussian, Inc.),
 the Gaussian(R) 94 system (copyright 1995, Gaussian, Inc.),
 the Gaussian 92(TM) system (copyright 1992, Gaussian, Inc.),
 the Gaussian 90(TM) system (copyright 1990, Gaussian, Inc.),
 the Gaussian 88(TM) system (copyright 1988, Gaussian, Inc.),
 the Gaussian 86(TM) system (copyright 1986, Carnegie Mellon
 University), and the Gaussian 82(TM) system (copyright 1983,
 Carnegie Mellon University). Gaussian is a federally registered
 trademark of Gaussian, Inc.
  
 This software contains proprietary and confidential information,
 including trade secrets, belonging to Gaussian, Inc.
  
 This software is provided under written license and may be
 used, copied, transmitted, or stored only in accord with that
 written license.
  
 The following legend is applicable only to US Government
 contracts under FAR:
  
                    RESTRICTED RIGHTS LEGEND
  
 Use, reproduction and disclosure by the US Government is
 subject to restrictions as set forth in subparagraphs (a)
 and (c) of the Commercial Computer Software - Restricted
 Rights clause in FAR 52.227-19.
  
 Gaussian, Inc.
 340 Quinnipiac St., Bldg. 40, Wallingford CT 06492
  
  
 ---------------------------------------------------------------
 Warning -- This program may not be used in any manner that
 competes with the business of Gaussian, Inc. or will provide
 assistance to any competitor of Gaussian, Inc.  The licensee
 of this program is prohibited from giving any competitor of
 Gaussian, Inc. access to this program.  By using this program,
 the user acknowledges that Gaussian, Inc. is engaged in the
 business of creating and licensing software in the field of
 computational chemistry and represents and warrants to the
 licensee that it is not a competitor of Gaussian, Inc. and that
 it will not use this program in any manner prohibited above.
 ---------------------------------------------------------------
  

 Cite this work as:
 Gaussian 16, Revision A.03,
 M. J. Frisch, G. W. Trucks, H. B. Schlegel, G. E. Scuseria, 
 M. A. Robb, J. R. Cheeseman, G. Scalmani, V. Barone, 
 G. A. Petersson, H. Nakatsuji, X. Li, M. Caricato, A. V. Marenich, 
 J. Bloino, B. G. Janesko, R. Gomperts, B. Mennucci, H. P. Hratchian, 
 J. V. Ortiz, A. F. Izmaylov, J. L. Sonnenberg, D. Williams-Young, 
 F. Ding, F. Lipparini, F. Egidi, J. Goings, B. Peng, A. Petrone, 
 T. Henderson, D. Ranasinghe, V. G. Zakrzewski, J. Gao, N. Rega, 
 G. Zheng, W. Liang, M. Hada, M. Ehara, K. Toyota, R. Fukuda, 
 J. Hasegawa, M. Ishida, T. Nakajima, Y. Honda, O. Kitao, H. Nakai, 
 T. Vreven, K. Throssell, J. A. Montgomery, Jr., J. E. Peralta, 
 F. Ogliaro, M. J. Bearpark, J. J. Heyd, E. N. Brothers, K. N. Kudin, 
 V. N. Staroverov, T. A. Keith, R. Kobayashi, J. Normand, 
 K. Raghavachari, A. P. Rendell, J. C. Burant, S. S. Iyengar, 
 J. Tomasi, M. Cossi, J. M. Millam, M. Klene, C. Adamo, R. Cammi, 
 J. W. Ochterski, R. L. Martin, K. Morokuma, O. Farkas, 
 J. B. Foresman, and D. J. Fox, Gaussian, Inc., Wallingford CT, 2016.
 
 ******************************************
 Gaussian 16:  ES64L-G16RevA.03 25-Dec-2016
                 6-Jul-2023 
 ******************************************
 %mem=10GB
 %nprocshared=24
 Will use up to   24 processors via shared memory.
 -----------------------------------------------------
 # opt freq 6-31+g(d,p) m062x scrf=(SMD,solvent=water)
 -----------------------------------------------------
 1/18=20,19=15,26=3,38=1/1,3;
 2/9=110,12=2,17=6,18=5,40=1/2;
 3/5=1,6=6,7=111,11=2,25=1,30=1,70=32201,71=1,72=1,74=-55/1,2,3;
 4//1;
 5/5=2,38=5,53=1/2;
 6/7=2,8=2,9=2,10=2,28=1/1;
 7//1,2,3,16;
 1/18=20,19=15,26=3/3(2);
 2/9=110/2;
 99//99;
 2/9=110/2;
 3/5=1,6=6,7=111,11=2,25=1,30=1,70=32205,71=1,72=1,74=-55/1,2,3;
 4/5=5,16=3,69=1/1;
 5/5=2,38=5,53=1/2;
 7//1,2,3,16;
 1/18=20,19=15,26=3/3(-5);
 2/9=110/2;
 6/7=2,8=2,9=2,10=2,19=2,28=1/1;
 99/9=1/99;
 ----
 test
 ----
 Symbolic Z-matrix:
 Charge =  0 Multiplicity = 1
 N                     0.36357  -0.29911   0.13412 
 N                     1.45503  -1.044     0.00288 
 C                     1.13683  -2.35002  -0.08918 
 C                    -0.23848  -2.36521  -0.00377 
 N                    -0.66911  -1.08495   0.13046 
 H                     1.87583  -3.12596  -0.20466 
 H                    -0.92589  -3.19533  -0.03162 
 H                     2.35733  -0.54815  -0.03075 
 C                    -2.71525   0.76093  -0.04807 
 O                    -3.58227  -0.00977   0.00835 
 O                    -1.89463   1.58606  -0.11268 
 O                     1.09102   2.45604   0.12308 
 H                     0.53401   1.65599   0.18081 
 H                     0.59503   3.09859  -0.39247 
 O                     3.34958   0.95999  -0.13185 
 H                     2.67082   1.66891  -0.12489 
 H                     4.03832   1.22959   0.48243 
 
 Add virtual bond connecting atoms H16        and O12        Dist= 3.37D+00.
 Add virtual bond connecting atoms H13        and N1         Dist= 3.71D+00.
 Add virtual bond connecting atoms O15        and H8         Dist= 3.42D+00.
 Add virtual bond connecting atoms H13        and O11        Dist= 4.62D+00.

 GradGradGradGradGradGradGradGradGradGradGradGradGradGradGradGradGradGrad
 Berny optimization.
 Initialization pass.
                           ----------------------------
                           !    Initial Parameters    !
                           ! (Angstroms and Degrees)  !
 --------------------------                            --------------------------
 ! Name  Definition              Value          Derivative Info.                !
 --------------------------------------------------------------------------------
 ! R1    R(1,2)                  1.3279         estimate D2E/DX2                !
 ! R2    R(1,5)                  1.2977         estimate D2E/DX2                !
 ! R3    R(1,13)                 1.9631         estimate D2E/DX2                !
 ! R4    R(2,3)                  1.3474         estimate D2E/DX2                !
 ! R5    R(2,8)                  1.0301         estimate D2E/DX2                !
 ! R6    R(3,4)                  1.378          estimate D2E/DX2                !
 ! R7    R(3,6)                  1.0778         estimate D2E/DX2                !
 ! R8    R(4,5)                  1.3574         estimate D2E/DX2                !
 ! R9    R(4,7)                  1.0782         estimate D2E/DX2                !
 ! R10   R(8,15)                 1.8081         estimate D2E/DX2                !
 ! R11   R(9,10)                 1.1614         estimate D2E/DX2                !
 ! R12   R(9,11)                 1.1655         estimate D2E/DX2                !
 ! R13   R(11,13)                2.4473         estimate D2E/DX2                !
 ! R14   R(12,13)                0.9766         estimate D2E/DX2                !
 ! R15   R(12,14)                0.9616         estimate D2E/DX2                !
 ! R16   R(12,16)                1.7824         estimate D2E/DX2                !
 ! R17   R(15,16)                0.9815         estimate D2E/DX2                !
 ! R18   R(15,17)                0.9615         estimate D2E/DX2                !
 ! A1    A(2,1,5)              108.3076         estimate D2E/DX2                !
 ! A2    A(2,1,13)             119.3176         estimate D2E/DX2                !
 ! A3    A(5,1,13)             132.2426         estimate D2E/DX2                !
 ! A4    A(1,2,3)              110.8774         estimate D2E/DX2                !
 ! A5    A(1,2,8)              116.9469         estimate D2E/DX2                !
 ! A6    A(3,2,8)              132.1603         estimate D2E/DX2                !
 ! A7    A(2,3,4)              104.013          estimate D2E/DX2                !
 ! A8    A(2,3,6)              122.9052         estimate D2E/DX2                !
 ! A9    A(4,3,6)              133.0816         estimate D2E/DX2                !
 ! A10   A(3,4,5)              108.201          estimate D2E/DX2                !
 ! A11   A(3,4,7)              130.0309         estimate D2E/DX2                !
 ! A12   A(5,4,7)              121.768          estimate D2E/DX2                !
 ! A13   A(1,5,4)              108.6009         estimate D2E/DX2                !
 ! A14   A(2,8,15)             152.1293         estimate D2E/DX2                !
 ! A15   A(9,11,13)            135.4221         estimate D2E/DX2                !
 ! A16   A(13,12,14)           106.5547         estimate D2E/DX2                !
 ! A17   A(13,12,16)            98.7417         estimate D2E/DX2                !
 ! A18   A(14,12,16)           132.663          estimate D2E/DX2                !
 ! A19   A(1,13,11)             83.2536         estimate D2E/DX2                !
 ! A20   A(1,13,12)            149.7735         estimate D2E/DX2                !
 ! A21   A(11,13,12)           125.6158         estimate D2E/DX2                !
 ! A22   A(8,15,16)            102.8585         estimate D2E/DX2                !
 ! A23   A(8,15,17)            126.2484         estimate D2E/DX2                !
 ! A24   A(16,15,17)           106.7582         estimate D2E/DX2                !
 ! A25   A(12,16,15)           158.8957         estimate D2E/DX2                !
 ! A26   L(10,9,11,3,-1)       183.5173         estimate D2E/DX2                !
 ! A27   L(10,9,11,3,-2)       179.5975         estimate D2E/DX2                !
 ! D1    D(5,1,2,3)             -0.0136         estimate D2E/DX2                !
 ! D2    D(5,1,2,8)            178.7301         estimate D2E/DX2                !
 ! D3    D(13,1,2,3)          -176.3345         estimate D2E/DX2                !
 ! D4    D(13,1,2,8)             2.4092         estimate D2E/DX2                !
 ! D5    D(2,1,5,4)              0.0947         estimate D2E/DX2                !
 ! D6    D(13,1,5,4)           175.7603         estimate D2E/DX2                !
 ! D7    D(2,1,13,11)          167.4842         estimate D2E/DX2                !
 ! D8    D(2,1,13,12)            3.3688         estimate D2E/DX2                !
 ! D9    D(5,1,13,11)           -7.7955         estimate D2E/DX2                !
 ! D10   D(5,1,13,12)         -171.911          estimate D2E/DX2                !
 ! D11   D(1,2,3,4)             -0.0703         estimate D2E/DX2                !
 ! D12   D(1,2,3,6)            179.7869         estimate D2E/DX2                !
 ! D13   D(8,2,3,4)           -178.5594         estimate D2E/DX2                !
 ! D14   D(8,2,3,6)              1.2977         estimate D2E/DX2                !
 ! D15   D(1,2,8,15)            -8.7322         estimate D2E/DX2                !
 ! D16   D(3,2,8,15)           169.6842         estimate D2E/DX2                !
 ! D17   D(2,3,4,5)              0.1253         estimate D2E/DX2                !
 ! D18   D(2,3,4,7)           -179.9948         estimate D2E/DX2                !
 ! D19   D(6,3,4,5)           -179.7105         estimate D2E/DX2                !
 ! D20   D(6,3,4,7)              0.1694         estimate D2E/DX2                !
 ! D21   D(3,4,5,1)             -0.1396         estimate D2E/DX2                !
 ! D22   D(7,4,5,1)            179.9685         estimate D2E/DX2                !
 ! D23   D(2,8,15,16)            3.211          estimate D2E/DX2                !
 ! D24   D(2,8,15,17)          125.4931         estimate D2E/DX2                !
 ! D25   D(9,11,13,1)           12.2265         estimate D2E/DX2                !
 ! D26   D(9,11,13,12)        -177.5317         estimate D2E/DX2                !
 ! D27   D(14,12,13,1)         138.5643         estimate D2E/DX2                !
 ! D28   D(14,12,13,11)        -21.9029         estimate D2E/DX2                !
 ! D29   D(16,12,13,1)          -0.9889         estimate D2E/DX2                !
 ! D30   D(16,12,13,11)       -161.456          estimate D2E/DX2                !
 ! D31   D(13,12,16,15)        -17.9037         estimate D2E/DX2                !
 ! D32   D(14,12,16,15)       -140.162          estimate D2E/DX2                !
 ! D33   D(8,15,16,12)          18.2119         estimate D2E/DX2                !
 ! D34   D(17,15,16,12)       -116.3865         estimate D2E/DX2                !
 --------------------------------------------------------------------------------
 Trust Radius=3.00D-01 FncErr=1.00D-07 GrdErr=1.00D-06 EigMax=2.50D+02 EigMin=1.00D-04
 Number of steps in this run=     89 maximum allowed number of steps=    102.
 GradGradGradGradGradGradGradGradGradGradGradGradGradGradGradGradGradGrad

                          Input orientation:                          
 ---------------------------------------------------------------------
 Center     Atomic      Atomic             Coordinates (Angstroms)
 Number     Number       Type             X           Y           Z
 ---------------------------------------------------------------------
      1          7           0        0.363565   -0.299114    0.134115
      2          7           0        1.455025   -1.043997    0.002877
      3          6           0        1.136827   -2.350018   -0.089184
      4          6           0       -0.238480   -2.365206   -0.003772
      5          7           0       -0.669109   -1.084947    0.130457
      6          1           0        1.875833   -3.125956   -0.204664
      7          1           0       -0.925889   -3.195329   -0.031622
      8          1           0        2.357330   -0.548145   -0.030751
      9          6           0       -2.715247    0.760933   -0.048066
     10          8           0       -3.582272   -0.009770    0.008348
     11          8           0       -1.894627    1.586055   -0.112681
     12          8           0        1.091016    2.456039    0.123078
     13          1           0        0.534008    1.655990    0.180813
     14          1           0        0.595026    3.098589   -0.392471
     15          8           0        3.349581    0.959988   -0.131852
     16          1           0        2.670817    1.668908   -0.124889
     17          1           0        4.038322    1.229591    0.482426
 ---------------------------------------------------------------------
                    Distance matrix (angstroms):
                    1          2          3          4          5
     1  N    0.000000
     2  N    1.327915   0.000000
     3  C    2.203180   1.347374   0.000000
     4  C    2.156434   2.147928   1.378040   0.000000
     5  N    1.297676   2.128356   2.215864   1.357395   0.000000
     6  H    3.223781   2.134176   1.077750   2.255974   3.279444
     7  H    3.174622   3.209076   2.229946   1.078152   2.132116
     8  H    2.016010   1.030123   2.177105   3.168701   3.077901
     9  C    3.261284   4.544396   4.951584   3.988619   2.761489
    10  O    3.958430   5.142375   5.268412   4.090131   3.107641
    11  O    2.951983   4.260363   4.968192   4.285691   2.948773
    12  O    2.849592   3.520966   4.810960   5.002805   3.954324
    13  H    1.963075   2.858297   4.060097   4.098881   2.993787
    14  H    3.446049   4.249343   5.483872   5.540657   4.401530
    15  O    3.251518   2.761060   3.981738   4.893618   4.516684
    16  H    3.043617   2.975622   4.301879   4.975214   4.336361
    17  H    3.995260   3.474564   4.643168   5.608029   5.257459
                    6          7          8          9         10
     6  H    0.000000
     7  H    2.807918   0.000000
     8  H    2.628154   4.217477   0.000000
     9  C    6.017511   4.342129   5.238800   0.000000
    10  O    6.288633   4.147982   5.964080   1.161421   0.000000
    11  O    6.035551   4.879207   4.758220   1.165512   2.325823
    12  O    5.646417   6.002483   3.263792   4.170169   5.285168
    13  H    4.981575   5.070673   2.868357   3.378042   4.443902
    14  H    6.357727   6.485121   4.066353   4.067082   5.222295
    15  O    4.344211   5.962914   1.808106   6.068672   7.000762
    16  H    4.860976   6.050272   2.241085   5.462601   6.475865
    17  H    4.911134   6.669899   2.499886   6.790564   7.735258
                   11         12         13         14         15
    11  O    0.000000
    12  O    3.118737   0.000000
    13  H    2.447304   0.976560   0.000000
    14  H    2.926502   0.961596   1.553535   0.000000
    15  O    5.281481   2.721080   2.917127   3.497014   0.000000
    16  H    4.566212   1.782368   2.158604   2.534659   0.981497
    17  H    5.973366   3.212463   3.543022   4.014335   0.961451
                   16         17
    16  H    0.000000
    17  H    1.559455   0.000000
 Stoichiometry    C3H7N3O4
 Framework group  C1[X(C3H7N3O4)]
 Deg. of freedom    45
 Full point group                 C1      NOp   1
 Largest Abelian subgroup         C1      NOp   1
 Largest concise Abelian subgroup C1      NOp   1
                         Standard orientation:                         
 ---------------------------------------------------------------------
 Center     Atomic      Atomic             Coordinates (Angstroms)
 Number     Number       Type             X           Y           Z
 ---------------------------------------------------------------------
      1          7           0       -0.363565    0.299114    0.134115
      2          7           0       -1.455025    1.043997    0.002877
      3          6           0       -1.136827    2.350018   -0.089184
      4          6           0        0.238480    2.365206   -0.003772
      5          7           0        0.669109    1.084947    0.130457
      6          1           0       -1.875833    3.125956   -0.204664
      7          1           0        0.925889    3.195329   -0.031622
      8          1           0       -2.357330    0.548145   -0.030751
      9          6           0        2.715247   -0.760933   -0.048066
     10          8           0        3.582272    0.009770    0.008348
     11          8           0        1.894627   -1.586055   -0.112681
     12          8           0       -1.091016   -2.456039    0.123078
     13          1           0       -0.534008   -1.655990    0.180813
     14          1           0       -0.595026   -3.098589   -0.392471
     15          8           0       -3.349581   -0.959988   -0.131852
     16          1           0       -2.670817   -1.668908   -0.124889
     17          1           0       -4.038322   -1.229591    0.482426
 ---------------------------------------------------------------------
 Rotational constants (GHZ):           1.3899099           0.7907547           0.5058457
 Standard basis: 6-31+G(d,p) (6D, 7F)
 There are   225 symmetry adapted cartesian basis functions of A   symmetry.
 There are   225 symmetry adapted basis functions of A   symmetry.
   225 basis functions,   369 primitive gaussians,   225 cartesian basis functions
    39 alpha electrons       39 beta electrons
       nuclear repulsion energy       519.3040954196 Hartrees.
 NAtoms=   17 NActive=   17 NUniq=   17 SFac= 1.00D+00 NAtFMM=   60 NAOKFM=F Big=F
 Integral buffers will be    131072 words long.
 Raffenetti 2 integral format.
 Two-electron integral symmetry is turned on.
 ------------------------------------------------------------------------------
 Polarizable Continuum Model (PCM)
 =================================
 Model                : PCM.
 Atomic radii         : SMD-Coulomb.
 Polarization charges : Total charges.
 Charge compensation  : None.
 Solution method      : On-the-fly selection.
 Cavity type          : VdW (van der Waals Surface) (Alpha=1.000).
 Cavity algorithm     : GePol (No added spheres)
                        Default sphere list used, NSphG=   17.
                        Lebedev-Laikov grids with approx.  5.0 points / Ang**2.
                        Smoothing algorithm: York/Karplus (Gamma=1.0000).
                        Polarization charges: spherical gaussians, with
                                              point-specific exponents (IZeta= 3).
                        Self-potential: point-specific (ISelfS= 7).
                        Self-field    : sphere-specific E.n sum rule (ISelfD= 2).
 1st derivatives      : Analytical E(r).r(x)/FMM algorithm (CHGder, D1EAlg=3).
                        Cavity 1st derivative terms included.
 Solvent              : Water, Eps=  78.355300 Eps(inf)=   1.777849
 ------------------------------------------------------------------------------
 Spheres list:
 ISph  on   Nord     Re0    Alpha      Xe            Ye            Ze
    1   N      1    1.8900  1.000     -0.363565      0.299114      0.134115
    2   N      2    1.8900  1.000     -1.455025      1.043997      0.002877
    3   C      3    1.8500  1.000     -1.136827      2.350018     -0.089184
    4   C      4    1.8500  1.000      0.238480      2.365206     -0.003772
    5   N      5    1.8900  1.000      0.669109      1.084947      0.130457
    6   H      6    1.2000  1.000     -1.875833      3.125956     -0.204664
    7   H      7    1.2000  1.000      0.925889      3.195329     -0.031622
    8   H      8    1.2000  1.000     -2.357330      0.548145     -0.030751
    9   C      9    1.8500  1.000      2.715247     -0.760933     -0.048066
   10   O     10    1.5200  1.000      3.582272      0.009770      0.008348
   11   O     11    1.5200  1.000      1.894627     -1.586055     -0.112681
   12   O     12    1.5200  1.000     -1.091016     -2.456039      0.123078
   13   H     13    1.2000  1.000     -0.534008     -1.655990      0.180813
   14   H     14    1.2000  1.000     -0.595026     -3.098589     -0.392471
   15   O     15    1.5200  1.000     -3.349581     -0.959988     -0.131852
   16   H     16    1.2000  1.000     -2.670817     -1.668908     -0.124889
   17   H     17    1.2000  1.000     -4.038322     -1.229591      0.482426
 ------------------------------------------------------------------------------
 ------------------------------------------------------------------------------
 Atomic radii for non-electrostatic terms: SMD-CDS.
 ------------------------------------------------------------------------------
 Nuclear repulsion after PCM non-electrostatic terms =      519.3164880519 Hartrees.
 One-electron integrals computed using PRISM.
 NBasis=   225 RedAO= T EigKep=  3.39D-05  NBF=   225
 NBsUse=   225 1.00D-06 EigRej= -1.00D+00 NBFU=   225
 ExpMin= 4.38D-02 ExpMax= 5.48D+03 ExpMxC= 8.25D+02 IAcc=3 IRadAn=         5 AccDes= 0.00D+00
 Harris functional with IExCor= 1009 and IRadAn=       5 diagonalized for initial guess.
 HarFok:  IExCor= 1009 AccDes= 0.00D+00 IRadAn=         5 IDoV= 1 UseB2=F ITyADJ=14
 ICtDFT=  3500011 ScaDFX=  1.000000  1.000000  1.000000  1.000000
 FoFCou: FMM=F IPFlag=           0 FMFlag=      100000 FMFlg1=           0
         NFxFlg=           0 DoJE=T BraDBF=F KetDBF=T FulRan=T
         wScrn=  0.000000 ICntrl=       500 IOpCl=  0 I1Cent=   200000004 NGrid=           0
         NMat0=    1 NMatS0=      1 NMatT0=    0 NMatD0=    1 NMtDS0=    0 NMtDT0=    0
 Petite list used in FoFCou.
 Requested convergence on RMS density matrix=1.00D-08 within 128 cycles.
 Requested convergence on MAX density matrix=1.00D-06.
 Requested convergence on             energy=1.00D-06.
 No special actions if energy rises.
 Inv3:  Mode=1 IEnd=     6203532.
 Iteration    1 A*A^-1 deviation from unit magnitude is 2.89D-15 for    623.
 Iteration    1 A*A^-1 deviation from orthogonality  is 2.25D-15 for    208     34.
 Iteration    1 A^-1*A deviation from unit magnitude is 3.00D-15 for     99.
 Iteration    1 A^-1*A deviation from orthogonality  is 1.42D-14 for   1243   1210.
 Error on total polarization charges =  0.04627
 SCF Done:  E(RM062X) =  -583.508732157     A.U. after   14 cycles
            NFock= 14  Conv=0.27D-08     -V/T= 2.0083
 SMD-CDS (non-electrostatic) energy       (kcal/mol) =       7.78
 (included in total energy above)

 **********************************************************************

            Population analysis using the SCF density.

 **********************************************************************

 Orbital symmetries:
       Occupied  (A) (A) (A) (A) (A) (A) (A) (A) (A) (A) (A) (A)
                 (A) (A) (A) (A) (A) (A) (A) (A) (A) (A) (A) (A)
                 (A) (A) (A) (A) (A) (A) (A) (A) (A) (A) (A) (A)
                 (A) (A) (A)
       Virtual   (A) (A) (A) (A) (A) (A) (A) (A) (A) (A) (A) (A)
                 (A) (A) (A) (A) (A) (A) (A) (A) (A) (A) (A) (A)
                 (A) (A) (A) (A) (A) (A) (A) (A) (A) (A) (A) (A)
                 (A) (A) (A) (A) (A) (A) (A) (A) (A) (A) (A) (A)
                 (A) (A) (A) (A) (A) (A) (A) (A) (A) (A) (A) (A)
                 (A) (A) (A) (A) (A) (A) (A) (A) (A) (A) (A) (A)
                 (A) (A) (A) (A) (A) (A) (A) (A) (A) (A) (A) (A)
                 (A) (A) (A) (A) (A) (A) (A) (A) (A) (A) (A) (A)
                 (A) (A) (A) (A) (A) (A) (A) (A) (A) (A) (A) (A)
                 (A) (A) (A) (A) (A) (A) (A) (A) (A) (A) (A) (A)
                 (A) (A) (A) (A) (A) (A) (A) (A) (A) (A) (A) (A)
                 (A) (A) (A) (A) (A) (A) (A) (A) (A) (A) (A) (A)
                 (A) (A) (A) (A) (A) (A) (A) (A) (A) (A) (A) (A)
                 (A) (A) (A) (A) (A) (A) (A) (A) (A) (A) (A) (A)
                 (A) (A) (A) (A) (A) (A) (A) (A) (A) (A) (A) (A)
                 (A) (A) (A) (A) (A) (A)
 The electronic state is 1-A.
 Alpha  occ. eigenvalues --  -19.72580 -19.72509 -19.64633 -19.64507 -14.85036
 Alpha  occ. eigenvalues --  -14.83573 -14.79935 -10.75021 -10.59598 -10.57582
 Alpha  occ. eigenvalues --   -1.28746  -1.23766  -1.22987  -1.13598  -1.12209
 Alpha  occ. eigenvalues --   -1.01376  -0.91065  -0.72928  -0.70963  -0.65817
 Alpha  occ. eigenvalues --   -0.64939  -0.61503  -0.60717  -0.59898  -0.59705
 Alpha  occ. eigenvalues --   -0.59428  -0.55586  -0.52735  -0.51798  -0.49001
 Alpha  occ. eigenvalues --   -0.45980  -0.44088  -0.44049  -0.41771  -0.40218
 Alpha  occ. eigenvalues --   -0.40087  -0.37161  -0.36072  -0.32510
 Alpha virt. eigenvalues --    0.01305   0.02877   0.03153   0.04105   0.04933
 Alpha virt. eigenvalues --    0.05576   0.06249   0.06654   0.07769   0.08141
 Alpha virt. eigenvalues --    0.08776   0.08943   0.09406   0.10416   0.12082
 Alpha virt. eigenvalues --    0.12877   0.13518   0.14899   0.15446   0.17775
 Alpha virt. eigenvalues --    0.18084   0.18787   0.19469   0.19789   0.20508
 Alpha virt. eigenvalues --    0.22943   0.23171   0.23522   0.23860   0.24561
 Alpha virt. eigenvalues --    0.25161   0.25516   0.25627   0.26467   0.27844
 Alpha virt. eigenvalues --    0.28142   0.29217   0.29477   0.29952   0.31109
 Alpha virt. eigenvalues --    0.32108   0.33142   0.33557   0.34355   0.34664
 Alpha virt. eigenvalues --    0.35562   0.36042   0.37350   0.39523   0.39693
 Alpha virt. eigenvalues --    0.40266   0.43108   0.43583   0.45272   0.47889
 Alpha virt. eigenvalues --    0.52131   0.56565   0.72185   0.72495   0.74272
 Alpha virt. eigenvalues --    0.76959   0.77252   0.81233   0.88738   0.90169
 Alpha virt. eigenvalues --    0.92772   0.93868   0.94881   0.95662   0.96668
 Alpha virt. eigenvalues --    0.98790   1.00397   1.02615   1.03115   1.04039
 Alpha virt. eigenvalues --    1.04996   1.08028   1.09758   1.11786   1.13875
 Alpha virt. eigenvalues --    1.15187   1.18338   1.19218   1.19492   1.20591
 Alpha virt. eigenvalues --    1.22716   1.24060   1.25076   1.26572   1.28640
 Alpha virt. eigenvalues --    1.29155   1.29863   1.30506   1.31682   1.32810
 Alpha virt. eigenvalues --    1.34347   1.36773   1.38800   1.38950   1.40369
 Alpha virt. eigenvalues --    1.42229   1.44849   1.46363   1.48841   1.49871
 Alpha virt. eigenvalues --    1.51311   1.54307   1.56512   1.57350   1.58594
 Alpha virt. eigenvalues --    1.60053   1.61765   1.63242   1.64606   1.66433
 Alpha virt. eigenvalues --    1.70633   1.74995   1.78949   1.81446   1.82227
 Alpha virt. eigenvalues --    1.84625   1.87443   1.91585   1.95738   2.03670
 Alpha virt. eigenvalues --    2.08177   2.08557   2.10172   2.14063   2.19410
 Alpha virt. eigenvalues --    2.19744   2.20555   2.21065   2.21789   2.27898
 Alpha virt. eigenvalues --    2.29423   2.30257   2.35893   2.37787   2.39199
 Alpha virt. eigenvalues --    2.40483   2.42343   2.42924   2.50013   2.54940
 Alpha virt. eigenvalues --    2.56751   2.59319   2.60095   2.61403   2.65033
 Alpha virt. eigenvalues --    2.66580   2.68166   2.70719   2.73820   2.78098
 Alpha virt. eigenvalues --    2.79114   2.81517   2.85378   2.91094   2.96058
 Alpha virt. eigenvalues --    3.00214   3.03852   3.03943   3.06562   3.07574
 Alpha virt. eigenvalues --    3.12461   3.23088   3.32200   3.34437   3.39194
 Alpha virt. eigenvalues --    3.45319   3.49968   3.53076   3.62933   3.67194
 Alpha virt. eigenvalues --    3.81569   4.02652   4.17426   4.22054   4.29442
 Alpha virt. eigenvalues --    4.31669   4.36957   4.49247   4.66832   4.76474
 Alpha virt. eigenvalues --    4.97989
          Condensed to atoms (all electrons):
               1          2          3          4          5          6
     1  N    7.471638  -0.310236  -0.140063   0.125870  -0.151640   0.015652
     2  N   -0.310236   7.103243   0.323839  -0.177790   0.173529  -0.048607
     3  C   -0.140063   0.323839   5.314223   0.221120   0.039522   0.390285
     4  C    0.125870  -0.177790   0.221120   5.451563   0.206225  -0.014176
     5  N   -0.151640   0.173529   0.039522   0.206225   7.137431  -0.004495
     6  H    0.015652  -0.048607   0.390285  -0.014176  -0.004495   0.412242
     7  H    0.021721  -0.005467  -0.023808   0.402508  -0.062258   0.000433
     8  H   -0.009071   0.272704  -0.008557  -0.001137   0.008148  -0.000432
     9  C    0.010015  -0.007469  -0.002468  -0.004808   0.000645   0.000107
    10  O   -0.000665  -0.001382   0.003363  -0.011938   0.008785  -0.000003
    11  O    0.021551   0.004317  -0.002826   0.003500  -0.044003   0.000007
    12  O   -0.021469   0.005823  -0.003205   0.001153   0.002189   0.000020
    13  H    0.037633  -0.003050   0.000093   0.001227  -0.008807  -0.000001
    14  H    0.000727  -0.000883  -0.000031   0.000147  -0.002327  -0.000000
    15  O    0.051446  -0.097651   0.001399   0.000547   0.008143  -0.000145
    16  H    0.006487  -0.004707  -0.001166   0.000704  -0.002438  -0.000001
    17  H   -0.004983   0.007522  -0.000240   0.000098  -0.000742   0.000000
               7          8          9         10         11         12
     1  N    0.021721  -0.009071   0.010015  -0.000665   0.021551  -0.021469
     2  N   -0.005467   0.272704  -0.007469  -0.001382   0.004317   0.005823
     3  C   -0.023808  -0.008557  -0.002468   0.003363  -0.002826  -0.003205
     4  C    0.402508  -0.001137  -0.004808  -0.011938   0.003500   0.001153
     5  N   -0.062258   0.008148   0.000645   0.008785  -0.044003   0.002189
     6  H    0.000433  -0.000432   0.000107  -0.000003   0.000007   0.000020
     7  H    0.445885  -0.000052  -0.000019  -0.000070   0.000053   0.000009
     8  H   -0.000052   0.276825   0.000168  -0.000004   0.000091   0.001095
     9  C   -0.000019   0.000168   4.325485   0.447954   0.399026  -0.004024
    10  O   -0.000070  -0.000004   0.447954   8.065951  -0.117845   0.000119
    11  O    0.000053   0.000091   0.399026  -0.117845   8.153768   0.007047
    12  O    0.000009   0.001095  -0.004024   0.000119   0.007047   8.367901
    13  H   -0.000000  -0.000394  -0.000280   0.000094   0.001995   0.236963
    14  H   -0.000000  -0.000029   0.000569   0.000026   0.001457   0.280046
    15  O    0.000004   0.010788  -0.000059  -0.000009   0.000342  -0.037547
    16  H   -0.000000  -0.000827   0.000094  -0.000001  -0.000014   0.018868
    17  H   -0.000000  -0.001251   0.000005   0.000000  -0.000004   0.002062
              13         14         15         16         17
     1  N    0.037633   0.000727   0.051446   0.006487  -0.004983
     2  N   -0.003050  -0.000883  -0.097651  -0.004707   0.007522
     3  C    0.000093  -0.000031   0.001399  -0.001166  -0.000240
     4  C    0.001227   0.000147   0.000547   0.000704   0.000098
     5  N   -0.008807  -0.002327   0.008143  -0.002438  -0.000742
     6  H   -0.000001  -0.000000  -0.000145  -0.000001   0.000000
     7  H   -0.000000  -0.000000   0.000004  -0.000000  -0.000000
     8  H   -0.000394  -0.000029   0.010788  -0.000827  -0.001251
     9  C   -0.000280   0.000569  -0.000059   0.000094   0.000005
    10  O    0.000094   0.000026  -0.000009  -0.000001   0.000000
    11  O    0.001995   0.001457   0.000342  -0.000014  -0.000004
    12  O    0.236963   0.280046  -0.037547   0.018868   0.002062
    13  H    0.285846  -0.010336   0.001362  -0.001524   0.000019
    14  H   -0.010336   0.293332   0.002604  -0.001103  -0.000024
    15  O    0.001362   0.002604   8.399261   0.265348   0.287761
    16  H   -0.001524  -0.001103   0.265348   0.265597  -0.014724
    17  H    0.000019  -0.000024   0.287761  -0.014724   0.290024
 Mulliken charges:
               1
     1  N   -0.124613
     2  N   -0.233736
     3  C   -0.111481
     4  C   -0.204813
     5  N   -0.307907
     6  H    0.249112
     7  H    0.221061
     8  H    0.451934
     9  C    0.835059
    10  O   -0.394376
    11  O   -0.428462
    12  O   -0.857051
    13  H    0.459162
    14  H    0.435825
    15  O   -0.893595
    16  H    0.469406
    17  H    0.434475
 Sum of Mulliken charges =  -0.00000
 Mulliken charges with hydrogens summed into heavy atoms:
               1
     1  N   -0.124613
     2  N    0.218198
     3  C    0.137632
     4  C    0.016248
     5  N   -0.307907
     9  C    0.835059
    10  O   -0.394376
    11  O   -0.428462
    12  O    0.037935
    15  O    0.010286
 Electronic spatial extent (au):  <R**2>=           2033.8878
 Charge=             -0.0000 electrons
 Dipole moment (field-independent basis, Debye):
    X=             -3.2385    Y=              1.6804    Z=             -0.2535  Tot=              3.6574
 Quadrupole moment (field-independent basis, Debye-Ang):
   XX=            -54.7162   YY=            -44.4492   ZZ=            -60.1502
   XY=             -6.5303   XZ=             -5.1618   YZ=              1.2031
 Traceless Quadrupole moment (field-independent basis, Debye-Ang):
   XX=             -1.6110   YY=              8.6560   ZZ=             -7.0450
   XY=             -6.5303   XZ=             -5.1618   YZ=              1.2031
 Octapole moment (field-independent basis, Debye-Ang**2):
  XXX=            -65.1981  YYY=              4.5879  ZZZ=             -0.2720  XYY=            -12.0934
  XXY=            -16.1263  XXZ=             22.1387  XZZ=              3.0670  YZZ=             -9.5339
  YYZ=            -12.9241  XYZ=              4.7745
 Hexadecapole moment (field-independent basis, Debye-Ang**3):
 XXXX=          -1405.4050 YYYY=           -757.1936 ZZZZ=            -63.3038 XXXY=              3.7427
 XXXZ=           -106.9621 YYYX=             -8.8745 YYYZ=             29.8790 ZZZX=             -5.5506
 ZZZY=              2.3261 XXYY=           -341.3468 XXZZ=           -254.0503 YYZZ=           -179.3315
 XXYZ=            -29.9924 YYXZ=              4.5337 ZZXY=              0.9257
 N-N= 5.193164880519D+02 E-N=-2.406041473053D+03  KE= 5.786858526058D+02
 D1PCM: PCM CHGder 1st derivatives, ID1Alg=3 FixD1E=F DoIter=F DoCFld=F I1PDM=0.
 Calling FoFJK, ICntrl=      2127 FMM=F ISym2X=0 I1Cent= 0 IOpClX= 0 NMat=1 NMatS=1 NMatT=0.
 ***** Axes restored to original set *****
 -------------------------------------------------------------------
 Center     Atomic                   Forces (Hartrees/Bohr)
 Number     Number              X              Y              Z
 -------------------------------------------------------------------
      1        7           0.002494815    0.003652192    0.000320107
      2        7          -0.003074547   -0.001101828   -0.000166576
      3        6           0.000026870    0.001164766    0.000076951
      4        6           0.000955422   -0.000800375   -0.000200086
      5        7          -0.003373198   -0.002380834    0.000457025
      6        1           0.000475676   -0.000351984   -0.000037495
      7        1           0.000177392   -0.000866957   -0.000079796
      8        1           0.000909305   -0.001604791    0.000696598
      9        6           0.004131371    0.006520722   -0.000849004
     10        8          -0.002490306   -0.003448935    0.000420275
     11        8          -0.001971177   -0.002468655    0.000430759
     12        8           0.000098325    0.000179450    0.003864408
     13        1           0.001189292   -0.000837912   -0.001485374
     14        1          -0.002126888    0.002362412   -0.002707759
     15        8          -0.001796263    0.000458532   -0.005065239
     16        1           0.002113884   -0.001631999    0.001312694
     17        1           0.002260027    0.001156194    0.003012512
 -------------------------------------------------------------------
 Cartesian Forces:  Max     0.006520722 RMS     0.002144539

 GradGradGradGradGradGradGradGradGradGradGradGradGradGradGradGradGradGrad
 Berny optimization.
 FormGI is forming the generalized inverse of G from B-inverse, IUseBI=4.
 Internal  Forces:  Max     0.004692246 RMS     0.001270349
 Search for a local minimum.
 Step number   1 out of a maximum of   89
 All quantities printed in internal units (Hartrees-Bohrs-Radians)
 Mixed Optimization -- RFO/linear search
 Second derivative matrix not updated -- first step.
 ITU=  0
     Eigenvalues ---    0.00230   0.00383   0.00715   0.00770   0.00970
     Eigenvalues ---    0.01384   0.01825   0.02007   0.02223   0.02338
     Eigenvalues ---    0.02383   0.02406   0.03662   0.04416   0.04794
     Eigenvalues ---    0.04794   0.05151   0.06728   0.06918   0.10567
     Eigenvalues ---    0.12530   0.15947   0.16000   0.16000   0.16000
     Eigenvalues ---    0.19780   0.20170   0.21795   0.22210   0.23083
     Eigenvalues ---    0.24670   0.36219   0.36268   0.41842   0.44002
     Eigenvalues ---    0.48094   0.49681   0.51057   0.54250   0.55131
     Eigenvalues ---    0.55163   0.56228   0.64933   1.24253   1.26868
 RFO step:  Lambda=-5.45621763D-04 EMin= 2.30000000D-03
 Linear search not attempted -- first point.
 Iteration  1 RMS(Cart)=  0.01560279 RMS(Int)=  0.00017738
 Iteration  2 RMS(Cart)=  0.00020893 RMS(Int)=  0.00003635
 Iteration  3 RMS(Cart)=  0.00000003 RMS(Int)=  0.00003635
 Variable       Old X    -DE/DX   Delta X   Delta X   Delta X     New X
                                 (Linear)    (Quad)   (Total)
    R1        2.50940   0.00037   0.00000   0.00071   0.00071   2.51011
    R2        2.45225   0.00469   0.00000   0.00756   0.00756   2.45981
    R3        3.70967   0.00128   0.00000   0.02712   0.02711   3.73679
    R4        2.54617  -0.00099   0.00000  -0.00244  -0.00244   2.54373
    R5        1.94665   0.00127   0.00000   0.00292   0.00293   1.94958
    R6        2.60412  -0.00063   0.00000  -0.00192  -0.00193   2.60219
    R7        2.03665   0.00058   0.00000   0.00161   0.00161   2.03826
    R8        2.56511   0.00170   0.00000   0.00350   0.00350   2.56861
    R9        2.03741   0.00056   0.00000   0.00154   0.00154   2.03895
   R10        3.41683   0.00137   0.00000   0.02259   0.02260   3.43942
   R11        2.19477   0.00417   0.00000   0.00328   0.00328   2.19805
   R12        2.20250  -0.00335   0.00000  -0.00270  -0.00270   2.19980
   R13        4.62473   0.00031   0.00000   0.01354   0.01354   4.63827
   R14        1.84543   0.00098   0.00000   0.00188   0.00187   1.84730
   R15        1.81715   0.00412   0.00000   0.00747   0.00747   1.82462
   R16        3.36819   0.00201   0.00000   0.03234   0.03233   3.40052
   R17        1.85476  -0.00067   0.00000  -0.00123  -0.00123   1.85353
   R18        1.81688   0.00387   0.00000   0.00701   0.00701   1.82389
    A1        1.89032  -0.00174   0.00000  -0.00601  -0.00601   1.88431
    A2        2.08249  -0.00056   0.00000  -0.00486  -0.00489   2.07760
    A3        2.30807   0.00230   0.00000   0.01127   0.01128   2.31935
    A4        1.93517   0.00151   0.00000   0.00529   0.00529   1.94047
    A5        2.04111   0.00053   0.00000   0.00612   0.00610   2.04721
    A6        2.30663  -0.00204   0.00000  -0.01135  -0.01134   2.29529
    A7        1.81537   0.00072   0.00000   0.00022   0.00021   1.81558
    A8        2.14510  -0.00047   0.00000  -0.00075  -0.00075   2.14435
    A9        2.32271  -0.00026   0.00000   0.00054   0.00054   2.32325
   A10        1.88846   0.00006   0.00000  -0.00046  -0.00047   1.88799
   A11        2.26947  -0.00073   0.00000  -0.00416  -0.00416   2.26531
   A12        2.12525   0.00068   0.00000   0.00463   0.00463   2.12989
   A13        1.89544  -0.00055   0.00000   0.00098   0.00097   1.89642
   A14        2.65516  -0.00013   0.00000   0.00115   0.00113   2.65629
   A15        2.36356   0.00019   0.00000   0.00119   0.00119   2.36475
   A16        1.85973  -0.00005   0.00000  -0.00592  -0.00594   1.85379
   A17        1.72337  -0.00023   0.00000  -0.00315  -0.00323   1.72014
   A18        2.31541  -0.00019   0.00000  -0.00619  -0.00625   2.30916
   A19        1.45305   0.00132   0.00000   0.00621   0.00616   1.45921
   A20        2.61404   0.00033   0.00000   0.00392   0.00383   2.61787
   A21        2.19241  -0.00160   0.00000  -0.00567  -0.00575   2.18666
   A22        1.79522  -0.00043   0.00000  -0.00490  -0.00499   1.79023
   A23        2.20345  -0.00035   0.00000  -0.00857  -0.00865   2.19481
   A24        1.86328  -0.00034   0.00000  -0.00905  -0.00914   1.85414
   A25        2.77325   0.00055   0.00000   0.00435   0.00433   2.77759
   A26        3.20298  -0.00203   0.00000  -0.04177  -0.04177   3.16121
   A27        3.13457   0.00047   0.00000   0.00975   0.00975   3.14431
    D1       -0.00024   0.00005   0.00000   0.00445   0.00443   0.00419
    D2        3.11943   0.00000   0.00000   0.00661   0.00662   3.12604
    D3       -3.07762  -0.00016   0.00000  -0.00154  -0.00152  -3.07914
    D4        0.04205  -0.00021   0.00000   0.00063   0.00066   0.04271
    D5        0.00165  -0.00007   0.00000  -0.00531  -0.00530  -0.00364
    D6        3.06760  -0.00000   0.00000   0.00076   0.00082   3.06841
    D7        2.92315  -0.00013   0.00000  -0.00049  -0.00041   2.92274
    D8        0.05880  -0.00021   0.00000  -0.02510  -0.02512   0.03367
    D9       -0.13606  -0.00017   0.00000  -0.00716  -0.00713  -0.14318
   D10       -3.00041  -0.00026   0.00000  -0.03178  -0.03184  -3.03225
   D11       -0.00123  -0.00001   0.00000  -0.00170  -0.00169  -0.00292
   D12        3.13787  -0.00001   0.00000  -0.00019  -0.00019   3.13768
   D13       -3.11645  -0.00001   0.00000  -0.00466  -0.00463  -3.12108
   D14        0.02265  -0.00001   0.00000  -0.00314  -0.00314   0.01951
   D15       -0.15241  -0.00017   0.00000  -0.00660  -0.00663  -0.15903
   D16        2.96155  -0.00016   0.00000  -0.00353  -0.00357   2.95798
   D17        0.00219  -0.00003   0.00000  -0.00153  -0.00155   0.00064
   D18       -3.14150   0.00001   0.00000   0.00136   0.00135  -3.14015
   D19       -3.13654  -0.00003   0.00000  -0.00327  -0.00327  -3.13981
   D20        0.00296   0.00000   0.00000  -0.00038  -0.00037   0.00258
   D21       -0.00244   0.00006   0.00000   0.00429   0.00430   0.00186
   D22        3.14104   0.00003   0.00000   0.00169   0.00168  -3.14046
   D23        0.05604   0.00062   0.00000   0.01763   0.01753   0.07357
   D24        2.19027  -0.00057   0.00000  -0.00666  -0.00661   2.18366
   D25        0.21339  -0.00018   0.00000  -0.00993  -0.00988   0.20351
   D26       -3.09851   0.00017   0.00000   0.00680   0.00675  -3.09176
   D27        2.41840  -0.00001   0.00000   0.01342   0.01343   2.43183
   D28       -0.38228  -0.00046   0.00000  -0.01845  -0.01840  -0.40068
   D29       -0.01726   0.00040   0.00000   0.02631   0.02630   0.00904
   D30       -2.81794  -0.00005   0.00000  -0.00556  -0.00554  -2.82348
   D31       -0.31248  -0.00000   0.00000   0.00831   0.00837  -0.30410
   D32       -2.44629   0.00050   0.00000   0.02601   0.02602  -2.42027
   D33        0.31786  -0.00046   0.00000  -0.02438  -0.02429   0.29356
   D34       -2.03133   0.00045   0.00000  -0.00522  -0.00526  -2.03658
         Item               Value     Threshold  Converged?
 Maximum Force            0.004692     0.000450     NO 
 RMS     Force            0.001270     0.000300     NO 
 Maximum Displacement     0.062494     0.001800     NO 
 RMS     Displacement     0.015619     0.001200     NO 
 Predicted change in Energy=-2.753079D-04
 GradGradGradGradGradGradGradGradGradGradGradGradGradGradGradGradGradGrad

                          Input orientation:                          
 ---------------------------------------------------------------------
 Center     Atomic      Atomic             Coordinates (Angstroms)
 Number     Number       Type             X           Y           Z
 ---------------------------------------------------------------------
      1          7           0        0.354031   -0.305988    0.133200
      2          7           0        1.447976   -1.047689    0.000826
      3          6           0        1.141077   -2.355201   -0.089540
      4          6           0       -0.232761   -2.382484   -0.000033
      5          7           0       -0.674153   -1.104226    0.137037
      6          1           0        1.887662   -3.124952   -0.205619
      7          1           0       -0.909845   -3.222191   -0.024788
      8          1           0        2.353107   -0.553832   -0.033724
      9          6           0       -2.733242    0.794003   -0.056391
     10          8           0       -3.574392   -0.007127    0.003563
     11          8           0       -1.907219    1.612261   -0.113232
     12          8           0        1.086911    2.464672    0.133056
     13          1           0        0.529243    1.663121    0.179146
     14          1           0        0.590892    3.108613   -0.388084
     15          8           0        3.358135    0.959724   -0.141888
     16          1           0        2.679963    1.668106   -0.123439
     17          1           0        4.044340    1.226800    0.482072
 ---------------------------------------------------------------------
                    Distance matrix (angstroms):
                    1          2          3          4          5
     1  N    0.000000
     2  N    1.328291   0.000000
     3  C    2.206428   1.346084   0.000000
     4  C    2.161922   2.146289   1.377021   0.000000
     5  N    1.301676   2.127247   2.216154   1.359249   0.000000
     6  H    3.226977   2.133299   1.078601   2.256041   3.280800
     7  H    3.182229   3.207559   2.227587   1.078964   2.137175
     8  H    2.021286   1.031674   2.171880   3.167304   3.081623
     9  C    3.282861   4.569210   4.992888   4.042975   2.807229
    10  O    3.941907   5.129031   5.268565   4.099858   3.103680
    11  O    2.975510   4.283185   5.003341   4.332968   2.993724
    12  O    2.865950   3.533345   4.825314   5.025352   3.979748
    13  H    1.977423   2.867814   4.073505   4.120640   3.017970
    14  H    3.462274   4.261536   5.499554   5.566070   4.429910
    15  O    3.271444   2.774668   3.988335   4.907648   4.538396
    16  H    3.061515   2.984757   4.307705   4.990638   4.359331
    17  H    4.011177   3.485112   4.646118   5.617202   5.274174
                    6          7          8          9         10
     6  H    0.000000
     7  H    2.805032   0.000000
     8  H    2.618557   4.215101   0.000000
     9  C    6.060795   4.410849   5.261950   0.000000
    10  O    6.292744   4.175794   5.952775   1.163158   0.000000
    11  O    6.070490   4.937055   4.780027   1.164084   2.327128
    12  O    5.656836   6.029292   3.277565   4.173799   5.277718
    13  H    4.991892   5.096944   2.878659   3.384472   4.434002
    14  H    6.369634   6.516385   4.079765   4.064148   5.216398
    15  O    4.341765   5.976435   1.820064   6.094231   7.001135
    16  H    4.858796   6.067245   2.247642   5.483734   6.476071
    17  H    4.905296   6.677903   2.509376   6.812700   7.732828
                   11         12         13         14         15
    11  O    0.000000
    12  O    3.122831   0.000000
    13  H    2.454468   0.977549   0.000000
    14  H    2.924922   0.965548   1.554027   0.000000
    15  O    5.305712   2.738416   2.932655   3.512261   0.000000
    16  H    4.587533   1.799478   2.171907   2.551336   0.980848
    17  H    5.993665   3.224984   3.555004   4.027990   0.965160
                   16         17
    16  H    0.000000
    17  H    1.556573   0.000000
 Stoichiometry    C3H7N3O4
 Framework group  C1[X(C3H7N3O4)]
 Deg. of freedom    45
 Full point group                 C1      NOp   1
 Largest Abelian subgroup         C1      NOp   1
 Largest concise Abelian subgroup C1      NOp   1
                         Standard orientation:                         
 ---------------------------------------------------------------------
 Center     Atomic      Atomic             Coordinates (Angstroms)
 Number     Number       Type             X           Y           Z
 ---------------------------------------------------------------------
      1          7           0       -0.359161    0.304338    0.133614
      2          7           0       -1.460133    1.035517    0.000968
      3          6           0       -1.165731    2.345872   -0.089788
      4          6           0        0.207781    2.386301   -0.000234
      5          7           0        0.661354    1.112359    0.137246
      6          1           0       -1.919628    3.108423   -0.206134
      7          1           0        0.876815    3.232429   -0.025221
      8          1           0       -2.360506    0.533029   -0.033466
      9          6           0        2.738484   -0.766179   -0.055515
     10          8           0        3.571943    0.042965    0.004226
     11          8           0        1.920315   -1.592306   -0.112138
     12          8           0       -1.065549   -2.473194    0.134293
     13          1           0       -0.515562   -1.666341    0.180159
     14          1           0       -0.563380   -3.112530   -0.386629
     15          8           0       -3.351029   -0.990089   -0.141205
     16          1           0       -2.666124   -1.691957   -0.122511
     17          1           0       -4.034679   -1.263515    0.482810
 ---------------------------------------------------------------------
 Rotational constants (GHZ):           1.3715808           0.7883831           0.5025486
 Standard basis: 6-31+G(d,p) (6D, 7F)
 There are   225 symmetry adapted cartesian basis functions of A   symmetry.
 There are   225 symmetry adapted basis functions of A   symmetry.
   225 basis functions,   369 primitive gaussians,   225 cartesian basis functions
    39 alpha electrons       39 beta electrons
       nuclear repulsion energy       517.8361199947 Hartrees.
 NAtoms=   17 NActive=   17 NUniq=   17 SFac= 1.00D+00 NAtFMM=   60 NAOKFM=F Big=F
 Integral buffers will be    131072 words long.
 Raffenetti 2 integral format.
 Two-electron integral symmetry is turned on.
 ------------------------------------------------------------------------------
 Polarizable Continuum Model (PCM)
 =================================
 Model                : PCM.
 Atomic radii         : SMD-Coulomb.
 Polarization charges : Total charges.
 Charge compensation  : None.
 Solution method      : On-the-fly selection.
 Cavity type          : VdW (van der Waals Surface) (Alpha=1.000).
 Cavity algorithm     : GePol (No added spheres)
                        Default sphere list used, NSphG=   17.
                        Lebedev-Laikov grids with approx.  5.0 points / Ang**2.
                        Smoothing algorithm: York/Karplus (Gamma=1.0000).
                        Polarization charges: spherical gaussians, with
                                              point-specific exponents (IZeta= 3).
                        Self-potential: point-specific (ISelfS= 7).
                        Self-field    : sphere-specific E.n sum rule (ISelfD= 2).
 1st derivatives      : Analytical E(r).r(x)/FMM algorithm (CHGder, D1EAlg=3).
                        Cavity 1st derivative terms included.
 Solvent              : Water, Eps=  78.355300 Eps(inf)=   1.777849
 ------------------------------------------------------------------------------
 Spheres list:
 ISph  on   Nord     Re0    Alpha      Xe            Ye            Ze
    1   N      1    1.8900  1.000     -0.359161      0.304338      0.133614
    2   N      2    1.8900  1.000     -1.460133      1.035517      0.000968
    3   C      3    1.8500  1.000     -1.165731      2.345872     -0.089788
    4   C      4    1.8500  1.000      0.207781      2.386301     -0.000234
    5   N      5    1.8900  1.000      0.661354      1.112359      0.137246
    6   H      6    1.2000  1.000     -1.919628      3.108423     -0.206134
    7   H      7    1.2000  1.000      0.876815      3.232429     -0.025221
    8   H      8    1.2000  1.000     -2.360506      0.533029     -0.033466
    9   C      9    1.8500  1.000      2.738484     -0.766179     -0.055515
   10   O     10    1.5200  1.000      3.571943      0.042965      0.004226
   11   O     11    1.5200  1.000      1.920315     -1.592306     -0.112138
   12   O     12    1.5200  1.000     -1.065549     -2.473194      0.134293
   13   H     13    1.2000  1.000     -0.515562     -1.666341      0.180159
   14   H     14    1.2000  1.000     -0.563380     -3.112530     -0.386629
   15   O     15    1.5200  1.000     -3.351029     -0.990089     -0.141205
   16   H     16    1.2000  1.000     -2.666124     -1.691957     -0.122511
   17   H     17    1.2000  1.000     -4.034679     -1.263515      0.482810
 ------------------------------------------------------------------------------
 ------------------------------------------------------------------------------
 Atomic radii for non-electrostatic terms: SMD-CDS.
 ------------------------------------------------------------------------------
 Nuclear repulsion after PCM non-electrostatic terms =      517.8485516710 Hartrees.
 One-electron integrals computed using PRISM.
 NBasis=   225 RedAO= T EigKep=  3.50D-05  NBF=   225
 NBsUse=   225 1.00D-06 EigRej= -1.00D+00 NBFU=   225
 Initial guess from the checkpoint file:  "/scratch/gongke2021/RC-2-N-test/Gau-31509.chk"
 B after Tr=    -0.000000   -0.000000    0.000000
         Rot=    0.999991    0.000246   -0.000036   -0.004275 Ang=   0.49 deg.
 ExpMin= 4.38D-02 ExpMax= 5.48D+03 ExpMxC= 8.25D+02 IAcc=2 IRadAn=         4 AccDes= 0.00D+00
 Harris functional with IExCor= 1009 and IRadAn=       4 diagonalized for initial guess.
 HarFok:  IExCor= 1009 AccDes= 0.00D+00 IRadAn=         4 IDoV= 1 UseB2=F ITyADJ=14
 ICtDFT=  3500011 ScaDFX=  1.000000  1.000000  1.000000  1.000000
 FoFCou: FMM=F IPFlag=           0 FMFlag=      100000 FMFlg1=           0
         NFxFlg=           0 DoJE=T BraDBF=F KetDBF=T FulRan=T
         wScrn=  0.000000 ICntrl=       500 IOpCl=  0 I1Cent=   200000004 NGrid=           0
         NMat0=    1 NMatS0=      1 NMatT0=    0 NMatD0=    1 NMtDS0=    0 NMtDT0=    0
 Petite list used in FoFCou.
 Requested convergence on RMS density matrix=1.00D-08 within 128 cycles.
 Requested convergence on MAX density matrix=1.00D-06.
 Requested convergence on             energy=1.00D-06.
 No special actions if energy rises.
 Inv3:  Mode=1 IEnd=     6255408.
 Iteration    1 A*A^-1 deviation from unit magnitude is 3.11D-15 for    216.
 Iteration    1 A*A^-1 deviation from orthogonality  is 2.00D-15 for   1415    403.
 Iteration    1 A^-1*A deviation from unit magnitude is 2.66D-15 for    216.
 Iteration    1 A^-1*A deviation from orthogonality  is 1.09D-14 for    951    851.
 Error on total polarization charges =  0.04631
 SCF Done:  E(RM062X) =  -583.508989517     A.U. after   11 cycles
            NFock= 11  Conv=0.54D-08     -V/T= 2.0084
 SMD-CDS (non-electrostatic) energy       (kcal/mol) =       7.80
 (included in total energy above)
 D1PCM: PCM CHGder 1st derivatives, ID1Alg=3 FixD1E=F DoIter=F DoCFld=F I1PDM=0.
 Calling FoFJK, ICntrl=      2127 FMM=F ISym2X=0 I1Cent= 0 IOpClX= 0 NMat=1 NMatS=1 NMatT=0.
 ***** Axes restored to original set *****
 -------------------------------------------------------------------
 Center     Atomic                   Forces (Hartrees/Bohr)
 Number     Number              X              Y              Z
 -------------------------------------------------------------------
      1        7           0.000337231   -0.000910903    0.000828836
      2        7           0.000613398    0.001150727   -0.000575233
      3        6           0.000579339    0.000401670    0.000097213
      4        6          -0.000208762    0.000738002    0.000380928
      5        7          -0.001629337   -0.001019012   -0.000445845
      6        1           0.000064295    0.000106617   -0.000000421
      7        1           0.000090227    0.000016474    0.000016900
      8        1          -0.000830932   -0.001585046    0.000586676
      9        6           0.003662564   -0.001808118    0.000930271
     10        8          -0.001905132    0.001411443   -0.000516341
     11        8          -0.002170286    0.000515514   -0.000393980
     12        8          -0.002597765    0.001221102    0.001507489
     13        1           0.001988068    0.000008574   -0.001218630
     14        1           0.000068999   -0.000166138   -0.000538792
     15        8           0.000534460    0.001909195   -0.002120668
     16        1           0.001508730   -0.001715864    0.000897897
     17        1          -0.000105097   -0.000274235    0.000563699
 -------------------------------------------------------------------
 Cartesian Forces:  Max     0.003662564 RMS     0.001188704

 GradGradGradGradGradGradGradGradGradGradGradGradGradGradGradGradGradGrad
 Berny optimization.
 Using GEDIIS/GDIIS optimizer.
 FormGI is forming the generalized inverse of G from B-inverse, IUseBI=4.
 Internal  Forces:  Max     0.005135690 RMS     0.000788298
 Search for a local minimum.
 Step number   2 out of a maximum of   89
 All quantities printed in internal units (Hartrees-Bohrs-Radians)
 Mixed Optimization -- En-DIIS/RFO-DIIS
 Update second derivatives using D2CorX and points    1    2
 DE= -2.57D-04 DEPred=-2.75D-04 R= 9.35D-01
 TightC=F SS=  1.41D+00  RLast= 1.02D-01 DXNew= 5.0454D-01 3.0522D-01
 Trust test= 9.35D-01 RLast= 1.02D-01 DXMaxT set to 3.05D-01
 ITU=  1  0
 Use linear search instead of GDIIS.
     Eigenvalues ---    0.00230   0.00384   0.00679   0.00714   0.00894
     Eigenvalues ---    0.01382   0.01811   0.02010   0.02132   0.02338
     Eigenvalues ---    0.02383   0.02410   0.02971   0.04046   0.04600
     Eigenvalues ---    0.04794   0.06557   0.06776   0.10428   0.10820
     Eigenvalues ---    0.12506   0.14605   0.15993   0.16000   0.16851
     Eigenvalues ---    0.19802   0.20066   0.21824   0.22532   0.24028
     Eigenvalues ---    0.24675   0.36236   0.36304   0.42143   0.44016
     Eigenvalues ---    0.48217   0.49268   0.51281   0.53579   0.55147
     Eigenvalues ---    0.56068   0.56609   0.63715   1.23112   1.26593
 RFO step:  Lambda=-6.73437570D-04 EMin= 2.30090830D-03
 Quartic linear search produced a step of -0.04962.
 Iteration  1 RMS(Cart)=  0.04241630 RMS(Int)=  0.00070359
 Iteration  2 RMS(Cart)=  0.00078292 RMS(Int)=  0.00013389
 Iteration  3 RMS(Cart)=  0.00000050 RMS(Int)=  0.00013389
 Variable       Old X    -DE/DX   Delta X   Delta X   Delta X     New X
                                 (Linear)    (Quad)   (Total)
    R1        2.51011   0.00002  -0.00004   0.00098   0.00093   2.51104
    R2        2.45981   0.00124  -0.00038   0.01153   0.01115   2.47096
    R3        3.73679   0.00045  -0.00135   0.04370   0.04233   3.77912
    R4        2.54373  -0.00070   0.00012  -0.00438  -0.00426   2.53947
    R5        1.94958  -0.00057  -0.00015   0.00244   0.00233   1.95191
    R6        2.60219   0.00052   0.00010  -0.00165  -0.00155   2.60065
    R7        2.03826  -0.00003  -0.00008   0.00198   0.00190   2.04017
    R8        2.56861  -0.00045  -0.00017   0.00371   0.00355   2.57215
    R9        2.03895  -0.00007  -0.00008   0.00179   0.00172   2.04066
   R10        3.43942   0.00096  -0.00112   0.04310   0.04201   3.48143
   R11        2.19805   0.00038  -0.00016   0.00450   0.00434   2.20239
   R12        2.19980  -0.00095   0.00013  -0.00418  -0.00405   2.19575
   R13        4.63827   0.00040  -0.00067   0.03339   0.03272   4.67099
   R14        1.84730  -0.00052  -0.00009   0.00152   0.00140   1.84870
   R15        1.82462   0.00014  -0.00037   0.00983   0.00946   1.83408
   R16        3.40052   0.00146  -0.00160   0.06289   0.06128   3.46180
   R17        1.85353  -0.00085   0.00006  -0.00310  -0.00304   1.85050
   R18        1.82389   0.00022  -0.00035   0.00937   0.00902   1.83291
    A1        1.88431   0.00052   0.00030  -0.00538  -0.00505   1.87926
    A2        2.07760  -0.00098   0.00024  -0.01103  -0.01088   2.06672
    A3        2.31935   0.00046  -0.00056   0.01650   0.01601   2.33536
    A4        1.94047  -0.00028  -0.00026   0.00538   0.00512   1.94558
    A5        2.04721   0.00091  -0.00030   0.01355   0.01319   2.06040
    A6        2.29529  -0.00063   0.00056  -0.01877  -0.01818   2.27711
    A7        1.81558   0.00022  -0.00001   0.00071   0.00069   1.81627
    A8        2.14435  -0.00023   0.00004  -0.00189  -0.00185   2.14250
    A9        2.32325   0.00001  -0.00003   0.00119   0.00116   2.32442
   A10        1.88799   0.00041   0.00002   0.00085   0.00088   1.88887
   A11        2.26531  -0.00027   0.00021  -0.00641  -0.00620   2.25911
   A12        2.12989  -0.00015  -0.00023   0.00555   0.00532   2.13521
   A13        1.89642  -0.00087  -0.00005  -0.00156  -0.00162   1.89479
   A14        2.65629   0.00002  -0.00006   0.00254   0.00242   2.65871
   A15        2.36475   0.00179  -0.00006   0.01194   0.01188   2.37664
   A16        1.85379   0.00009   0.00029  -0.01092  -0.01069   1.84310
   A17        1.72014  -0.00018   0.00016  -0.00612  -0.00625   1.71389
   A18        2.30916  -0.00029   0.00031  -0.01366  -0.01360   2.29556
   A19        1.45921   0.00089  -0.00031   0.01145   0.01097   1.47018
   A20        2.61787   0.00057  -0.00019   0.00882   0.00830   2.62618
   A21        2.18666  -0.00142   0.00029  -0.01261  -0.01256   2.17411
   A22        1.79023  -0.00073   0.00025  -0.01233  -0.01239   1.77784
   A23        2.19481  -0.00049   0.00043  -0.01870  -0.01853   2.17628
   A24        1.85414   0.00021   0.00045  -0.01471  -0.01460   1.83954
   A25        2.77759   0.00043  -0.00022   0.00857   0.00832   2.78591
   A26        3.16121   0.00514   0.00207   0.04571   0.04778   3.20899
   A27        3.14431  -0.00117  -0.00048  -0.01018  -0.01066   3.13365
    D1        0.00419  -0.00022  -0.00022  -0.00243  -0.00266   0.00153
    D2        3.12604  -0.00020  -0.00033   0.00473   0.00453   3.13057
    D3       -3.07914  -0.00017   0.00008  -0.00454  -0.00453  -3.08368
    D4        0.04271  -0.00014  -0.00003   0.00263   0.00266   0.04537
    D5       -0.00364   0.00026   0.00026   0.00249   0.00276  -0.00088
    D6        3.06841   0.00012  -0.00004   0.00352   0.00356   3.07197
    D7        2.92274  -0.00019   0.00002  -0.00378  -0.00346   2.91928
    D8        0.03367  -0.00022   0.00125  -0.05052  -0.04937  -0.01569
    D9       -0.14318  -0.00009   0.00035  -0.00523  -0.00466  -0.14784
   D10       -3.03225  -0.00013   0.00158  -0.05197  -0.05056  -3.08281
   D11       -0.00292   0.00010   0.00008   0.00132   0.00143  -0.00149
   D12        3.13768   0.00006   0.00001   0.00280   0.00281   3.14049
   D13       -3.12108   0.00004   0.00023  -0.00773  -0.00744  -3.12853
   D14        0.01951   0.00001   0.00016  -0.00626  -0.00606   0.01345
   D15       -0.15903  -0.00011   0.00033  -0.01369  -0.01346  -0.17249
   D16        2.95798  -0.00007   0.00018  -0.00431  -0.00423   2.95375
   D17        0.00064   0.00006   0.00008   0.00020   0.00027   0.00091
   D18       -3.14015  -0.00005  -0.00007   0.00014   0.00006  -3.14009
   D19       -3.13981   0.00010   0.00016  -0.00150  -0.00132  -3.14113
   D20        0.00258  -0.00002   0.00002  -0.00156  -0.00153   0.00106
   D21        0.00186  -0.00020  -0.00021  -0.00168  -0.00189  -0.00003
   D22       -3.14046  -0.00010  -0.00008  -0.00163  -0.00171   3.14102
   D23        0.07357   0.00044  -0.00087   0.03413   0.03288   0.10645
   D24        2.18366  -0.00032   0.00033  -0.01157  -0.01102   2.17263
   D25        0.20351  -0.00008   0.00049   0.00819   0.00888   0.21239
   D26       -3.09176   0.00025  -0.00034   0.03999   0.03945  -3.05231
   D27        2.43183  -0.00006  -0.00067   0.02547   0.02487   2.45670
   D28       -0.40068  -0.00039   0.00091  -0.03480  -0.03372  -0.43440
   D29        0.00904   0.00035  -0.00130   0.05151   0.05023   0.05927
   D30       -2.82348   0.00002   0.00027  -0.00877  -0.00836  -2.83184
   D31       -0.30410   0.00008  -0.00042   0.01828   0.01816  -0.28595
   D32       -2.42027   0.00037  -0.00129   0.05207   0.05082  -2.36945
   D33        0.29356  -0.00045   0.00121  -0.04899  -0.04744   0.24612
   D34       -2.03658   0.00046   0.00026  -0.01050  -0.01035  -2.04693
         Item               Value     Threshold  Converged?
 Maximum Force            0.005136     0.000450     NO 
 RMS     Force            0.000788     0.000300     NO 
 Maximum Displacement     0.197130     0.001800     NO 
 RMS     Displacement     0.042625     0.001200     NO 
 Predicted change in Energy=-3.479332D-04
 GradGradGradGradGradGradGradGradGradGradGradGradGradGradGradGradGradGrad

                          Input orientation:                          
 ---------------------------------------------------------------------
 Center     Atomic      Atomic             Coordinates (Angstroms)
 Number     Number       Type             X           Y           Z
 ---------------------------------------------------------------------
      1          7           0        0.347266   -0.327921    0.131823
      2          7           0        1.450118   -1.056633   -0.003702
      3          6           0        1.166338   -2.367434   -0.088231
      4          6           0       -0.205654   -2.419349    0.005990
      5          7           0       -0.671559   -1.147483    0.139978
      6          1           0        1.928103   -3.123804   -0.203014
      7          1           0       -0.862696   -3.276094   -0.014185
      8          1           0        2.356914   -0.563352   -0.039579
      9          6           0       -2.774535    0.838764   -0.058785
     10          8           0       -3.672153    0.097190   -0.007480
     11          8           0       -1.931820    1.636443   -0.119185
     12          8           0        1.075118    2.470412    0.151984
     13          1           0        0.522137    1.663755    0.175873
     14          1           0        0.577738    3.112204   -0.379703
     15          8           0        3.379771    0.964126   -0.160502
     16          1           0        2.698454    1.666336   -0.120265
     17          1           0        4.058187    1.226453    0.481145
 ---------------------------------------------------------------------
                    Distance matrix (angstroms):
                    1          2          3          4          5
     1  N    0.000000
     2  N    1.328785   0.000000
     3  C    2.208827   1.343829   0.000000
     4  C    2.166939   2.144451   1.376203   0.000000
     5  N    1.307575   2.128476   2.217707   1.361125   0.000000
     6  H    3.229260   2.131054   1.079609   2.256736   3.283554
     7  H    3.190149   3.205499   2.224438   1.079872   2.142728
     8  H    2.030637   1.032904   2.162071   3.164420   3.089514
     9  C    3.338132   4.630687   5.080458   4.149536   2.899516
    10  O    4.044237   5.250618   5.430644   4.283663   3.251849
    11  O    3.019266   4.324755   5.062665   4.409622   3.066867
    12  O    2.891512   3.550339   4.844665   5.056822   4.017485
    13  H    1.999824   2.879915   4.090872   4.150937   3.054384
    14  H    3.485576   4.275702   5.518863   5.600048   4.469424
    15  O    3.309218   2.798502   4.000475   4.932635   4.578477
    16  H    3.093330   2.997747   4.315056   5.014240   4.397987
    17  H    4.038445   3.499940   4.647903   5.630096   5.303061
                    6          7          8          9         10
     6  H    0.000000
     7  H    2.801323   0.000000
     8  H    2.601250   4.210166   0.000000
     9  C    6.151223   4.537529   5.319592   0.000000
    10  O    6.463428   4.390004   6.065228   1.165453   0.000000
    11  O    6.129110   5.028625   4.820651   1.161942   2.326055
    12  O    5.669996   6.066718   3.299002   4.186469   5.309820
    13  H    5.004100   5.133809   2.893584   3.406424   4.481051
    14  H    6.382985   6.558872   4.097665   4.063158   5.224024
    15  O    4.338239   5.999950   1.842294   6.156423   7.106661
    16  H    4.852394   6.092672   2.257137   5.535545   6.561979
    17  H    4.891837   6.688301   2.523665   6.864977   7.827652
                   11         12         13         14         15
    11  O    0.000000
    12  O    3.132206   0.000000
    13  H    2.471783   0.978291   0.000000
    14  H    2.922947   0.970554   1.552340   0.000000
    15  O    5.354131   2.770915   2.961199   3.537468   0.000000
    16  H    4.630371   1.831905   2.196374   2.579783   0.979240
    17  H    6.033960   3.248766   3.576041   4.051005   0.969935
                   16         17
    16  H    0.000000
    17  H    1.550505   0.000000
 Stoichiometry    C3H7N3O4
 Framework group  C1[X(C3H7N3O4)]
 Deg. of freedom    45
 Full point group                 C1      NOp   1
 Largest Abelian subgroup         C1      NOp   1
 Largest concise Abelian subgroup C1      NOp   1
                         Standard orientation:                         
 ---------------------------------------------------------------------
 Center     Atomic      Atomic             Coordinates (Angstroms)
 Number     Number       Type             X           Y           Z
 ---------------------------------------------------------------------
      1          7           0       -0.375055    0.318205    0.133519
      2          7           0       -1.512250    0.991959   -0.002543
      3          6           0       -1.292984    2.315032   -0.087841
      4          6           0        0.074808    2.434122    0.006468
      5          7           0        0.602417    1.186676    0.141266
      6          1           0       -2.090859    3.033125   -0.203149
      7          1           0        0.689114    3.321999   -0.014170
      8          1           0       -2.393799    0.454846   -0.038200
      9          6           0        2.800152   -0.694334   -0.056110
     10          8           0        3.660375    0.090334   -0.005177
     11          8           0        1.997514   -1.532356   -0.116100
     12          8           0       -0.965013   -2.512399    0.155313
     13          1           0       -0.452197   -1.679619    0.178762
     14          1           0       -0.436742   -3.129386   -0.375941
     15          8           0       -3.340622   -1.120957   -0.158285
     16          1           0       -2.625742   -1.788939   -0.117564
     17          1           0       -4.005453   -1.415803    0.483462
 ---------------------------------------------------------------------
 Rotational constants (GHZ):           1.3464266           0.7651823           0.4899169
 Standard basis: 6-31+G(d,p) (6D, 7F)
 There are   225 symmetry adapted cartesian basis functions of A   symmetry.
 There are   225 symmetry adapted basis functions of A   symmetry.
   225 basis functions,   369 primitive gaussians,   225 cartesian basis functions
    39 alpha electrons       39 beta electrons
       nuclear repulsion energy       513.8520594655 Hartrees.
 NAtoms=   17 NActive=   17 NUniq=   17 SFac= 1.00D+00 NAtFMM=   60 NAOKFM=F Big=F
 Integral buffers will be    131072 words long.
 Raffenetti 2 integral format.
 Two-electron integral symmetry is turned on.
 ------------------------------------------------------------------------------
 Polarizable Continuum Model (PCM)
 =================================
 Model                : PCM.
 Atomic radii         : SMD-Coulomb.
 Polarization charges : Total charges.
 Charge compensation  : None.
 Solution method      : On-the-fly selection.
 Cavity type          : VdW (van der Waals Surface) (Alpha=1.000).
 Cavity algorithm     : GePol (No added spheres)
                        Default sphere list used, NSphG=   17.
                        Lebedev-Laikov grids with approx.  5.0 points / Ang**2.
                        Smoothing algorithm: York/Karplus (Gamma=1.0000).
                        Polarization charges: spherical gaussians, with
                                              point-specific exponents (IZeta= 3).
                        Self-potential: point-specific (ISelfS= 7).
                        Self-field    : sphere-specific E.n sum rule (ISelfD= 2).
 1st derivatives      : Analytical E(r).r(x)/FMM algorithm (CHGder, D1EAlg=3).
                        Cavity 1st derivative terms included.
 Solvent              : Water, Eps=  78.355300 Eps(inf)=   1.777849
 ------------------------------------------------------------------------------
 Spheres list:
 ISph  on   Nord     Re0    Alpha      Xe            Ye            Ze
    1   N      1    1.8900  1.000     -0.375055      0.318205      0.133519
    2   N      2    1.8900  1.000     -1.512250      0.991959     -0.002543
    3   C      3    1.8500  1.000     -1.292984      2.315032     -0.087841
    4   C      4    1.8500  1.000      0.074808      2.434122      0.006468
    5   N      5    1.8900  1.000      0.602417      1.186676      0.141266
    6   H      6    1.2000  1.000     -2.090859      3.033125     -0.203149
    7   H      7    1.2000  1.000      0.689114      3.321999     -0.014170
    8   H      8    1.2000  1.000     -2.393799      0.454846     -0.038200
    9   C      9    1.8500  1.000      2.800152     -0.694334     -0.056110
   10   O     10    1.5200  1.000      3.660375      0.090334     -0.005177
   11   O     11    1.5200  1.000      1.997514     -1.532356     -0.116100
   12   O     12    1.5200  1.000     -0.965013     -2.512399      0.155313
   13   H     13    1.2000  1.000     -0.452197     -1.679619      0.178762
   14   H     14    1.2000  1.000     -0.436742     -3.129386     -0.375941
   15   O     15    1.5200  1.000     -3.340622     -1.120957     -0.158285
   16   H     16    1.2000  1.000     -2.625742     -1.788939     -0.117564
   17   H     17    1.2000  1.000     -4.005453     -1.415803      0.483462
 ------------------------------------------------------------------------------
 ------------------------------------------------------------------------------
 Atomic radii for non-electrostatic terms: SMD-CDS.
 ------------------------------------------------------------------------------
 Nuclear repulsion after PCM non-electrostatic terms =      513.8644783321 Hartrees.
 One-electron integrals computed using PRISM.
 NBasis=   225 RedAO= T EigKep=  3.79D-05  NBF=   225
 NBsUse=   225 1.00D-06 EigRej= -1.00D+00 NBFU=   225
 Initial guess from the checkpoint file:  "/scratch/gongke2021/RC-2-N-test/Gau-31509.chk"
 B after Tr=     0.000000    0.000000   -0.000000
         Rot=    0.999844    0.000458   -0.000053   -0.017663 Ang=   2.02 deg.
 ExpMin= 4.38D-02 ExpMax= 5.48D+03 ExpMxC= 8.25D+02 IAcc=2 IRadAn=         4 AccDes= 0.00D+00
 Harris functional with IExCor= 1009 and IRadAn=       4 diagonalized for initial guess.
 HarFok:  IExCor= 1009 AccDes= 0.00D+00 IRadAn=         4 IDoV= 1 UseB2=F ITyADJ=14
 ICtDFT=  3500011 ScaDFX=  1.000000  1.000000  1.000000  1.000000
 FoFCou: FMM=F IPFlag=           0 FMFlag=      100000 FMFlg1=           0
         NFxFlg=           0 DoJE=T BraDBF=F KetDBF=T FulRan=T
         wScrn=  0.000000 ICntrl=       500 IOpCl=  0 I1Cent=   200000004 NGrid=           0
         NMat0=    1 NMatS0=      1 NMatT0=    0 NMatD0=    1 NMtDS0=    0 NMtDT0=    0
 Petite list used in FoFCou.
 Requested convergence on RMS density matrix=1.00D-08 within 128 cycles.
 Requested convergence on MAX density matrix=1.00D-06.
 Requested convergence on             energy=1.00D-06.
 No special actions if energy rises.
 Inv3:  Mode=1 IEnd=     6482700.
 Iteration    1 A*A^-1 deviation from unit magnitude is 2.66D-15 for     36.
 Iteration    1 A*A^-1 deviation from orthogonality  is 1.59D-15 for    922    616.
 Iteration    1 A^-1*A deviation from unit magnitude is 2.89D-15 for    613.
 Iteration    1 A^-1*A deviation from orthogonality  is 4.88D-14 for    959    858.
 Error on total polarization charges =  0.04653
 SCF Done:  E(RM062X) =  -583.508983033     A.U. after   11 cycles
            NFock= 11  Conv=0.69D-08     -V/T= 2.0085
 SMD-CDS (non-electrostatic) energy       (kcal/mol) =       7.79
 (included in total energy above)
 D1PCM: PCM CHGder 1st derivatives, ID1Alg=3 FixD1E=F DoIter=F DoCFld=F I1PDM=0.
 Calling FoFJK, ICntrl=      2127 FMM=F ISym2X=0 I1Cent= 0 IOpClX= 0 NMat=1 NMatS=1 NMatT=0.
 ***** Axes restored to original set *****
 -------------------------------------------------------------------
 Center     Atomic                   Forces (Hartrees/Bohr)
 Number     Number              X              Y              Z
 -------------------------------------------------------------------
      1        7          -0.002725143   -0.004901738    0.000113444
      2        7           0.003529494    0.003349340   -0.000173729
      3        6           0.000925879   -0.001113501    0.000019467
      4        6          -0.001832428    0.001699734    0.000382202
      5        7           0.001633234    0.000969493   -0.000441745
      6        1          -0.000552580    0.000522805    0.000034230
      7        1          -0.000072789    0.001042537    0.000064807
      8        1          -0.002830850   -0.000752682    0.000533560
      9        6          -0.006948975   -0.000699307   -0.000446155
     10        8           0.004452136   -0.000071417    0.000285512
     11        8           0.003762685    0.000063275    0.000287050
     12        8          -0.005642071    0.002539446   -0.001713965
     13        1           0.002697654    0.000634856   -0.000660080
     14        1           0.002852555   -0.003068621    0.002232883
     15        8           0.003368165    0.003325788    0.001924784
     16        1           0.000144410   -0.001386952    0.000171961
     17        1          -0.002761375   -0.002153057   -0.002614228
 -------------------------------------------------------------------
 Cartesian Forces:  Max     0.006948975 RMS     0.002343907

 GradGradGradGradGradGradGradGradGradGradGradGradGradGradGradGradGradGrad
 Berny optimization.
 Using GEDIIS/GDIIS optimizer.
 FormGI is forming the generalized inverse of G from B-inverse, IUseBI=4.
 Internal  Forces:  Max     0.006372372 RMS     0.001635702
 Search for a local minimum.
 Step number   3 out of a maximum of   89
 All quantities printed in internal units (Hartrees-Bohrs-Radians)
 Mixed Optimization -- RFO/linear search
 Update second derivatives using D2CorX and points    1    3    2
 DE=  6.48D-06 DEPred=-3.48D-04 R=-1.86D-02
 Trust test=-1.86D-02 RLast= 1.78D-01 DXMaxT set to 1.53D-01
[...]
   yx        -0.279212D+02     -0.413750D+01     -0.460359D+01
   yy         0.101629D+03      0.150598D+02      0.167563D+02
   zx         0.228802D+01      0.339049D+00      0.377243D+00
   zy        -0.696181D+00     -0.103163D+00     -0.114785D+00
   zz         0.101572D+03      0.150514D+02      0.167469D+02

 ----------------------------------------------------------------------
 1\1\GINC-NODE5\Freq\RM062X\6-31+G(d,p)\C3H7N3O4\GONGKE2021\06-Jul-2023
 \0\\#N Geom=AllCheck Guess=TCheck SCRF=Check GenChk RM062X/6-31+G(d,p)
  Freq\\test\\0,1\N,0.3366054302,-0.2833347708,0.1116036748\N,1.4361125
 444,-1.0126887596,-0.0363525531\C,1.1446013431,-2.3247056817,-0.096660
 118\C,-0.2270004993,-2.3671897733,0.024993671\N,-0.6829953898,-1.09382
 44999,0.1500608933\H,1.8988075597,-3.0863265638,-0.2166800409\H,-0.892
 460308,-3.2164036951,0.0290174297\H,2.3375247778,-0.5182867178,-0.0927
 830817\C,-2.7756957974,0.7623809445,-0.0277491149\O,-3.6127058947,-0.0
 39060628,-0.1341864469\O,-1.9757386358,1.6008402042,0.0745908236\O,1.0
 501102686,2.5001077565,0.2006057005\H,0.5795519058,1.6433750541,0.1604
 595853\H,0.7098778932,3.0173403178,-0.5410575963\O,3.3994159519,1.0147
 844796,-0.1991331772\H,2.7022253832,1.6862946205,-0.0547739311\H,4.013
 4894671,1.1103087128,0.5402062819\\Version=ES64L-G16RevA.03\State=1-A\
 HF=-583.5098854\RMSD=2.015e-09\RMSF=1.441e-05\ZeroPoint=0.1217515\Ther
 mal=0.1355544\Dipole=1.4322718,-1.0140815,-0.1820947\DipoleDeriv=0.416
 4773,-0.158744,-0.0664597,-0.0011525,-0.9934869,-0.0514945,-0.0525646,
 -0.0304063,-0.1731743,-1.0390728,-0.4619932,0.0475589,-0.3873689,0.018
 8614,0.0512575,0.0521682,0.0533222,-0.1642064,0.2475477,-0.0797806,-0.
 0340137,0.3065879,-0.0744615,-0.0241797,-0.0073516,0.0036571,-0.065808
 9,0.0266259,0.2889136,-0.0010355,0.0447212,-0.0905078,0.0007533,-0.013
 2044,-0.0218837,-0.1457622,-0.5983463,0.1712963,0.0308024,-0.1318905,0
 .0762688,0.0524616,0.0032974,0.0304739,-0.3240514,0.144725,0.0222455,0
 .0111214,0.0004363,0.1626582,-0.0061953,0.0106077,-0.0082425,0.2560712
 ,0.1143376,-0.0519366,0.0075236,-0.029171,0.0889461,-0.0068861,0.00831
 96,-0.0052774,0.2352682,0.7932465,0.3987244,-0.0124543,0.4050365,0.647
 6768,-0.0222826,-0.0135564,-0.0249986,0.4082814,2.4038289,1.3246715,0.
 193109,1.3481801,2.3115004,0.1831785,0.2094207,0.1740677,0.7309182,-1.
 2560463,-0.6896095,-0.1005043,-0.72603,-1.084735,-0.0937253,-0.1099432
 ,-0.0888501,-0.3743719,-1.1248471,-0.6908957,-0.0829444,-0.6887703,-1.
 2105936,-0.0943192,-0.0954392,-0.0903039,-0.3721453,-0.9953111,0.00863
 51,0.1326568,0.0652446,-1.2321209,-0.0202304,0.128883,-0.0078574,-0.75
 44018,0.4365142,0.1418865,-0.0445185,0.1027783,1.0740751,0.0135977,-0.
 0570744,-0.0124711,0.38343,0.3868149,0.0043786,-0.0745913,-0.0208107,0
 .4222546,0.0002922,-0.0544157,0.0132219,0.3620269,-1.1691054,-0.050535
 4,0.0570023,-0.0784602,-1.0611655,0.106376,0.060993,0.0941675,-0.74671
 76,0.7834635,-0.1944453,-0.0398385,-0.1930072,0.5413372,-0.0285886,-0.
 0332213,-0.0376193,0.3918237,0.4291476,0.0171887,-0.023414,-0.0163235,
 0.4034923,-0.0600152,-0.0369189,-0.0410001,0.3528201\Polar=110.6129663
 ,10.7941488,113.7664282,-0.7763592,2.8872975,65.2663258\Quadrupole=-0.
 8713487,4.7955591,-3.9242104,-5.8091318,4.1730759,-2.2743099\PG=C01 [X
 (C3H7N3O4)]\NImag=0\\0.53736297,0.04410266,0.63780126,-0.03467345,0.02
 857202,0.13092291,-0.22118256,0.06544262,0.01754339,0.88933813,0.12253
 617,-0.19734368,-0.01867020,0.18217505,0.76635596,0.02177385,-0.013727
 01,-0.07977617,-0.06125509,0.02458140,0.12716551,-0.02684439,-0.001356
 06,0.00418317,-0.14281628,-0.04399329,0.00456567,0.80030039,0.06273341
 ,-0.10111803,-0.01379289,-0.06261795,-0.35049677,-0.01286968,-0.165069
 61,0.76788661,0.00834249,-0.00797950,0.01970967,0.00320283,-0.01497868
 ,-0.06665528,-0.07232805,0.05757939,0.14279591,-0.00011458,0.00605533,
 0.00253504,-0.04790813,-0.11174683,-0.00222145,-0.38127424,0.00667081,
 0.02851351,0.76504157,-0.07401776,-0.11646775,-0.00240624,-0.01351177,
 -0.01289183,-0.00016773,-0.03383673,-0.11826451,-0.00011896,0.18494408
 ,0.76390029,-0.00273890,-0.00986522,0.02242668,0.00437450,0.00858503,0
 .01130986,0.02567584,-0.00371321,-0.07422386,-0.04436194,0.02438252,0.
 14310003,-0.25948219,-0.09807849,0.00837514,-0.15717841,0.00424303,0.0
 1686793,-0.03261971,0.01473664,0.00571273,-0.15263559,0.07454318,0.011
 88112,0.59752888,-0.16900878,-0.21549543,0.00798290,-0.04453124,-0.029
 41662,-0.00004392,0.10783447,0.00315304,-0.01074865,0.07110776,-0.2754
 8043,-0.01960267,0.01535775,0.53794247,0.00367165,0.00135721,-0.096854
 41,0.01362122,-0.00408518,0.02480062,0.01179457,-0.00234535,0.01771787
 ,0.01155919,-0.01998198,-0.07681186,-0.04112359,0.02550839,0.12466118,
 -0.00101036,-0.00546866,0.00042089,0.01462421,-0.01112548,-0.00235565,
 -0.21975835,0.16379000,0.02868932,-0.00142656,0.01768833,0.00137621,-0
 .00506403,0.00217501,0.00119522,0.21265978,-0.00303664,-0.00379836,-0.
 00046839,0.02471301,-0.01572894,-0.00310408,0.15296356,-0.21177596,-0.
 02650000,-0.00332346,0.01040044,0.00097894,-0.00411082,0.00157253,0.00
 001915,-0.16740303,0.21910230,0.00056154,-0.00020090,0.00725195,0.0000
 0073,0.00015284,-0.00296517,0.02806148,-0.02747890,-0.03527614,-0.0000
 8472,-0.00092635,0.00041275,0.00076146,-0.00054268,0.00648649,-0.02896
 519,0.02879082,0.02815342,0.00082311,0.00540387,0.00104039,-0.00621810
 ,-0.00026277,0.00109107,-0.00404138,-0.02038460,-0.00100507,-0.1850365
 9,-0.15820273,0.00344423,0.01387827,0.01155082,-0.00113341,0.00016012,
 0.00047024,-0.00017637,0.17948462,0.00171036,-0.00495862,-0.00102158,0
 .00355371,0.00048438,-0.00067745,0.00447021,0.00830763,0.00016286,-0.1
 5240437,-0.24684080,-0.00041054,-0.01903959,-0.01650836,0.00107159,-0.
 00049931,-0.00039530,0.00016070,0.16251436,0.25913291,0.00080344,-0.00
 134757,0.00826004,0.00131268,-0.00032377,0.00574505,0.00063420,0.00241
 173,-0.00013436,0.00382463,0.00014900,-0.03103377,-0.00311831,-0.00170
 977,-0.00686742,-0.00024865,0.00007478,-0.00212632,-0.00324092,0.00071
 216,0.02483021,-0.02313569,-0.01324198,0.00034983,-0.32351297,-0.13144
 579,0.02108103,0.00917232,-0.00243038,-0.00155939,0.00465872,0.0027577
 5,0.00023226,0.00307374,0.00747209,0.00102121,-0.00032479,-0.00040678,
 -0.00019882,0.00109452,-0.00038533,0.00002084,0.32828182,0.01633242,0.
 02154745,0.00039713,-0.14402791,-0.14728569,0.00561710,-0.01992149,-0.
 00203191,0.00212838,0.00099796,-0.00625660,-0.00080354,0.01300117,0.00
 084030,-0.00157733,0.00067307,0.00051137,0.00009365,-0.00064541,0.0005
 8299,0.00000167,0.12739096,0.12787328,0.00201298,0.00316963,-0.0096938
 1,0.02080590,0.00463285,-0.02206707,-0.00283611,0.00033370,-0.00449306
 ,0.00011503,-0.00106585,0.00446327,0.00119004,-0.00106211,0.00790246,-
 0.00011693,0.00021525,-0.00202055,-0.00003340,-0.00001403,0.00134824,-
 0.02067648,-0.00616779,0.02889424,-0.00165039,0.00057595,0.00043149,0.
 00187331,-0.00151055,-0.00026667,0.00108555,-0.00150645,-0.00035754,0.
 00253038,0.00125503,0.00006537,-0.00367036,-0.00250677,0.00028196,0.00
 016593,0.00005746,-0.00006812,0.00004834,-0.00007176,0.00003046,-0.000
 58270,-0.00052015,0.00002506,0.99234555,0.00203611,0.00075744,-0.00016
 624,-0.00336555,0.00001635,0.00065148,-0.00037221,-0.00033810,0.000117
 51,-0.00071607,-0.00140867,-0.00005550,-0.00043973,-0.00014632,-0.0011
 0386,-0.00014393,-0.00015174,-0.00001384,-0.00001071,-0.00005432,-0.00
 003520,0.00010565,0.00038450,0.00006485,0.86231914,0.99522677,0.000053
 00,0.00004954,-0.00024964,0.00015332,-0.00013240,0.00014338,0.00012233
 ,-0.00021215,0.00009831,0.00035593,0.00011998,-0.00013644,-0.00036745,
 -0.00044100,-0.00151546,0.00002483,0.00000446,0.00001814,0.00000155,-0
 .00000148,-0.00003334,-0.00005109,-0.00005369,0.00004046,0.10794992,0.
 10986391,0.16071818,-0.00085046,0.00025340,-0.00021452,-0.00152367,0.0
 0065107,0.00029812,-0.00054009,0.00055365,0.00018081,-0.00115683,-0.00
 060686,0.00001856,-0.00187818,0.00093459,-0.00098282,-0.00007209,-0.00
 003485,0.00002423,0.00002519,0.00008308,-0.00002372,0.00026319,0.00033
 228,0.00001630,-0.50931407,-0.42744176,-0.05563724,0.56241838,-0.00046
 739,-0.00054796,0.00001471,0.00108995,0.00027569,-0.00022106,0.0000413
 9,0.00029625,-0.00000321,-0.00017616,0.00033993,-0.00002142,0.00324177
 ,-0.00004808,0.00074421,0.00003644,0.00004276,0.00000912,-0.00006540,-
 0.00003003,0.00001265,0.00004056,-0.00009579,-0.00003812,-0.42784659,-
 0.48085281,-0.05430917,0.50522373,0.52910457,-0.00020098,0.00003530,0.
 00015327,-0.00014186,0.00006044,-0.00006565,-0.00006176,0.00009717,-0.
 00002401,-0.00016781,-0.00005324,-0.00000871,-0.00019715,0.00009442,0.
 00062793,-0.00000916,-0.00000237,0.00000118,0.00000019,0.00000672,0.00
 001029,0.00002533,0.00003783,-0.00002053,-0.05566579,-0.05430334,-0.07
 964925,0.06694940,0.06422921,0.04447715,-0.00186234,0.00084088,-0.0000
 7493,0.00042553,0.00094530,-0.00018271,-0.00055118,0.00100042,0.000141
 17,-0.00098392,-0.00026819,-0.00006071,-0.00042834,0.00236132,0.000197
 24,-0.00003118,0.00005446,0.00007133,0.00000064,0.00005577,-0.00000301
 ,0.00028600,0.00013949,-0.00002670,-0.48126096,-0.43004165,-0.05235846
 ,-0.04800426,-0.08192144,-0.01063324,0.53285556,-0.00039060,-0.0007519
 2,-0.00000591,0.00105873,-0.00022701,-0.00011874,0.00044771,-0.0004643
 7,-0.00010808,0.00116539,0.00101535,0.00015348,0.00051419,-0.00458780,
 0.00016490,0.00011710,0.00007600,-0.00004260,-0.00003405,0.00000371,0.
 00001160,-0.00016269,-0.00020898,-0.00001237,-0.42958051,-0.51326944,-
 0.05481989,-0.08011686,-0.04854426,-0.01022506,0.50648229,0.56722348,0
 .00012291,-0.00017868,0.00016394,0.00001642,0.00007175,0.00011488,-0.0
 0004569,0.00010629,-0.00000960,-0.00013851,-0.00004852,0.00019815,0.00
 004530,0.00039178,0.00043135,-0.00001734,0.00000656,-0.00005881,0.0000
 0157,0.00000452,0.00000526,0.00002083,0.00001130,-0.00002311,-0.052337
 21,-0.05496926,-0.07946193,-0.01062970,-0.01042258,0.03449810,0.063123
 25,0.06503164,0.04442394,0.00145997,-0.00210699,0.00062005,-0.00029288
 ,-0.00079355,0.00000569,0.00016676,-0.00086586,-0.00012245,0.00032700,
 -0.00059060,-0.00012911,0.00056502,-0.00029323,0.00003092,-0.00007072,
 -0.00007954,-0.00001831,0.00004940,-0.00007780,-0.00003006,-0.00113367
 ,-0.00132312,0.00007330,0.00046178,0.00079549,0.00009501,-0.00045091,-
 0.00057444,-0.00006889,-0.00181756,-0.00101662,-0.00006572,0.22278265,
 -0.00440756,-0.01049738,0.00075122,-0.00147959,-0.00064191,0.00009196,
 -0.00027723,-0.00233253,-0.00015372,0.00040838,-0.00239415,-0.00026475
 ,0.00173763,-0.00238614,-0.00018389,-0.00012873,-0.00016599,-0.0000164
 9,0.00016672,-0.00032255,-0.00006876,-0.00036495,0.00016527,0.00002745
 ,0.00074879,0.00033881,0.00009596,-0.00033890,-0.00021020,-0.00004633,
 -0.00046318,-0.00016356,-0.00005800,0.10956049,0.55038290,0.00062298,0
 .00058742,0.00261041,0.00003918,-0.00012290,0.00001438,-0.00002023,0.0
 0014626,-0.00009408,-0.00003569,0.00016760,-0.00016092,-0.00005588,0.0
 0010479,0.00046233,0.00000079,0.00002039,-0.00005649,-0.00001399,0.000
 03567,-0.00008058,0.00011636,0.00006969,-0.00005407,-0.00003000,-0.000
 04670,0.00002155,0.00003314,0.00003596,-0.00001268,-0.00003770,-0.0000
 2574,0.00011631,0.17784518,-0.19560727,0.35070051,-0.00591662,0.000152
 80,0.00005915,0.00092340,0.00350634,0.00005073,-0.00044872,0.00119421,
 0.00016364,-0.00079309,0.00044202,0.00015189,-0.00019159,-0.00136738,-
 0.00015978,0.00011639,0.00014014,0.00002042,0.00001335,0.00000935,0.00
 001152,0.00021780,0.00069139,-0.00000347,-0.00211269,-0.00251130,-0.00
 033459,0.00106718,0.00123875,0.00016233,0.00116146,0.00124945,-0.00000
 519,-0.12965618,-0.20565018,-0.01994835,0.13500603,0.00171719,-0.00535
 968,-0.00052040,0.00289368,-0.00028818,-0.00034500,0.00067135,0.004920
 42,0.00029536,-0.00164009,0.00478390,0.00050104,-0.00321344,0.00191139
 ,0.00039475,0.00025423,0.00033206,0.00001171,-0.00025162,0.00054424,0.
 00006221,0.00192759,0.00091316,-0.00014418,-0.00155667,-0.00030689,-0.
 00015832,0.00057079,0.00018187,0.00006500,0.00081316,-0.00020577,0.000
 10394,-0.17441611,-0.35537775,0.00523460,0.18594683,0.36470533,0.00004
 668,-0.00034105,-0.00492454,-0.00000662,-0.00034947,-0.00025316,0.0001
 2419,0.00001197,0.00029578,0.00002702,0.00004442,0.00053660,-0.0001458
 3,0.00012070,-0.00083506,0.00000835,-0.00001904,0.00014348,0.00000811,
 -0.00000454,0.00015105,0.00001948,-0.00008995,-0.00003422,-0.00011056,
 -0.00009473,-0.00003354,0.00003406,0.00004578,0.00002405,-0.00010538,0
 .00007018,-0.00031520,-0.03879274,-0.02964620,-0.03381550,0.02154542,-
 0.00164540,0.03959944,-0.00032124,-0.00079057,-0.00041239,-0.00005404,
 0.00006357,-0.00000549,-0.00002721,-0.00017153,0.00001888,0.00006180,-
 0.00017195,0.00000214,0.00010357,-0.00005988,-0.00003057,-0.00000636,-
 0.00001096,0.00000710,0.00000910,-0.00002105,0.00000492,-0.00011208,-0
 .00011896,-0.00001714,-0.00002451,-0.00007169,-0.00001548,0.00006145,0
 .00007574,0.00001266,0.00016446,0.00016569,-0.00009502,-0.08554339,0.0
 9611539,-0.16003729,0.00656917,-0.01223594,0.01643262,0.07899170,-0.00
 077045,-0.00082550,-0.00048522,-0.00000650,0.00010873,-0.00002982,0.00
 000006,-0.00007909,0.00001777,-0.00003413,-0.00011325,0.00004112,0.000
 06602,-0.00024563,-0.00014129,-0.00000110,-0.00000710,0.00001254,0.000
 01364,-0.00002522,0.00001590,-0.00003580,-0.00003663,0.00001535,-0.000
 05546,-0.00011058,-0.00002384,0.00005327,0.00008269,0.00001571,0.00009
 871,0.00005225,-0.00004447,0.06646652,-0.17104045,0.18974517,0.0168887
 0,-0.01753206,0.03171816,-0.08353762,0.19045793,-0.00035003,-0.0004110
 9,-0.00004430,-0.00007266,0.00011276,0.00004224,-0.00002605,-0.0001068
 6,-0.00001278,0.00002007,-0.00014319,-0.00000163,0.00007600,-0.0001123
 0,-0.00004536,-0.00000365,-0.00000809,0.00000118,0.00000616,-0.0000214
 7,-0.00000012,-0.00000776,0.00009450,0.00001551,0.00006005,0.00008979,
 0.00004102,-0.00006453,-0.00007739,-0.00001368,-0.00005518,-0.00007270
 ,-0.00008649,-0.14206302,0.22576823,-0.31712954,-0.00217643,-0.0039149
 4,-0.00072907,0.14541434,-0.22099089,0.31771748,0.00325864,-0.00052516
 ,-0.00018357,-0.00548004,-0.01136497,0.00056216,-0.00179047,0.00198988
 ,0.00033846,-0.00116155,-0.00076081,0.00004088,-0.00161008,-0.00122224
 ,-0.00002271,0.00001253,-0.00001195,0.00000199,-0.00025344,0.00005367,
 0.00002041,-0.00034830,0.00661619,0.00030692,0.00026780,0.00000513,0.0
 0002875,-0.00015074,-0.00004738,-0.00001635,-0.00017491,-0.00000108,-0
 .00002004,-0.01424901,0.00960693,0.00038681,0.00151156,0.00096566,-0.0
 0047372,-0.00139453,-0.00033002,0.00162306,0.48578124,0.00251430,-0.00
 154406,-0.00025128,-0.01008679,-0.01102913,-0.00026059,-0.00175447,0.0
 0268318,0.00023863,-0.00145826,-0.00042611,0.00013629,-0.00272122,-0.0
 0130395,0.00016183,0.00003350,0.00000224,-0.00001358,-0.00028076,0.000
 08344,0.00005698,0.00869715,0.00656613,0.00224841,0.00019411,-0.000166
 07,0.00001805,-0.00009612,0.00005421,-0.00000872,-0.00001792,0.0001265
 0,-0.00000544,0.01025394,-0.00305426,0.00015646,-0.00030080,-0.0019725
 7,0.00019127,0.00086262,0.00050119,-0.00099131,-0.20185926,0.27371027,
 0.00011087,0.00017864,-0.00013236,-0.00022641,-0.00043379,0.00249346,0
 .00006462,-0.00006772,0.00037120,-0.00001035,0.00001535,-0.00009828,-0
 .00000167,0.00000791,-0.00007317,0.00000143,-0.00001117,0.00003234,-0.
 00000919,-0.00000001,-0.00008464,0.00043860,0.00159245,-0.00454744,-0.
 00000395,-0.00000461,-0.00001183,-0.00000090,0.00000628,0.00000634,0.0
 0001644,0.00000318,0.00000196,-0.00017906,-0.00029527,0.00339713,0.000
 20499,-0.00001039,-0.00018007,0.00078388,-0.00002146,-0.00044155,0.210
 02790,0.11680218,0.36728687,-0.00052061,-0.00135347,-0.00001779,-0.001
 38407,-0.00179664,-0.00005315,0.00002366,0.00044424,0.00001353,-0.0001
 6726,0.00036955,0.00004675,-0.00047589,0.00014735,0.00006773,0.0000225
 1,0.00002072,0.00000011,-0.00003780,0.00004830,0.00001358,0.00361929,0
 .00118653,-0.00017884,-0.00014659,-0.00014075,-0.00001734,0.00009715,0
 .00010622,0.00001282,0.00021216,0.00010085,0.00002336,0.00805423,-0.00
 583677,0.00058833,-0.00758825,-0.00250983,0.00145992,0.00149166,0.0011
 4080,-0.00240468,-0.24055468,0.20153265,0.02091942,0.25476384,-0.00201
 942,-0.00136208,0.00010447,-0.00032027,-0.00043992,0.00003678,0.000321
 82,-0.00057602,-0.00007468,0.00030749,0.00016236,-0.00002353,0.0003740
 0,0.00034648,0.00002816,0.00000106,-0.00000884,-0.00000102,0.00005210,
 -0.00001081,-0.00000750,-0.00025598,-0.00534659,-0.00033774,-0.0000191
 7,0.00008888,0.00000048,-0.00000730,-0.00004989,-0.00000105,-0.0000689
 7,-0.00008176,-0.00000649,-0.00623138,-0.00157523,0.00018514,-0.001466
 64,0.00287363,-0.00004102,-0.00007355,-0.00122162,0.00079330,0.2289083
 3,-0.23237265,-0.05003570,-0.21230150,0.23602590,0.00009840,0.00014013
 ,0.00008939,-0.00002971,0.00001163,0.00010531,-0.00003370,-0.00000009,
 -0.00003201,-0.00000674,-0.00002892,0.00001892,0.00000241,-0.00002348,
 -0.00005135,-0.00000109,-0.00000006,0.00000403,-0.00000229,-0.00000317
 ,0.00000785,0.00007741,0.00026283,0.00014506,0.00001212,0.00000285,0.0
 0001148,-0.00001019,-0.00000604,-0.00000276,-0.00002184,-0.00000246,0.
 00000205,0.00173569,0.00030958,-0.00560916,0.00046908,0.00010358,0.000
 29170,-0.00209325,0.00015215,0.00071402,0.05336608,-0.07683991,-0.0474
 8695,-0.02729842,0.05137314,0.04804846,-0.00001327,0.00009386,0.000018
 13,0.00036659,-0.00008067,0.00004395,-0.00003666,-0.00006688,0.0000551
 3,0.00003887,-0.00003256,-0.00001909,0.00008489,0.00004837,0.00001197,
 0.00000295,-0.00000156,0.00000115,0.00000064,0.00000039,-0.00001202,-0
 .00151722,-0.00080442,-0.00065647,-0.00001638,-0.00000616,-0.00000299,
 0.00000876,0.00000425,0.00000026,0.00000884,0.00000099,0.00000079,-0.0
 0065248,0.00060277,0.00054637,0.00012081,0.00006321,-0.00007101,0.0000
 3046,0.00004336,0.00002431,-0.22366403,-0.00551268,-0.23213663,-0.0174
 0936,-0.00720061,-0.02626397,0.24264659,0.00043599,-0.00003571,-0.0000
 3407,-0.00097918,-0.00145144,0.00058636,-0.00016947,0.00023016,0.00012
 556,-0.00015784,-0.00005816,-0.00001805,-0.00021210,-0.00014744,-0.000
 03131,0.00000151,-0.00000748,0.00000499,-0.00003371,0.00000671,-0.0000
 1613,0.00033795,0.00187773,-0.00186528,0.00002360,-0.00000781,-0.00000
 044,-0.00001321,0.00000105,-0.00000168,-0.00001046,0.00000758,0.000005
 67,0.00129279,-0.00072488,-0.00068653,-0.00016370,-0.00012309,0.000028
 93,-0.00001932,0.00003435,-0.00000834,-0.03202292,-0.03185835,-0.06772
 588,0.01884175,0.00354818,0.02454825,0.01284833,0.02870862,-0.00025744
 ,-0.00003887,0.00008695,0.00066218,0.00088770,-0.00015219,0.00012551,-
 0.00009964,-0.00003355,0.00007677,0.00006211,0.00000922,0.00009778,0.0
 0007573,-0.00003617,0.00000061,0.00000287,-0.00000147,0.00002137,0.000
 00007,0.00000254,-0.00090964,-0.00161425,0.00014463,-0.00001658,0.0000
 0289,-0.00000108,0.00000901,0.00000107,-0.00000104,0.00001043,-0.00000
 142,-0.00000080,0.00106350,-0.00070373,-0.00030959,-0.00021136,-0.0000
 3358,0.00007823,0.00003008,0.00000312,-0.00002693,-0.26598705,-0.04163
 927,-0.32053301,0.00682470,-0.00199274,0.00374396,0.25846011,0.0450879
 6,0.31703029\\0.00001060,-0.00001758,-0.00000065,-0.00001458,0.0000345
 9,0.00002103,0.00001357,-0.00001212,-0.00001947,-0.00001460,0.00002862
 ,0.00001036,-0.00000534,-0.00001882,-0.00000264,-0.00000054,0.00000156
 ,0.00000473,-0.00000198,0.00000303,0.00000436,0.00000403,-0.00001085,-
 0.00000814,-0.00002430,-0.00003234,-0.00000400,0.00001157,0.00001762,0
 .00001231,0.00001270,0.00002395,0.00000945,-0.00001225,0.00000965,-0.0
 0000351,0.00000726,-0.00000986,-0.00000427,0.00000530,-0.00000595,0.00
 000669,0.00001374,0.00001177,0.00002041,-0.00000110,-0.00001579,-0.000
 02854,-0.00000409,-0.00000748,-0.00001811\\\@


 IF MATHEMATICALLY YOU END UP WITH THE INCORRECT ANSWER,
 TRY MULTIPLYING BY THE PAGE NUMBER.
 Job cpu time:       0 days  0 hours 32 minutes 21.7 seconds.
 Elapsed time:       0 days  0 hours  1 minutes 21.6 seconds.
 File lengths (MBytes):  RWF=    138 Int=      0 D2E=      0 Chk=     10 Scr=      1
 Normal termination of Gaussian 16 at Thu Jul  6 20:09:39 2023.
