 Entering Gaussian System, Link 0=/home/gau/soft/g16/g16
 Initial command:
 /home/gau/soft/g16/l1.exe "/home/gau/soft/scratch/Gau-38539.inp" -scrdir="/home/gau/soft/scratch/"
 Entering Link 1 = /home/gau/soft/g16/l1.exe PID=     38540.
  
 Copyright (c) 1988-2019, Gaussian, Inc.  All Rights Reserved.
  
 This is part of the Gaussian(R) 16 program.  It is based on
 the Gaussian(R) 09 system (copyright 2009, Gaussian, Inc.),
 the Gaussian(R) 03 system (copyright 2003, Gaussian, Inc.),
 the Gaussian(R) 98 system (copyright 1998, Gaussian, Inc.),
 the Gaussian(R) 94 system (copyright 1995, Gaussian, Inc.),
 the Gaussian 92(TM) system (copyright 1992, Gaussian, Inc.),
 the Gaussian 90(TM) system (copyright 1990, Gaussian, Inc.),
 the Gaussian 88(TM) system (copyright 1988, Gaussian, Inc.),
 the Gaussian 86(TM) system (copyright 1986, Carnegie Mellon
 University), and the Gaussian 82(TM) system (copyright 1983,
 Carnegie Mellon University). Gaussian is a federally registered
 trademark of Gaussian, Inc.
  
 This software contains proprietary and confidential information,
 including trade secrets, belonging to Gaussian, Inc.
  
 This software is provided under written license and may be
 used, copied, transmitted, or stored only in accord with that
 written license.
  
 The following legend is applicable only to US Government
 contracts under FAR:
  
                    RESTRICTED RIGHTS LEGEND
  
 Use, reproduction and disclosure by the US Government is
 subject to restrictions as set forth in subparagraphs (a)
 and (c) of the Commercial Computer Software - Restricted
 Rights clause in FAR 52.227-19.
  
 Gaussian, Inc.
 340 Quinnipiac St., Bldg. 40, Wallingford CT 06492
  
  
 ---------------------------------------------------------------
 Warning -- This program may not be used in any manner that
 competes with the business of Gaussian, Inc. or will provide
 assistance to any competitor of Gaussian, Inc.  The licensee
 of this program is prohibited from giving any competitor of
 Gaussian, Inc. access to this program.  By using this program,
 the user acknowledges that Gaussian, Inc. is engaged in the
 business of creating and licensing software in the field of
 computational chemistry and represents and warrants to the
 licensee that it is not a competitor of Gaussian, Inc. and that
 it will not use this program in any manner prohibited above.
 ---------------------------------------------------------------
  

 Cite this work as:
 Gaussian 16, Revision C.01,
 M. J. Frisch, G. W. Trucks, H. B. Schlegel, G. E. Scuseria, 
 M. A. Robb, J. R. Cheeseman, G. Scalmani, V. Barone, 
 G. A. Petersson, H. Nakatsuji, X. Li, M. Caricato, A. V. Marenich, 
 J. Bloino, B. G. Janesko, R. Gomperts, B. Mennucci, H. P. Hratchian, 
 J. V. Ortiz, A. F. Izmaylov, J. L. Sonnenberg, D. Williams-Young, 
 F. Ding, F. Lipparini, F. Egidi, J. Goings, B. Peng, A. Petrone, 
 T. Henderson, D. Ranasinghe, V. G. Zakrzewski, J. Gao, N. Rega, 
 G. Zheng, W. Liang, M. Hada, M. Ehara, K. Toyota, R. Fukuda, 
 J. Hasegawa, M. Ishida, T. Nakajima, Y. Honda, O. Kitao, H. Nakai, 
 T. Vreven, K. Throssell, J. A. Montgomery, Jr., J. E. Peralta, 
 F. Ogliaro, M. J. Bearpark, J. J. Heyd, E. N. Brothers, K. N. Kudin, 
 V. N. Staroverov, T. A. Keith, R. Kobayashi, J. Normand, 
 K. Raghavachari, A. P. Rendell, J. C. Burant, S. S. Iyengar, 
 J. Tomasi, M. Cossi, J. M. Millam, M. Klene, C. Adamo, R. Cammi, 
 J. W. Ochterski, R. L. Martin, K. Morokuma, O. Farkas, 
 J. B. Foresman, and D. J. Fox, Gaussian, Inc., Wallingford CT, 2019.
 
 ******************************************
 Gaussian 16:  ES64L-G16RevC.01  3-Jul-2019
                 6-Dec-2023 
 ******************************************
 %mem=10GB
 %nprocshared=48
 Will use up to   48 processors via shared memory.
 ----------------------------------------------------------------------
 # opt=(calcfc,ts,noeigentest,maxcycle=600) freq 6-31+g(d,p) scrf=(smd,
 solvent=water) integral=grid=ultrafine m062x
 ----------------------------------------------------------------------
 1/5=1,6=600,10=4,11=1,18=20,26=6,38=1/1,3;
 2/9=110,12=2,17=6,18=5,40=1/2;
 3/5=1,6=6,7=111,11=2,25=1,30=1,70=32201,71=2,72=1,74=-55,75=-5,140=1/1,2,3;
 4//1;
 5/5=2,38=5,53=1/2;
 8/6=4,10=90,11=11/1;
 11/6=1,8=1,9=11,15=111,16=1/1,2,10;
 10/6=1,13=1/2;
 6/7=2,8=2,9=2,10=2,28=1/1;
 7/10=1,25=1/1,2,3,16;
 1/5=1,6=600,10=4,11=1,18=20,26=6/3(2);
 2/9=110/2;
 99//99;
 2/9=110/2;
 3/5=1,6=6,7=111,11=2,25=1,30=1,70=32205,71=1,72=1,74=-55,75=-5/1,2,3;
 4/5=5,16=3,69=1/1;
 5/5=2,38=5,53=1/2;
 7//1,2,3,16;
 1/5=1,6=600,11=1,18=20,26=6/3(-5);
 2/9=110/2;
 6/7=2,8=2,9=2,10=2,19=2,28=1/1;
 99/9=1/99;
 --
 TS
 --
 Symbolic Z-matrix:
 Charge =  0 Multiplicity = 1
 O                    -2.0234    1.95322  -0.10253 
 H                    -2.11501   0.74809  -0.01391 
 H                    -2.35768   2.50788  -0.82911 
 N                     0.39266  -0.34897   0.00159 
 N                     0.35183   0.98232  -0.01335 
 C                     1.61565   1.38019  -0.01102 
 C                     2.41344   0.22644   0.00469 
 N                     1.61793  -0.83687   0.01214 
 H                     1.88166   2.4264   -0.02033 
 H                     3.48792   0.12948   0.00995 
 H                    -0.87255   1.67737  -0.01806 
 C                    -0.82382  -1.22095  -0.0019 
 O                    -1.90538  -0.60134  -0.03272 
 O                    -0.58161  -2.42407   0.02462 
 
 Add virtual bond connecting atoms H11        and O1         Dist= 2.24D+00.
 Add virtual bond connecting atoms H2         and O1         Dist= 2.29D+00.
 Add virtual bond connecting atoms N5         and H11        Dist= 2.66D+00.
 Add virtual bond connecting atoms O13        and H2         Dist= 2.58D+00.

 GradGradGradGradGradGradGradGradGradGradGradGradGradGradGradGradGradGrad
 Berny optimization.
 Initialization pass.
                           ----------------------------
                           !    Initial Parameters    !
                           ! (Angstroms and Degrees)  !
 --------------------------                            --------------------------
 ! Name  Definition              Value          Derivative Info.                !
 --------------------------------------------------------------------------------
 ! R1    R(1,2)                  1.2118         calculate D2E/DX2 analytically  !
 ! R2    R(1,3)                  0.9733         calculate D2E/DX2 analytically  !
 ! R3    R(1,11)                 1.1865         calculate D2E/DX2 analytically  !
 ! R4    R(2,13)                 1.3657         calculate D2E/DX2 analytically  !
 ! R5    R(4,5)                  1.332          calculate D2E/DX2 analytically  !
 ! R6    R(4,8)                  1.3189         calculate D2E/DX2 analytically  !
 ! R7    R(4,12)                 1.4967         calculate D2E/DX2 analytically  !
 ! R8    R(5,6)                  1.325          calculate D2E/DX2 analytically  !
 ! R9    R(5,11)                 1.4079         calculate D2E/DX2 analytically  !
 ! R10   R(6,7)                  1.4028         calculate D2E/DX2 analytically  !
 ! R11   R(6,9)                  1.0795         calculate D2E/DX2 analytically  !
 ! R12   R(7,8)                  1.328          calculate D2E/DX2 analytically  !
 ! R13   R(7,10)                 1.0789         calculate D2E/DX2 analytically  !
 ! R14   R(12,13)                1.2469         calculate D2E/DX2 analytically  !
 ! R15   R(12,14)                1.2275         calculate D2E/DX2 analytically  !
 ! A1    A(2,1,3)              126.5371         calculate D2E/DX2 analytically  !
 ! A2    A(2,1,11)              80.6142         calculate D2E/DX2 analytically  !
 ! A3    A(3,1,11)             121.2506         calculate D2E/DX2 analytically  !
 ! A4    A(5,4,8)              113.4719         calculate D2E/DX2 analytically  !
 ! A5    A(5,4,12)             123.8725         calculate D2E/DX2 analytically  !
 ! A6    A(8,4,12)             122.6545         calculate D2E/DX2 analytically  !
 ! A7    A(4,5,6)              105.7162         calculate D2E/DX2 analytically  !
 ! A8    A(4,5,11)             121.3391         calculate D2E/DX2 analytically  !
 ! A9    A(6,5,11)             132.9427         calculate D2E/DX2 analytically  !
 ! A10   A(5,6,7)              107.1878         calculate D2E/DX2 analytically  !
 ! A11   A(5,6,9)              121.7379         calculate D2E/DX2 analytically  !
 ! A12   A(7,6,9)              131.0742         calculate D2E/DX2 analytically  !
 ! A13   A(6,7,8)              108.5379         calculate D2E/DX2 analytically  !
 ! A14   A(6,7,10)             129.8195         calculate D2E/DX2 analytically  !
 ! A15   A(8,7,10)             121.6425         calculate D2E/DX2 analytically  !
 ! A16   A(4,8,7)              105.0861         calculate D2E/DX2 analytically  !
 ! A17   A(1,11,5)             163.4468         calculate D2E/DX2 analytically  !
 ! A18   A(4,12,13)            114.5541         calculate D2E/DX2 analytically  !
 ! A19   A(4,12,14)            114.2412         calculate D2E/DX2 analytically  !
 ! A20   A(13,12,14)           131.2046         calculate D2E/DX2 analytically  !
 ! A21   A(2,13,12)            128.5951         calculate D2E/DX2 analytically  !
 ! A22   L(1,2,13,5,-1)        166.8504         calculate D2E/DX2 analytically  !
 ! A23   L(1,2,13,5,-2)        185.049          calculate D2E/DX2 analytically  !
 ! D1    D(3,1,13,12)          114.135          calculate D2E/DX2 analytically  !
 ! D2    D(11,1,13,12)          -3.1136         calculate D2E/DX2 analytically  !
 ! D3    D(2,1,11,5)            16.7845         calculate D2E/DX2 analytically  !
 ! D4    D(3,1,11,5)          -110.4824         calculate D2E/DX2 analytically  !
 ! D5    D(8,4,5,6)             -0.0646         calculate D2E/DX2 analytically  !
 ! D6    D(8,4,5,11)          -179.6124         calculate D2E/DX2 analytically  !
 ! D7    D(12,4,5,6)          -179.6932         calculate D2E/DX2 analytically  !
 ! D8    D(12,4,5,11)            0.759          calculate D2E/DX2 analytically  !
 ! D9    D(5,4,8,7)              0.045          calculate D2E/DX2 analytically  !
 ! D10   D(12,4,8,7)           179.6787         calculate D2E/DX2 analytically  !
 ! D11   D(5,4,12,13)            0.6327         calculate D2E/DX2 analytically  !
 ! D12   D(5,4,12,14)         -179.4458         calculate D2E/DX2 analytically  !
 ! D13   D(8,4,12,13)         -178.9627         calculate D2E/DX2 analytically  !
 ! D14   D(8,4,12,14)            0.9588         calculate D2E/DX2 analytically  !
 ! D15   D(4,5,6,7)              0.0551         calculate D2E/DX2 analytically  !
 ! D16   D(4,5,6,9)           -179.9472         calculate D2E/DX2 analytically  !
 ! D17   D(11,5,6,7)           179.5275         calculate D2E/DX2 analytically  !
 ! D18   D(11,5,6,9)            -0.4748         calculate D2E/DX2 analytically  !
 ! D19   D(4,5,11,1)           -14.4409         calculate D2E/DX2 analytically  !
 ! D20   D(6,5,11,1)           166.1537         calculate D2E/DX2 analytically  !
 ! D21   D(5,6,7,8)             -0.0306         calculate D2E/DX2 analytically  !
 ! D22   D(5,6,7,10)           179.9216         calculate D2E/DX2 analytically  !
 ! D23   D(9,6,7,8)            179.972          calculate D2E/DX2 analytically  !
 ! D24   D(9,6,7,10)            -0.0758         calculate D2E/DX2 analytically  !
 ! D25   D(6,7,8,4)             -0.0077         calculate D2E/DX2 analytically  !
 ! D26   D(10,7,8,4)          -179.9646         calculate D2E/DX2 analytically  !
 ! D27   D(4,12,13,2)           -2.642          calculate D2E/DX2 analytically  !
 ! D28   D(14,12,13,2)         177.4532         calculate D2E/DX2 analytically  !
 --------------------------------------------------------------------------------
 Trust Radius=3.00D-01 FncErr=5.00D-06 GrdErr=5.00D-06 EigMax=2.50D+02 EigMin=1.00D-04
 Number of steps in this run=    100 maximum allowed number of steps=    100.
 Search for a saddle point of order  1.
 GradGradGradGradGradGradGradGradGradGradGradGradGradGradGradGradGradGrad

                          Input orientation:                          
 ---------------------------------------------------------------------
 Center     Atomic      Atomic             Coordinates (Angstroms)
 Number     Number       Type             X           Y           Z
 ---------------------------------------------------------------------
      1          8           0       -2.023399    1.953216   -0.102527
      2          1           0       -2.115012    0.748088   -0.013906
      3          1           0       -2.357680    2.507877   -0.829109
      4          7           0        0.392657   -0.348970    0.001589
      5          7           0        0.351833    0.982318   -0.013349
      6          6           0        1.615653    1.380189   -0.011021
      7          6           0        2.413437    0.226436    0.004694
      8          7           0        1.617933   -0.836870    0.012143
      9          1           0        1.881658    2.426402   -0.020327
     10          1           0        3.487924    0.129475    0.009952
     11          1           0       -0.872555    1.677374   -0.018061
     12          6           0       -0.823824   -1.220954   -0.001900
     13          8           0       -1.905381   -0.601335   -0.032722
     14          8           0       -0.581610   -2.424066    0.024619
 ---------------------------------------------------------------------
                    Distance matrix (angstroms):
                    1          2          3          4          5
     1  O    0.000000
     2  H    1.211850   0.000000
     3  H    0.973301   1.954560   0.000000
     4  N    3.338896   2.737184   4.051665   0.000000
     5  N    2.567551   2.477940   3.214694   1.331998   0.000000
     6  C    3.685028   3.783837   4.210501   2.117987   1.324971
     7  C    4.762224   4.558433   5.353854   2.101108   2.195881
     8  N    4.588793   4.055570   5.263130   1.318886   2.216552
     9  H    3.934480   4.334761   4.316567   3.149650   2.103757
    10  H    5.806321   5.637033   6.366467   3.132037   3.250069
    11  H    1.186451   1.551544   1.884975   2.388978   1.407924
    12  C    3.394769   2.354663   4.115965   1.496728   2.497340
    13  O    2.558228   1.365738   3.241297   2.312108   2.757417
    14  O    4.610370   3.523544   5.311058   2.292542   3.532168
                    6          7          8          9         10
     6  C    0.000000
     7  C    1.402802   0.000000
     8  N    2.217181   1.327969   0.000000
     9  H    1.079540   2.263463   3.274072   0.000000
    10  H    2.251694   1.078866   2.104921   2.803013   0.000000
    11  H    2.505902   3.592141   3.539048   2.854249   4.627153
    12  C    3.566101   3.546102   2.471820   4.541275   4.518293
    13  O    4.040370   4.397590   3.531463   4.848609   5.442761
    14  O    4.393358   3.999483   2.712441   5.440289   4.804362
                   11         12         13         14
    11  H    0.000000
    12  C    2.898782   0.000000
    13  O    2.501891   1.246853   0.000000
    14  O    4.111968   1.227538   2.253443   0.000000
 Stoichiometry    C3H5N3O3
 Framework group  C1[X(C3H5N3O3)]
 Deg. of freedom    36
 Full point group                 C1      NOp   1
 Largest Abelian subgroup         C1      NOp   1
 Largest concise Abelian subgroup C1      NOp   1
                         Standard orientation:                         
 ---------------------------------------------------------------------
 Center     Atomic      Atomic             Coordinates (Angstroms)
 Number     Number       Type             X           Y           Z
 ---------------------------------------------------------------------
      1          8           0       -2.049237   -1.925670   -0.039660
      2          1           0       -2.120674   -0.716977   -0.090028
      3          1           0       -2.409960   -2.498820    0.659406
      4          7           0        0.402604    0.340518   -0.006648
      5          7           0        0.341647   -0.989729   -0.037410
      6          6           0        1.599074   -1.407080   -0.021818
      7          6           0        2.414049   -0.266098    0.020938
      8          7           0        1.634867    0.809218    0.029496
      9          1           0        1.849191   -2.457070   -0.041049
     10          1           0        3.489648   -0.185883    0.045524
     11          1           0       -0.892657   -1.665265   -0.086321
     12          6           0       -0.800492    1.230882   -0.003998
     13          8           0       -1.891566    0.627624   -0.020756
     14          8           0       -0.539843    2.430263    0.015874
 ---------------------------------------------------------------------
 Rotational constants (GHZ):           2.0799020           1.6496092           0.9217207
 Standard basis: 6-31+G(d,p) (6D, 7F)
 There are   196 symmetry adapted cartesian basis functions of A   symmetry.
 There are   196 symmetry adapted basis functions of A   symmetry.
   196 basis functions,   323 primitive gaussians,   196 cartesian basis functions
    34 alpha electrons       34 beta electrons
       nuclear repulsion energy       459.9545945599 Hartrees.
 NAtoms=   14 NActive=   14 NUniq=   14 SFac= 1.00D+00 NAtFMM=   60 NAOKFM=F Big=F
 Integral buffers will be    131072 words long.
 Raffenetti 2 integral format.
 Two-electron integral symmetry is turned on.
 Force inversion solution in PCM.
 ------------------------------------------------------------------------------
 Polarizable Continuum Model (PCM)
 =================================
 Model                : PCM.
 Atomic radii         : SMD-Coulomb.
 Polarization charges : Total charges.
 Charge compensation  : None.
 Solution method      : Matrix inversion.
 Cavity type          : VdW (van der Waals Surface) (Alpha=1.000).
 Cavity algorithm     : GePol (No added spheres)
                        Default sphere list used, NSphG=   14.
                        Lebedev-Laikov grids with approx.  5.0 points / Ang**2.
                        Smoothing algorithm: York/Karplus (Gamma=1.0000).
                        Polarization charges: spherical gaussians, with
                                              point-specific exponents (IZeta= 3).
                        Self-potential: point-specific (ISelfS= 7).
                        Self-field    : sphere-specific E.n sum rule (ISelfD= 2).
 1st derivatives      : Analytical E(r).r(x)/FMM algorithm (CHGder, D1EAlg=3).
                        Cavity 1st derivative terms included.
 2nd derivatives      : Analytical E(r).r(xy)/FMM algorithm (CHGder, D2EAlg=3).
                        Cavity 2nd derivative terms included.
 Solvent              : Water, Eps=  78.355300 Eps(inf)=   1.777849
 ------------------------------------------------------------------------------
 Spheres list:
 ISph  on   Nord     Re0    Alpha      Xe            Ye            Ze
    1   O      1    1.5200  1.000     -2.049237     -1.925670     -0.039660
    2   H      2    1.2000  1.000     -2.120674     -0.716977     -0.090028
    3   H      3    1.2000  1.000     -2.409960     -2.498820      0.659406
    4   N      4    1.8900  1.000      0.402604      0.340518     -0.006648
    5   N      5    1.8900  1.000      0.341647     -0.989729     -0.037410
    6   C      6    1.8500  1.000      1.599074     -1.407080     -0.021818
    7   C      7    1.8500  1.000      2.414049     -0.266098      0.020938
    8   N      8    1.8900  1.000      1.634867      0.809218      0.029496
    9   H      9    1.2000  1.000      1.849191     -2.457070     -0.041049
   10   H     10    1.2000  1.000      3.489648     -0.185883      0.045524
   11   H     11    1.2000  1.000     -0.892657     -1.665265     -0.086321
   12   C     12    1.8500  1.000     -0.800492      1.230882     -0.003998
   13   O     13    1.5200  1.000     -1.891566      0.627624     -0.020756
   14   O     14    1.5200  1.000     -0.539843      2.430263      0.015874
 ------------------------------------------------------------------------------
 ------------------------------------------------------------------------------
 Atomic radii for non-electrostatic terms: SMD-CDS.
 ------------------------------------------------------------------------------
 Nuclear repulsion after PCM non-electrostatic terms =      459.9625375660 Hartrees.
 One-electron integrals computed using PRISM.
 NBasis=   196 RedAO= T EigKep=  2.23D-05  NBF=   196
 NBsUse=   196 1.00D-06 EigRej= -1.00D+00 NBFU=   196
 ExpMin= 4.38D-02 ExpMax= 5.48D+03 ExpMxC= 8.25D+02 IAcc=3 IRadAn=         5 AccDes= 0.00D+00
 Harris functional with IExCor= 1009 and IRadAn=       5 diagonalized for initial guess.
 HarFok:  IExCor= 1009 AccDes= 0.00D+00 IRadAn=         5 IDoV= 1 UseB2=F ITyADJ=14
 ICtDFT=  3500011 ScaDFX=  1.000000  1.000000  1.000000  1.000000
 FoFCou: FMM=F IPFlag=           0 FMFlag=      100000 FMFlg1=           0
         NFxFlg=           0 DoJE=T BraDBF=F KetDBF=T FulRan=T
         wScrn=  0.000000 ICntrl=       500 IOpCl=  0 I1Cent=   200000004 NGrid=           0
         NMat0=    1 NMatS0=      1 NMatT0=    0 NMatD0=    1 NMtDS0=    0 NMtDT0=    0
 Petite list used in FoFCou.
 Requested convergence on RMS density matrix=1.00D-08 within 128 cycles.
 Requested convergence on MAX density matrix=1.00D-06.
 Requested convergence on             energy=1.00D-06.
 No special actions if energy rises.
 Inv3:  Mode=1 IEnd=     3864675.
 Iteration    1 A*A^-1 deviation from unit magnitude is 3.77D-15 for   1126.
 Iteration    1 A*A^-1 deviation from orthogonality  is 1.84D-15 for   1130    874.
 Iteration    1 A^-1*A deviation from unit magnitude is 3.77D-15 for   1126.
 Iteration    1 A^-1*A deviation from orthogonality  is 4.43D-15 for    680    612.
 Error on total polarization charges =  0.04208
 SCF Done:  E(RM062X) =  -507.063861654     A.U. after   14 cycles
            NFock= 14  Conv=0.61D-08     -V/T= 2.0089
 SMD-CDS (non-electrostatic) energy       (kcal/mol) =       4.98
 (included in total energy above)
 DoSCS=F DFT=T ScalE2(SS,OS)=  1.000000  1.000000
 Range of M.O.s used for correlation:     1   196
 NBasis=   196 NAE=    34 NBE=    34 NFC=     0 NFV=     0
 NROrb=    196 NOA=    34 NOB=    34 NVA=   162 NVB=   162

 **** Warning!!: The largest alpha MO coefficient is  0.62905155D+02

 Symmetrizing basis deriv contribution to polar:
 IMax=3 JMax=2 DiffMx= 0.00D+00
 G2DrvN: will do    15 centers at a time, making    1 passes.
 Calling FoFCou, ICntrl=  3107 FMM=F I1Cent=   0 AccDes= 0.00D+00.
 NEqPCM:  Using equilibrium solvation (IEInf=0, Eps=  78.3553, EpsInf=   1.7778)
 G2PCM: DoFxE=T DoFxN=T DoGrad=T DoDP/DQ/DG/TGxP=FFFF NFrqRd=   0 IEInf=0 SqF1=F DoCFld=F IF1Alg=4.
 End of G2Drv F.D. properties file   721 does not exist.
 End of G2Drv F.D. properties file   722 does not exist.
 End of G2Drv F.D. properties file   788 does not exist.
          IDoAtm=11111111111111
 NEqPCM:  Using equilibrium solvation (IEInf=0, Eps=  78.3553, EpsInf=   1.7778)
          Differentiating once with respect to nuclear coordinates.
 Keep R1 ints in memory in canonical form, NReq=235503729.
          There are    45 degrees of freedom in the 1st order CPHF.  IDoFFX=6 NUNeed=     0.
     39 vectors produced by pass  0 Test12= 1.22D-14 2.22D-09 XBig12= 1.57D-01 1.39D-01.
 AX will form    39 AO Fock derivatives at one time.
     39 vectors produced by pass  1 Test12= 1.22D-14 2.22D-09 XBig12= 1.70D-02 3.34D-02.
     39 vectors produced by pass  2 Test12= 1.22D-14 2.22D-09 XBig12= 4.50D-04 3.03D-03.
     39 vectors produced by pass  3 Test12= 1.22D-14 2.22D-09 XBig12= 3.87D-06 2.99D-04.
     39 vectors produced by pass  4 Test12= 1.22D-14 2.22D-09 XBig12= 3.05D-08 2.59D-05.
     39 vectors produced by pass  5 Test12= 1.22D-14 2.22D-09 XBig12= 1.53D-10 1.82D-06.
     36 vectors produced by pass  6 Test12= 1.22D-14 2.22D-09 XBig12= 5.75D-13 7.58D-08.
      5 vectors produced by pass  7 Test12= 1.22D-14 2.22D-09 XBig12= 2.06D-15 5.07D-09.
 InvSVY:  IOpt=1 It=  1 EMax= 2.55D-15
 Solved reduced A of dimension   275 with    39 vectors.
 End of Minotr F.D. properties file   721 does not exist.
 End of Minotr F.D. properties file   722 does not exist.
 End of Minotr F.D. properties file   788 does not exist.

 **********************************************************************

            Population analysis using the SCF Density.

 **********************************************************************

 Orbital symmetries:
       Occupied  (A) (A) (A) (A) (A) (A) (A) (A) (A) (A) (A) (A)
                 (A) (A) (A) (A) (A) (A) (A) (A) (A) (A) (A) (A)
                 (A) (A) (A) (A) (A) (A) (A) (A) (A) (A)
       Virtual   (A) (A) (A) (A) (A) (A) (A) (A) (A) (A) (A) (A)
                 (A) (A) (A) (A) (A) (A) (A) (A) (A) (A) (A) (A)
                 (A) (A) (A) (A) (A) (A) (A) (A) (A) (A) (A) (A)
                 (A) (A) (A) (A) (A) (A) (A) (A) (A) (A) (A) (A)
                 (A) (A) (A) (A) (A) (A) (A) (A) (A) (A) (A) (A)
                 (A) (A) (A) (A) (A) (A) (A) (A) (A) (A) (A) (A)
                 (A) (A) (A) (A) (A) (A) (A) (A) (A) (A) (A) (A)
                 (A) (A) (A) (A) (A) (A) (A) (A) (A) (A) (A) (A)
                 (A) (A) (A) (A) (A) (A) (A) (A) (A) (A) (A) (A)
                 (A) (A) (A) (A) (A) (A) (A) (A) (A) (A) (A) (A)
                 (A) (A) (A) (A) (A) (A) (A) (A) (A) (A) (A) (A)
                 (A) (A) (A) (A) (A) (A) (A) (A) (A) (A) (A) (A)
                 (A) (A) (A) (A) (A) (A) (A) (A) (A) (A) (A) (A)
                 (A) (A) (A) (A) (A) (A)
 The electronic state is 1-A.
 Alpha  occ. eigenvalues --  -19.67925 -19.67271 -19.64850 -14.90650 -14.85712
 Alpha  occ. eigenvalues --  -14.83389 -10.74003 -10.61256 -10.60075  -1.27747
 Alpha  occ. eigenvalues --   -1.22429  -1.15386  -1.13575  -1.03695  -0.96072
 Alpha  occ. eigenvalues --   -0.76699  -0.74655  -0.70199  -0.68183  -0.60899
 Alpha  occ. eigenvalues --   -0.60625  -0.58385  -0.55895  -0.53651  -0.53062
 Alpha  occ. eigenvalues --   -0.51936  -0.46661  -0.42754  -0.41304  -0.40796
 Alpha  occ. eigenvalues --   -0.39598  -0.38506  -0.38087  -0.35368
 Alpha virt. eigenvalues --   -0.02356   0.01593   0.03519   0.03949   0.04703
 Alpha virt. eigenvalues --    0.05813   0.06067   0.06474   0.08114   0.08660
 Alpha virt. eigenvalues --    0.09520   0.10528   0.10774   0.11234   0.12507
 Alpha virt. eigenvalues --    0.15213   0.17277   0.18232   0.19382   0.19443
 Alpha virt. eigenvalues --    0.20344   0.20915   0.21061   0.21765   0.22270
 Alpha virt. eigenvalues --    0.23685   0.23865   0.25132   0.25375   0.26049
 Alpha virt. eigenvalues --    0.26370   0.27649   0.28405   0.28809   0.29322
 Alpha virt. eigenvalues --    0.30109   0.30827   0.31886   0.32822   0.33959
 Alpha virt. eigenvalues --    0.34282   0.36059   0.37450   0.38982   0.40741
 Alpha virt. eigenvalues --    0.41916   0.46189   0.47213   0.48445   0.49958
 Alpha virt. eigenvalues --    0.54268   0.65891   0.70789   0.73234   0.75004
 Alpha virt. eigenvalues --    0.78611   0.79651   0.87543   0.88367   0.89611
 Alpha virt. eigenvalues --    0.92310   0.93957   0.94949   0.96520   0.97951
 Alpha virt. eigenvalues --    0.99975   1.00573   1.03743   1.05421   1.07429
 Alpha virt. eigenvalues --    1.11389   1.15663   1.16181   1.16971   1.18328
 Alpha virt. eigenvalues --    1.23521   1.25655   1.26581   1.28916   1.30014
 Alpha virt. eigenvalues --    1.30811   1.32978   1.33208   1.35314   1.35873
 Alpha virt. eigenvalues --    1.37357   1.38944   1.39572   1.42233   1.42827
 Alpha virt. eigenvalues --    1.46363   1.47575   1.49345   1.52964   1.56029
 Alpha virt. eigenvalues --    1.58628   1.60903   1.64313   1.65569   1.67642
 Alpha virt. eigenvalues --    1.74121   1.77061   1.79629   1.81921   1.85549
 Alpha virt. eigenvalues --    1.88468   1.93133   1.98339   1.99676   2.00206
 Alpha virt. eigenvalues --    2.03494   2.06336   2.07700   2.14129   2.16029
 Alpha virt. eigenvalues --    2.18789   2.19995   2.24686   2.25969   2.29644
 Alpha virt. eigenvalues --    2.31321   2.34121   2.36086   2.43382   2.44290
 Alpha virt. eigenvalues --    2.45464   2.49138   2.50314   2.52753   2.58041
 Alpha virt. eigenvalues --    2.58894   2.59396   2.68101   2.69542   2.73038
 Alpha virt. eigenvalues --    2.78259   2.78897   2.80325   2.82275   2.83555
 Alpha virt. eigenvalues --    2.90269   2.97315   3.03640   3.08895   3.11599
 Alpha virt. eigenvalues --    3.13563   3.22490   3.24649   3.29391   3.45385
 Alpha virt. eigenvalues --    3.59309   3.71355   3.80404   4.05080   4.19965
 Alpha virt. eigenvalues --    4.26432   4.35397   4.40751   4.49059   4.57319
 Alpha virt. eigenvalues --    4.69166   4.86357
          Condensed to atoms (all electrons):
               1          2          3          4          5          6
     1  O    8.340494   0.154349   0.291415  -0.016882  -0.021931  -0.011293
     2  H    0.154349   0.222679  -0.006786   0.009674  -0.000579   0.005535
     3  H    0.291415  -0.006786   0.251359   0.000125   0.001795   0.000642
     4  N   -0.016882   0.009674   0.000125   7.652674  -0.194489   0.104008
     5  N   -0.021931  -0.000579   0.001795  -0.194489   7.537303   0.121783
     6  C   -0.011293   0.005535   0.000642   0.104008   0.121783   5.426443
     7  C    0.003014  -0.003179  -0.000178  -0.125772   0.153666   0.080398
     8  N   -0.000081   0.006993   0.000060  -0.212114  -0.448766   0.040189
     9  H   -0.000079  -0.000001  -0.000006   0.018096  -0.052174   0.393498
    10  H    0.000010  -0.000000  -0.000000   0.010787  -0.000307  -0.017007
    11  H    0.143134  -0.007031  -0.007549   0.028164   0.061036   0.010582
    12  C   -0.003550  -0.007952  -0.000300   0.023193   0.053614  -0.011684
    13  O   -0.037531   0.084902   0.001690  -0.002618  -0.102150   0.006268
    14  O   -0.001879   0.001686   0.000013  -0.047846   0.014816  -0.005101
               7          8          9         10         11         12
     1  O    0.003014  -0.000081  -0.000079   0.000010   0.143134  -0.003550
     2  H   -0.003179   0.006993  -0.000001  -0.000000  -0.007031  -0.007952
     3  H   -0.000178   0.000060  -0.000006  -0.000000  -0.007549  -0.000300
     4  N   -0.125772  -0.212114   0.018096   0.010787   0.028164   0.023193
     5  N    0.153666  -0.448766  -0.052174  -0.000307   0.061036   0.053614
     6  C    0.080398   0.040189   0.393498  -0.017007   0.010582  -0.011684
     7  C    5.456463   0.208464  -0.015704   0.393128  -0.006190  -0.004108
     8  N    0.208464   7.687093  -0.005052  -0.054816   0.009542  -0.029309
     9  H   -0.015704  -0.005052   0.404951   0.000281  -0.000274   0.000073
    10  H    0.393128  -0.054816   0.000281   0.423133  -0.000020   0.000443
    11  H   -0.006190   0.009542  -0.000274  -0.000020   0.235148  -0.002388
    12  C   -0.004108  -0.029309   0.000073   0.000443  -0.002388   4.345573
    13  O   -0.008592   0.030750   0.000080   0.000023   0.002124   0.340775
    14  O    0.002003  -0.052695   0.000038  -0.000086   0.000621   0.452467
              13         14
     1  O   -0.037531  -0.001879
     2  H    0.084902   0.001686
     3  H    0.001690   0.000013
     4  N   -0.002618  -0.047846
     5  N   -0.102150   0.014816
     6  C    0.006268  -0.005101
     7  C   -0.008592   0.002003
     8  N    0.030750  -0.052695
     9  H    0.000080   0.000038
    10  H    0.000023  -0.000086
    11  H    0.002124   0.000621
    12  C    0.340775   0.452467
    13  O    8.402941  -0.097199
    14  O   -0.097199   8.328345
 Mulliken charges:
               1
     1  O   -0.839191
     2  H    0.539710
     3  H    0.467719
     4  N   -0.247000
     5  N   -0.123616
     6  C   -0.144261
     7  C   -0.133414
     8  N   -0.180259
     9  H    0.256274
    10  H    0.244431
    11  H    0.533101
    12  C    0.843152
    13  O   -0.621464
    14  O   -0.595181
 Sum of Mulliken charges =  -0.00000
 Mulliken charges with hydrogens summed into heavy atoms:
               1
     1  O    0.701339
     4  N   -0.247000
     5  N   -0.123616
     6  C    0.112013
     7  C    0.111017
     8  N   -0.180259
    12  C    0.843152
    13  O   -0.621464
    14  O   -0.595181
 APT charges:
               1
     1  O   -1.088719
     2  H    0.428618
     3  H    1.008717
     4  N   -0.759747
     5  N   -0.169777
     6  C   -0.447431
     7  C   -0.429582
     8  N   -0.087100
     9  H    0.742312
    10  H    0.847756
    11  H    0.388318
    12  C    0.289749
    13  O   -0.463273
    14  O   -0.259841
 Sum of APT charges =  -0.00000
 APT charges with hydrogens summed into heavy atoms:
               1
     1  O    0.736934
     4  N   -0.759747
     5  N   -0.169777
     6  C    0.294880
     7  C    0.418174
     8  N   -0.087100
    12  C    0.289749
    13  O   -0.463273
    14  O   -0.259841
 Electronic spatial extent (au):  <R**2>=           1170.7265
 Charge=             -0.0000 electrons
 Dipole moment (field-independent basis, Debye):
    X=              3.0362    Y=            -11.0681    Z=              1.4242  Tot=             11.5651
 Quadrupole moment (field-independent basis, Debye-Ang):
   XX=            -43.8820   YY=            -57.8296   ZZ=            -51.8123
   XY=              2.4178   XZ=             -3.9726   YZ=             -4.3911
 Traceless Quadrupole moment (field-independent basis, Debye-Ang):
   XX=              7.2926   YY=             -6.6550   ZZ=             -0.6377
   XY=              2.4178   XZ=             -3.9726   YZ=             -4.3911
 Octapole moment (field-independent basis, Debye-Ang**2):
  XXX=             19.6698  YYY=            -78.8907  ZZZ=              1.6024  XYY=             -3.8483
  XXY=            -35.1162  XXZ=             10.6692  XZZ=             -8.6084  YZZ=             -2.0648
  YYZ=             11.0588  XYZ=             10.9130
 Hexadecapole moment (field-independent basis, Debye-Ang**3):
 XXXX=           -662.9133 YYYY=           -640.8264 ZZZZ=            -50.4693 XXXY=             34.7729
 XXXZ=            -26.0451 YYYX=             43.1465 YYYZ=            -32.3419 ZZZX=             -4.3870
 ZZZY=             -4.7941 XXYY=           -200.4178 XXZZ=           -143.0908 YYZZ=           -108.8293
 XXYZ=            -27.7542 YYXZ=            -29.8071 ZZXY=              9.4154
 N-N= 4.599625375660D+02 E-N=-2.105877517103D+03  KE= 5.025945770693D+02
  Exact polarizability:       0.000       0.000       0.000       0.000       0.000       0.000
 Approx polarizability:      98.959       2.247     104.063      -0.004      -0.077      50.302
 D2PCM: PCM CHGder 2nd derivatives, FixD1E=F FixD2E=F DoIter=F DoCFld=F I1PDM=0
 Calling FoFJK, ICntrl=    100127 FMM=F ISym2X=0 I1Cent= 0 IOpClX= 0 NMat=1 NMatS=1 NMatT=0.
 ***** Axes restored to original set *****
 -------------------------------------------------------------------
 Center     Atomic                   Forces (Hartrees/Bohr)
 Number     Number              X              Y              Z
 -------------------------------------------------------------------
      1        8           0.031698647   -0.049779511    0.028962804
      2        1          -0.005579381    0.021981028   -0.018299002
      3        1           0.005394461   -0.013234185   -0.002525982
      4        7          -0.004103552   -0.003495123    0.000021683
      5        7          -0.005699705    0.003005341    0.002821469
      6        6          -0.000787888    0.002634178   -0.000013337
      7        6          -0.001654929   -0.000710623   -0.000185229
      8        7          -0.001322353    0.000602395   -0.000137523
      9        1          -0.000085595    0.000068988    0.000097512
     10        1          -0.000113383    0.000213878   -0.000007556
     11        1          -0.017394589    0.015415464   -0.014087755
     12        6           0.027497690   -0.013233689    0.001454335
     13        8          -0.020088150    0.023744667    0.002779169
     14        8          -0.007761273    0.012787192   -0.000880587
 -------------------------------------------------------------------
 Cartesian Forces:  Max     0.049779511 RMS     0.014095455
 FormGI is forming the generalized inverse of G from B-inverse, IUseBI=4.

 GradGradGradGradGradGradGradGradGradGradGradGradGradGradGradGradGradGrad
 Berny optimization.
 Internal  Forces:  Max     0.042639334 RMS     0.008691712
 Search for a saddle point.
 Step number   1 out of a maximum of  100
 All quantities printed in internal units (Hartrees-Bohrs-Radians)
 Swapping is turned off.
 Second derivative matrix not updated -- analytic derivatives used.
 ITU=  0
     Eigenvalues ---   -0.05021  -0.01088   0.00082   0.00279   0.00322
     Eigenvalues ---    0.00652   0.00992   0.01492   0.02350   0.02787
     Eigenvalues ---    0.03515   0.04513   0.04930   0.06206   0.07041
     Eigenvalues ---    0.07429   0.10267   0.10444   0.10915   0.12182
     Eigenvalues ---    0.14301   0.17083   0.22990   0.23261   0.26607
     Eigenvalues ---    0.33849   0.37346   0.38621   0.39011   0.41351
     Eigenvalues ---    0.44888   0.51600   0.53202   0.59083   0.60766
     Eigenvalues ---    0.84066
 Eigenvectors required to have negative eigenvalues:
                          R4        R1        R9        R3        A22
   1                    0.59975  -0.49680  -0.42663   0.36871  -0.13043
                          A1        D4        A3        A20       R7
   1                   -0.10757   0.08458   0.07438   0.07398   0.07363
 RFO step:  Lambda0=2.950842456D-05 Lambda=-3.67619008D-02.
 Linear search not attempted -- option 19 set.
 Maximum step size (   0.300) exceeded in Quadratic search.
    -- Step size scaled by   0.281
 Iteration  1 RMS(Cart)=  0.02963990 RMS(Int)=  0.00117079
 Iteration  2 RMS(Cart)=  0.00118332 RMS(Int)=  0.00031466
 Iteration  3 RMS(Cart)=  0.00000391 RMS(Int)=  0.00031462
 Iteration  4 RMS(Cart)=  0.00000000 RMS(Int)=  0.00031462
 Variable       Old X    -DE/DX   Delta X   Delta X   Delta X     New X
                                 (Linear)    (Quad)   (Total)
    R1        2.29006  -0.04264   0.00000  -0.13746  -0.13711   2.15295
    R2        1.83927  -0.00752   0.00000  -0.00047  -0.00047   1.83880
    R3        2.24207  -0.03221   0.00000  -0.16016  -0.15993   2.08213
    R4        2.58087  -0.02107   0.00000   0.06990   0.07019   2.65106
    R5        2.51711  -0.00095   0.00000   0.00110   0.00069   2.51780
    R6        2.49233  -0.00208   0.00000   0.00350   0.00346   2.49579
    R7        2.82841  -0.00460   0.00000  -0.00475  -0.00518   2.82323
    R8        2.50383  -0.00196   0.00000  -0.00038  -0.00039   2.50344
    R9        2.66059  -0.01120   0.00000   0.15068   0.15076   2.81135
   R10        2.65091   0.00042   0.00000   0.00172   0.00180   2.65271
   R11        2.04004   0.00005   0.00000   0.00003   0.00003   2.04007
   R12        2.50950   0.00074   0.00000  -0.00143  -0.00137   2.50813
   R13        2.03876  -0.00013   0.00000   0.00015   0.00015   2.03892
   R14        2.35621   0.01547   0.00000   0.00307   0.00298   2.35920
   R15        2.31971  -0.01408   0.00000   0.00071   0.00071   2.32042
    A1        2.20849  -0.01585   0.00000  -0.07230  -0.07234   2.13615
    A2        1.40698   0.01946   0.00000   0.07276   0.07392   1.48090
    A3        2.11622  -0.01113   0.00000  -0.05432  -0.05461   2.06161
    A4        1.98046  -0.00047   0.00000   0.00393   0.00416   1.98462
    A5        2.16198  -0.00228   0.00000   0.00061  -0.00023   2.16175
    A6        2.14072   0.00275   0.00000  -0.00456  -0.00396   2.13677
    A7        1.84510   0.00251   0.00000  -0.00497  -0.00496   1.84013
    A8        2.11777  -0.00401   0.00000  -0.00347  -0.00382   2.11395
    A9        2.32029   0.00150   0.00000   0.00843   0.00878   2.32906
   A10        1.87078  -0.00246   0.00000   0.00389   0.00382   1.87460
   A11        2.12473   0.00112   0.00000  -0.00105  -0.00102   2.12371
   A12        2.28768   0.00135   0.00000  -0.00284  -0.00280   2.28487
   A13        1.89434   0.00111   0.00000  -0.00051  -0.00051   1.89384
   A14        2.26578  -0.00078   0.00000   0.00079   0.00079   2.26656
   A15        2.12306  -0.00033   0.00000  -0.00028  -0.00028   2.12278
   A16        1.83410  -0.00069   0.00000  -0.00235  -0.00251   1.83158
   A17        2.85269  -0.00479   0.00000  -0.04769  -0.04738   2.80530
   A18        1.99935   0.00055   0.00000   0.00461   0.00386   2.00321
   A19        1.99389   0.00562   0.00000   0.00216   0.00253   1.99641
   A20        2.28995  -0.00617   0.00000  -0.00677  -0.00640   2.28356
   A21        2.24441  -0.00551   0.00000   0.00656   0.00643   2.25084
   A22        2.91209  -0.00311   0.00000  -0.03240  -0.03170   2.88039
   A23        3.22971  -0.00581   0.00000  -0.02633  -0.02664   3.20307
    D1        1.99203  -0.00106   0.00000  -0.02843  -0.02819   1.96384
    D2       -0.05434   0.00175   0.00000   0.00830   0.00853  -0.04581
    D3        0.29295  -0.00481   0.00000  -0.03345  -0.03345   0.25950
    D4       -1.92828   0.00460   0.00000   0.02055   0.02053  -1.90775
    D5       -0.00113   0.00039   0.00000   0.00126   0.00112  -0.00000
    D6       -3.13483   0.00051   0.00000   0.00206   0.00176  -3.13306
    D7       -3.13624   0.00047   0.00000   0.00463   0.00449  -3.13174
    D8        0.01325   0.00059   0.00000   0.00543   0.00513   0.01838
    D9        0.00079  -0.00035   0.00000  -0.00111  -0.00099  -0.00020
   D10        3.13599  -0.00045   0.00000  -0.00442  -0.00429   3.13170
   D11        0.01104   0.00140   0.00000   0.00771   0.00718   0.01822
   D12       -3.13192   0.00072   0.00000   0.00482   0.00455  -3.12737
   D13       -3.12349   0.00150   0.00000   0.01135   0.01080  -3.11269
   D14        0.01673   0.00082   0.00000   0.00846   0.00817   0.02491
   D15        0.00096  -0.00025   0.00000  -0.00085  -0.00076   0.00020
   D16       -3.14067   0.00001   0.00000  -0.00006  -0.00007  -3.14074
   D17        3.13335  -0.00043   0.00000  -0.00188  -0.00162   3.13173
   D18       -0.00829  -0.00017   0.00000  -0.00108  -0.00092  -0.00920
   D19       -0.25204   0.00126   0.00000   0.01318   0.01309  -0.23895
   D20        2.89993   0.00143   0.00000   0.01432   0.01404   2.91397
   D21       -0.00053   0.00005   0.00000   0.00022   0.00020  -0.00033
   D22        3.14022   0.00019   0.00000   0.00015   0.00008   3.14031
   D23        3.14110  -0.00024   0.00000  -0.00068  -0.00058   3.14052
   D24       -0.00132  -0.00011   0.00000  -0.00075  -0.00070  -0.00203
   D25       -0.00013   0.00017   0.00000   0.00052   0.00045   0.00031
   D26       -3.14097   0.00005   0.00000   0.00058   0.00056  -3.14042
   D27       -0.04611   0.00142   0.00000   0.00113   0.00101  -0.04511
   D28        3.09714   0.00223   0.00000   0.00462   0.00416   3.10130
         Item               Value     Threshold  Converged?
 Maximum Force            0.042639     0.000450     NO 
 RMS     Force            0.008692     0.000300     NO 
 Maximum Displacement     0.124889     0.001800     NO 
 RMS     Displacement     0.029583     0.001200     NO 
 Predicted change in Energy=-1.164382D-02
 GradGradGradGradGradGradGradGradGradGradGradGradGradGradGradGradGradGrad

                          Input orientation:                          
 ---------------------------------------------------------------------
 Center     Atomic      Atomic             Coordinates (Angstroms)
 Number     Number       Type             X           Y           Z
 ---------------------------------------------------------------------
      1          8           0       -2.017660    1.923210   -0.081297
      2          1           0       -2.130599    0.790886   -0.025826
      3          1           0       -2.332160    2.441789   -0.842216
      4          7           0        0.396219   -0.343662    0.003292
      5          7           0        0.357627    0.988102   -0.006681
      6          6           0        1.623882    1.377446   -0.008736
      7          6           0        2.418947    0.220587    0.000174
      8          7           0        1.620327   -0.839472    0.007816
      9          1           0        1.895784    2.422178   -0.015569
     10          1           0        3.493166    0.119684    0.000507
     11          1           0       -0.937668    1.719846   -0.002153
     12          6           0       -0.819700   -1.211704   -0.003262
     13          8           0       -1.903683   -0.593453   -0.039759
     14          8           0       -0.582847   -2.416255    0.023787
 ---------------------------------------------------------------------
                    Distance matrix (angstroms):
                    1          2          3          4          5
     1  O    0.000000
     2  H    1.139294   0.000000
     3  H    0.973053   1.852728   0.000000
     4  N    3.312504   2.769992   3.989696   0.000000
     5  N    2.553817   2.496102   3.169586   1.332361   0.000000
     6  C    3.682928   3.800062   4.180644   2.114123   1.324763
     7  C    4.752794   4.585225   5.311909   2.099956   2.199584
     8  N    4.568951   4.090067   5.206859   1.320715   2.221408
     9  H    3.945673   4.344305   4.308044   3.146256   2.102994
    10  H    5.799018   5.663739   6.327462   3.131418   3.253584
    11  H    1.101818   1.512154   1.780875   2.457102   1.487702
    12  C    3.356916   2.393602   4.042201   1.493988   2.495047
    13  O    2.519586   1.402883   3.168631   2.313828   2.759698
    14  O    4.571727   3.561425   5.235518   2.292299   3.532006
                    6          7          8          9         10
     6  C    0.000000
     7  C    1.403756   0.000000
     8  N    2.216983   1.327244   0.000000
     9  H    1.079557   2.262952   3.273345   0.000000
    10  H    2.253059   1.078948   2.104177   2.802386   0.000000
    11  H    2.584342   3.676228   3.618501   2.919230   4.710926
    12  C    3.560172   3.541230   2.468282   4.536421   4.513693
    13  O    4.040931   4.398794   3.532907   4.850832   5.443911
    14  O    4.388950   3.995530   2.709331   5.436507   4.800564
                   11         12         13         14
    11  H    0.000000
    12  C    2.933923   0.000000
    13  O    2.507180   1.248433   0.000000
    14  O    4.151374   1.227915   2.251944   0.000000
 Stoichiometry    C3H5N3O3
 Framework group  C1[X(C3H5N3O3)]
 Deg. of freedom    36
 Full point group                 C1      NOp   1
 Largest Abelian subgroup         C1      NOp   1
 Largest concise Abelian subgroup C1      NOp   1
                         Standard orientation:                         
 ---------------------------------------------------------------------
 Center     Atomic      Atomic             Coordinates (Angstroms)
 Number     Number       Type             X           Y           Z
 ---------------------------------------------------------------------
      1          8           0       -2.028469   -1.914317   -0.047541
      2          1           0       -2.133414   -0.780126   -0.071807
      3          1           0       -2.363552   -2.453161    0.690157
      4          7           0        0.400047    0.338129   -0.009055
      5          7           0        0.353381   -0.993063   -0.039679
      6          6           0        1.616932   -1.390623   -0.020155
      7          6           0        2.418798   -0.239267    0.023688
      8          7           0        1.626834    0.825786    0.029316
      9          1           0        1.882438   -2.436865   -0.038229
     10          1           0        3.493313   -0.145472    0.051033
     11          1           0       -0.945754   -1.715808   -0.095765
     12          6           0       -0.810559    1.213579   -0.004550
     13          8           0       -1.898723    0.601666   -0.011403
     14          8           0       -0.566044    2.416817    0.009772
 ---------------------------------------------------------------------
 Rotational constants (GHZ):           2.1063927           1.6466350           0.9261055
 Standard basis: 6-31+G(d,p) (6D, 7F)
 There are   196 symmetry adapted cartesian basis functions of A   symmetry.
 There are   196 symmetry adapted basis functions of A   symmetry.
   196 basis functions,   323 primitive gaussians,   196 cartesian basis functions
    34 alpha electrons       34 beta electrons
       nuclear repulsion energy       460.6625748693 Hartrees.
 NAtoms=   14 NActive=   14 NUniq=   14 SFac= 1.00D+00 NAtFMM=   60 NAOKFM=F Big=F
 Integral buffers will be    131072 words long.
 Raffenetti 2 integral format.
 Two-electron integral symmetry is turned on.
 ------------------------------------------------------------------------------
 Polarizable Continuum Model (PCM)
 =================================
 Model                : PCM.
 Atomic radii         : SMD-Coulomb.
 Polarization charges : Total charges.
 Charge compensation  : None.
 Solution method      : Matrix inversion.
 Cavity type          : VdW (van der Waals Surface) (Alpha=1.000).
 Cavity algorithm     : GePol (No added spheres)
                        Default sphere list used, NSphG=   14.
                        Lebedev-Laikov grids with approx.  5.0 points / Ang**2.
                        Smoothing algorithm: York/Karplus (Gamma=1.0000).
                        Polarization charges: spherical gaussians, with
                                              point-specific exponents (IZeta= 3).
                        Self-potential: point-specific (ISelfS= 7).
                        Self-field    : sphere-specific E.n sum rule (ISelfD= 2).
 1st derivatives      : Analytical E(r).r(x)/FMM algorithm (CHGder, D1EAlg=3).
                        Cavity 1st derivative terms included.
 Solvent              : Water, Eps=  78.355300 Eps(inf)=   1.777849
 ------------------------------------------------------------------------------
 Spheres list:
 ISph  on   Nord     Re0    Alpha      Xe            Ye            Ze
    1   O      1    1.5200  1.000     -2.028469     -1.914317     -0.047541
    2   H      2    1.2000  1.000     -2.133414     -0.780126     -0.071807
    3   H      3    1.2000  1.000     -2.363552     -2.453161      0.690157
    4   N      4    1.8900  1.000      0.400047      0.338129     -0.009055
    5   N      5    1.8900  1.000      0.353381     -0.993063     -0.039679
    6   C      6    1.8500  1.000      1.616932     -1.390623     -0.020155
    7   C      7    1.8500  1.000      2.418798     -0.239267      0.023688
    8   N      8    1.8900  1.000      1.626834      0.825786      0.029316
    9   H      9    1.2000  1.000      1.882438     -2.436865     -0.038229
   10   H     10    1.2000  1.000      3.493313     -0.145472      0.051033
   11   H     11    1.2000  1.000     -0.945754     -1.715808     -0.095765
   12   C     12    1.8500  1.000     -0.810559      1.213579     -0.004550
   13   O     13    1.5200  1.000     -1.898723      0.601666     -0.011403
   14   O     14    1.5200  1.000     -0.566044      2.416817      0.009772
 ------------------------------------------------------------------------------
 ------------------------------------------------------------------------------
 Atomic radii for non-electrostatic terms: SMD-CDS.
 ------------------------------------------------------------------------------
 Nuclear repulsion after PCM non-electrostatic terms =      460.6704877778 Hartrees.
 One-electron integrals computed using PRISM.
 NBasis=   196 RedAO= T EigKep=  2.23D-05  NBF=   196
 NBsUse=   196 1.00D-06 EigRej= -1.00D+00 NBFU=   196
 Initial guess from the checkpoint file:  "/home/gau/soft/scratch/Gau-38540.chk"
 B after Tr=    -0.000000    0.000000    0.000000
         Rot=    0.999990    0.000357   -0.000126   -0.004493 Ang=   0.52 deg.
 ExpMin= 4.38D-02 ExpMax= 5.48D+03 ExpMxC= 8.25D+02 IAcc=3 IRadAn=         5 AccDes= 0.00D+00
 Harris functional with IExCor= 1009 and IRadAn=       5 diagonalized for initial guess.
 HarFok:  IExCor= 1009 AccDes= 0.00D+00 IRadAn=         5 IDoV= 1 UseB2=F ITyADJ=14
 ICtDFT=  3500011 ScaDFX=  1.000000  1.000000  1.000000  1.000000
 FoFCou: FMM=F IPFlag=           0 FMFlag=      100000 FMFlg1=           0
         NFxFlg=           0 DoJE=T BraDBF=F KetDBF=T FulRan=T
         wScrn=  0.000000 ICntrl=       500 IOpCl=  0 I1Cent=   200000004 NGrid=           0
         NMat0=    1 NMatS0=      1 NMatT0=    0 NMatD0=    1 NMtDS0=    0 NMtDT0=    0
 Petite list used in FoFCou.
 Requested convergence on RMS density matrix=1.00D-08 within 128 cycles.
 Requested convergence on MAX density matrix=1.00D-06.
 Requested convergence on             energy=1.00D-06.
 No special actions if energy rises.
 Inv3:  Mode=1 IEnd=     3851067.
 Iteration    1 A*A^-1 deviation from unit magnitude is 4.44D-15 for   1119.
 Iteration    1 A*A^-1 deviation from orthogonality  is 2.29D-15 for    766    476.
 Iteration    1 A^-1*A deviation from unit magnitude is 5.11D-15 for   1119.
 Iteration    1 A^-1*A deviation from orthogonality  is 5.26D-15 for    665    609.
 Error on total polarization charges =  0.04162
 SCF Done:  E(RM062X) =  -507.074897618     A.U. after   12 cycles
            NFock= 12  Conv=0.50D-08     -V/T= 2.0087
 SMD-CDS (non-electrostatic) energy       (kcal/mol) =       4.97
 (included in total energy above)
 D1PCM: PCM CHGder 1st derivatives, ID1Alg=3 FixD1E=F DoIter=F DoCFld=F I1PDM=0.
 Calling FoFJK, ICntrl=      2127 FMM=F ISym2X=0 I1Cent= 0 IOpClX= 0 NMat=1 NMatS=1 NMatT=0.
 ***** Axes restored to original set *****
 -------------------------------------------------------------------
 Center     Atomic                   Forces (Hartrees/Bohr)
 Number     Number              X              Y              Z
 -------------------------------------------------------------------
      1        8           0.020618275   -0.036532490    0.024683657
      2        1          -0.006024617    0.017753314   -0.015086270
      3        1           0.004547075   -0.010457562   -0.002212367
      4        7          -0.003233503   -0.002776635    0.000136326
      5        7          -0.000650312    0.000079575    0.002391297
      6        6          -0.000476406    0.001806612    0.000120861
      7        6          -0.001183800   -0.000440391   -0.000123439
      8        7          -0.000952990    0.000470970   -0.000227775
      9        1          -0.000039013    0.000046958    0.000092407
     10        1          -0.000081759    0.000147797    0.000008781
     11        1          -0.012902165    0.014672220   -0.012385305
     12        6           0.020370267   -0.009573508    0.000789670
     13        8          -0.014260505    0.015527860    0.002376922
     14        8          -0.005730546    0.009275280   -0.000564765
 -------------------------------------------------------------------
 Cartesian Forces:  Max     0.036532490 RMS     0.010607013

 GradGradGradGradGradGradGradGradGradGradGradGradGradGradGradGradGradGrad
 Berny optimization.
 FormGI is forming the generalized inverse of G from B-inverse, IUseBI=4.
 Internal  Forces:  Max     0.030602213 RMS     0.006201827
 Search for a saddle point.
 Step number   2 out of a maximum of  100
 All quantities printed in internal units (Hartrees-Bohrs-Radians)
 Swapping is turned off.
 Update second derivatives using D2CorX and points    1    2
 ITU=  0  0
     Eigenvalues ---   -0.05015  -0.00080   0.00105   0.00278   0.00327
     Eigenvalues ---    0.00653   0.00982   0.01491   0.02339   0.02785
     Eigenvalues ---    0.03525   0.04515   0.04932   0.06206   0.07049
     Eigenvalues ---    0.07454   0.10242   0.10444   0.10916   0.12182
     Eigenvalues ---    0.14306   0.18874   0.22989   0.23471   0.26608
     Eigenvalues ---    0.33848   0.37348   0.38621   0.39012   0.41350
     Eigenvalues ---    0.44888   0.51601   0.53202   0.59082   0.60768
     Eigenvalues ---    0.84068
 Eigenvectors required to have negative eigenvalues:
                          R4        R1        R9        R3        A22
   1                   -0.60787   0.50725   0.41115  -0.35622   0.13434
                          A1        D4        A20       R7        A3
   1                    0.11304  -0.08371  -0.07483  -0.07383  -0.07323
 RFO step:  Lambda0=7.212502056D-05 Lambda=-2.15198166D-02.
 Linear search not attempted -- option 19 set.
 Maximum step size (   0.300) exceeded in Quadratic search.
    -- Step size scaled by   0.291
 Iteration  1 RMS(Cart)=  0.03086716 RMS(Int)=  0.00113249
 Iteration  2 RMS(Cart)=  0.00125771 RMS(Int)=  0.00046047
 Iteration  3 RMS(Cart)=  0.00000305 RMS(Int)=  0.00046045
 Iteration  4 RMS(Cart)=  0.00000000 RMS(Int)=  0.00046045
 Variable       Old X    -DE/DX   Delta X   Delta X   Delta X     New X
                                 (Linear)    (Quad)   (Total)
    R1        2.15295  -0.03060   0.00000  -0.10492  -0.10451   2.04845
    R2        1.83880  -0.00532   0.00000   0.00133   0.00133   1.84013
    R3        2.08213  -0.02031   0.00000  -0.12835  -0.12808   1.95405
    R4        2.65106  -0.01354   0.00000   0.08222   0.08256   2.73362
    R5        2.51780  -0.00048   0.00000   0.00074   0.00028   2.51807
    R6        2.49579  -0.00148   0.00000   0.00390   0.00385   2.49964
    R7        2.82323  -0.00321   0.00000  -0.00445  -0.00493   2.81830
    R8        2.50344  -0.00136   0.00000  -0.00012  -0.00013   2.50331
    R9        2.81135  -0.00416   0.00000   0.18381   0.18388   2.99523
   R10        2.65271   0.00026   0.00000   0.00147   0.00155   2.65426
   R11        2.04007   0.00004   0.00000   0.00001   0.00001   2.04008
   R12        2.50813   0.00057   0.00000  -0.00148  -0.00142   2.50671
   R13        2.03892  -0.00010   0.00000   0.00017   0.00017   2.03909
   R14        2.35920   0.01161   0.00000   0.00117   0.00109   2.36029
   R15        2.32042  -0.01021   0.00000   0.00195   0.00195   2.32238
    A1        2.13615  -0.01323   0.00000  -0.07830  -0.07795   2.05820
    A2        1.48090   0.01594   0.00000   0.07498   0.07617   1.55707
    A3        2.06161  -0.00893   0.00000  -0.06519  -0.06619   1.99542
    A4        1.98462  -0.00050   0.00000   0.00380   0.00406   1.98868
    A5        2.16175  -0.00134   0.00000   0.00239   0.00149   2.16325
    A6        2.13677   0.00184   0.00000  -0.00621  -0.00557   2.13119
    A7        1.84013   0.00187   0.00000  -0.00514  -0.00515   1.83498
    A8        2.11395  -0.00331   0.00000   0.00181   0.00143   2.11538
    A9        2.32906   0.00144   0.00000   0.00325   0.00359   2.33265
   A10        1.87460  -0.00180   0.00000   0.00431   0.00424   1.87884
   A11        2.12371   0.00084   0.00000  -0.00112  -0.00109   2.12261
   A12        2.28487   0.00095   0.00000  -0.00318  -0.00315   2.28172
   A13        1.89384   0.00082   0.00000  -0.00090  -0.00091   1.89292
   A14        2.26656  -0.00056   0.00000   0.00131   0.00132   2.26788
   A15        2.12278  -0.00026   0.00000  -0.00041  -0.00040   2.12238
   A16        1.83158  -0.00040   0.00000  -0.00206  -0.00224   1.82934
   A17        2.80530  -0.00524   0.00000  -0.06077  -0.06051   2.74479
   A18        2.00321   0.00098   0.00000   0.00527   0.00453   2.00774
   A19        1.99641   0.00396   0.00000   0.00128   0.00165   1.99806
   A20        2.28356  -0.00494   0.00000  -0.00656  -0.00618   2.27738
   A21        2.25084  -0.00354   0.00000   0.01416   0.01413   2.26498
   A22        2.88039  -0.00324   0.00000  -0.03515  -0.03443   2.84596
   A23        3.20307  -0.00520   0.00000  -0.02216  -0.02247   3.18060
    D1        1.96384  -0.00142   0.00000  -0.03229  -0.03136   1.93248
    D2       -0.04581   0.00143   0.00000   0.01857   0.01995  -0.02586
    D3        0.25950  -0.00449   0.00000  -0.06078  -0.06055   0.19895
    D4       -1.90775   0.00383   0.00000   0.00291   0.00325  -1.90450
    D5       -0.00000   0.00029   0.00000   0.00038   0.00016   0.00016
    D6       -3.13306   0.00042   0.00000   0.00955   0.00899  -3.12407
    D7       -3.13174   0.00042   0.00000   0.00252   0.00221  -3.12953
    D8        0.01838   0.00054   0.00000   0.01169   0.01104   0.02942
    D9       -0.00020  -0.00026   0.00000  -0.00022  -0.00002  -0.00022
   D10        3.13170  -0.00040   0.00000  -0.00227  -0.00198   3.12972
   D11        0.01822   0.00116   0.00000   0.00244   0.00142   0.01964
   D12       -3.12737   0.00062   0.00000   0.00136   0.00113  -3.12624
   D13       -3.11269   0.00131   0.00000   0.00471   0.00358  -3.10911
   D14        0.02491   0.00077   0.00000   0.00362   0.00329   0.02819
   D15        0.00020  -0.00019   0.00000  -0.00037  -0.00023  -0.00003
   D16       -3.14074   0.00002   0.00000   0.00064   0.00060  -3.14014
   D17        3.13173  -0.00038   0.00000  -0.01121  -0.01070   3.12103
   D18       -0.00920  -0.00016   0.00000  -0.01020  -0.00987  -0.01907
   D19       -0.23895   0.00120   0.00000   0.03746   0.03741  -0.20154
   D20        2.91397   0.00137   0.00000   0.04969   0.04924   2.96322
   D21       -0.00033   0.00005   0.00000   0.00025   0.00024  -0.00010
   D22        3.14031   0.00015   0.00000   0.00050   0.00039   3.14070
   D23        3.14052  -0.00020   0.00000  -0.00087  -0.00070   3.13982
   D24       -0.00203  -0.00010   0.00000  -0.00063  -0.00055  -0.00257
   D25        0.00031   0.00012   0.00000  -0.00003  -0.00013   0.00018
   D26       -3.14042   0.00003   0.00000  -0.00025  -0.00027  -3.14069
   D27       -0.04511   0.00106   0.00000  -0.00685  -0.00637  -0.05148
   D28        3.10130   0.00167   0.00000  -0.00558  -0.00605   3.09525
         Item               Value     Threshold  Converged?
 Maximum Force            0.030602     0.000450     NO 
 RMS     Force            0.006202     0.000300     NO 
 Maximum Displacement     0.132311     0.001800     NO 
 RMS     Displacement     0.030544     0.001200     NO 
 Predicted change in Energy=-7.270664D-03
 GradGradGradGradGradGradGradGradGradGradGradGradGradGradGradGradGradGrad

                          Input orientation:                          
 ---------------------------------------------------------------------
 Center     Atomic      Atomic             Coordinates (Angstroms)
 Number     Number       Type             X           Y           Z
 ---------------------------------------------------------------------
      1          8           0       -2.031267    1.908796   -0.055979
      2          1           0       -2.156494    0.832364   -0.030516
      3          1           0       -2.325281    2.383369   -0.853812
      4          7           0        0.403979   -0.340438    0.002018
      5          7           0        0.368967    0.991572   -0.007982
      6          6           0        1.638171    1.370962   -0.009569
      7          6           0        2.429530    0.210578   -0.000060
      8          7           0        1.626593   -0.845272    0.007194
      9          1           0        1.917114    2.413845   -0.015759
     10          1           0        3.503330    0.104395    0.001065
     11          1           0       -1.007684    1.776949    0.008320
     12          6           0       -0.810816   -1.205532   -0.007632
     13          8           0       -1.897236   -0.590672   -0.048440
     14          8           0       -0.577269   -2.411739    0.021227
 ---------------------------------------------------------------------
                    Distance matrix (angstroms):
                    1          2          3          4          5
     1  O    0.000000
     2  H    1.083991   0.000000
     3  H    0.973757   1.764065   0.000000
     4  N    3.315545   2.816478   3.949738   0.000000
     5  N    2.569966   2.530575   3.148254   1.332507   0.000000
     6  C    3.708934   3.832755   4.176921   2.110036   1.324695
     7  C    4.773445   4.628084   5.296993   2.099161   2.203618
     8  N    4.579173   4.138555   5.175207   1.322751   2.226174
     9  H    3.980755   4.369850   4.324486   3.142605   2.102304
    10  H    5.821587   5.706535   6.316427   3.131110   3.257514
    11  H    1.034040   1.487788   1.687329   2.544830   1.585008
    12  C    3.345276   2.442210   3.986206   1.491378   2.493823
    13  O    2.503071   1.446571   3.110751   2.315330   2.764201
    14  O    4.559287   3.608439   5.178253   2.292053   3.532526
                    6          7          8          9         10
     6  C    0.000000
     7  C    1.404575   0.000000
     8  N    2.216328   1.326492   0.000000
     9  H    1.079561   2.262123   3.272121   0.000000
    10  H    2.254578   1.079038   2.103342   2.801771   0.000000
    11  H    2.676881   3.777304   3.716916   2.993437   4.811106
    12  C    3.554696   3.536279   2.463934   4.532280   4.508641
    13  O    4.043343   4.400596   3.533452   4.855663   5.445335
    14  O    4.383828   3.989717   2.703890   5.432272   4.794020
                   11         12         13         14
    11  H    0.000000
    12  C    2.989014   0.000000
    13  O    2.529853   1.249009   0.000000
    14  O    4.210764   1.228948   2.250211   0.000000
 Stoichiometry    C3H5N3O3
 Framework group  C1[X(C3H5N3O3)]
 Deg. of freedom    36
 Full point group                 C1      NOp   1
 Largest Abelian subgroup         C1      NOp   1
 Largest concise Abelian subgroup C1      NOp   1
                         Standard orientation:                         
 ---------------------------------------------------------------------
 Center     Atomic      Atomic             Coordinates (Angstroms)
 Number     Number       Type             X           Y           Z
 ---------------------------------------------------------------------
      1          8           0       -2.068867   -1.875937   -0.060771
      2          1           0       -2.174117   -0.797068   -0.061277
      3          1           0       -2.388679   -2.364976    0.718179
      4          7           0        0.407151    0.328492   -0.009142
      5          7           0        0.347962   -1.002467   -0.034062
      6          6           0        1.609796   -1.405249   -0.015160
      7          6           0        2.421931   -0.259872    0.021967
      8          7           0        1.638476    0.810535    0.024690
      9          1           0        1.869725   -2.452950   -0.029780
     10          1           0        3.497238   -0.173628    0.046450
     11          1           0       -1.041920   -1.761515   -0.099839
     12          6           0       -0.791800    1.215448   -0.003196
     13          8           0       -1.889740    0.620009   -0.001334
     14          8           0       -0.536009    2.417460    0.003880
 ---------------------------------------------------------------------
 Rotational constants (GHZ):           2.1199094           1.6350004           0.9251450
 Standard basis: 6-31+G(d,p) (6D, 7F)
 There are   196 symmetry adapted cartesian basis functions of A   symmetry.
 There are   196 symmetry adapted basis functions of A   symmetry.
   196 basis functions,   323 primitive gaussians,   196 cartesian basis functions
    34 alpha electrons       34 beta electrons
       nuclear repulsion energy       460.6162103279 Hartrees.
 NAtoms=   14 NActive=   14 NUniq=   14 SFac= 1.00D+00 NAtFMM=   60 NAOKFM=F Big=F
 Integral buffers will be    131072 words long.
 Raffenetti 2 integral format.
 Two-electron integral symmetry is turned on.
 ------------------------------------------------------------------------------
 Polarizable Continuum Model (PCM)
 =================================
 Model                : PCM.
 Atomic radii         : SMD-Coulomb.
 Polarization charges : Total charges.
 Charge compensation  : None.
 Solution method      : Matrix inversion.
 Cavity type          : VdW (van der Waals Surface) (Alpha=1.000).
 Cavity algorithm     : GePol (No added spheres)
                        Default sphere list used, NSphG=   14.
                        Lebedev-Laikov grids with approx.  5.0 points / Ang**2.
                        Smoothing algorithm: York/Karplus (Gamma=1.0000).
                        Polarization charges: spherical gaussians, with
                                              point-specific exponents (IZeta= 3).
                        Self-potential: point-specific (ISelfS= 7).
                        Self-field    : sphere-specific E.n sum rule (ISelfD= 2).
 1st derivatives      : Analytical E(r).r(x)/FMM algorithm (CHGder, D1EAlg=3).
                        Cavity 1st derivative terms included.
 Solvent              : Water, Eps=  78.355300 Eps(inf)=   1.777849
 ------------------------------------------------------------------------------
 Spheres list:
 ISph  on   Nord     Re0    Alpha      Xe            Ye            Ze
    1   O      1    1.5200  1.000     -2.068867     -1.875937     -0.060771
    2   H      2    1.2000  1.000     -2.174117     -0.797068     -0.061277
    3   H      3    1.2000  1.000     -2.388679     -2.364976      0.718179
    4   N      4    1.8900  1.000      0.407151      0.328492     -0.009142
    5   N      5    1.8900  1.000      0.347962     -1.002467     -0.034062
    6   C      6    1.8500  1.000      1.609796     -1.405249     -0.015160
    7   C      7    1.8500  1.000      2.421931     -0.259872      0.021967
    8   N      8    1.8900  1.000      1.638476      0.810535      0.024690
    9   H      9    1.2000  1.000      1.869725     -2.452950     -0.029780
   10   H     10    1.2000  1.000      3.497238     -0.173628      0.046450
   11   H     11    1.2000  1.000     -1.041920     -1.761515     -0.099839
   12   C     12    1.8500  1.000     -0.791800      1.215448     -0.003196
   13   O     13    1.5200  1.000     -1.889740      0.620009     -0.001334
   14   O     14    1.5200  1.000     -0.536009      2.417460      0.003880
 ------------------------------------------------------------------------------
 ------------------------------------------------------------------------------
 Atomic radii for non-electrostatic terms: SMD-CDS.
 ------------------------------------------------------------------------------
 Nuclear repulsion after PCM non-electrostatic terms =      460.6241055948 Hartrees.
 One-electron integrals computed using PRISM.
 NBasis=   196 RedAO= T EigKep=  2.24D-05  NBF=   196
 NBsUse=   196 1.00D-06 EigRej= -1.00D+00 NBFU=   196
 Initial guess from the checkpoint file:  "/home/gau/soft/scratch/Gau-38540.chk"
 B after Tr=     0.000000   -0.000000   -0.000000
         Rot=    0.999980    0.000377   -0.000105    0.006254 Ang=   0.72 deg.
 ExpMin= 4.38D-02 ExpMax= 5.48D+03 ExpMxC= 8.25D+02 IAcc=3 IRadAn=         5 AccDes= 0.00D+00
 Harris functional with IExCor= 1009 and IRadAn=       5 diagonalized for initial guess.
 HarFok:  IExCor= 1009 AccDes= 0.00D+00 IRadAn=         5 IDoV= 1 UseB2=F ITyADJ=14
 ICtDFT=  3500011 ScaDFX=  1.000000  1.000000  1.000000  1.000000
 FoFCou: FMM=F IPFlag=           0 FMFlag=      100000 FMFlg1=           0
         NFxFlg=           0 DoJE=T BraDBF=F KetDBF=T FulRan=T
         wScrn=  0.000000 ICntrl=       500 IOpCl=  0 I1Cent=   200000004 NGrid=           0
         NMat0=    1 NMatS0=      1 NMatT0=    0 NMatD0=    1 NMtDS0=    0 NMtDT0=    0
 Petite list used in FoFCou.
 Requested convergence on RMS density matrix=1.00D-08 within 128 cycles.
 Requested convergence on MAX density matrix=1.00D-06.
 Requested convergence on             energy=1.00D-06.
 No special actions if energy rises.
 Inv3:  Mode=1 IEnd=     3878307.
 Iteration    1 A*A^-1 deviation from unit magnitude is 3.66D-15 for   1134.
 Iteration    1 A*A^-1 deviation from orthogonality  is 1.74D-15 for   1045    269.
 Iteration    1 A^-1*A deviation from unit magnitude is 3.66D-15 for   1134.
 Iteration    1 A^-1*A deviation from orthogonality  is 2.82D-15 for    670    613.
 Error on total polarization charges =  0.04137
 SCF Done:  E(RM062X) =  -507.080870104     A.U. after   12 cycles
            NFock= 12  Conv=0.42D-08     -V/T= 2.0085
 SMD-CDS (non-electrostatic) energy       (kcal/mol) =       4.95
 (included in total energy above)
 D1PCM: PCM CHGder 1st derivatives, ID1Alg=3 FixD1E=F DoIter=F DoCFld=F I1PDM=0.
 Calling FoFJK, ICntrl=      2127 FMM=F ISym2X=0 I1Cent= 0 IOpClX= 0 NMat=1 NMatS=1 NMatT=0.
 ***** Axes restored to original set *****
 -------------------------------------------------------------------
 Center     Atomic                   Forces (Hartrees/Bohr)
 Number     Number              X              Y              Z
 -------------------------------------------------------------------
      1        8           0.002403687   -0.019210393    0.016380993
      2        1          -0.005252610    0.007982279   -0.011078899
      3        1           0.002860346   -0.007275047   -0.001037226
      4        7          -0.002465197   -0.002648186    0.000076221
      5        7           0.001607030   -0.001386429    0.001771507
      6        6          -0.000088779    0.001502011    0.000199519
      7        6          -0.000985743   -0.000185873   -0.000086477
      8        7          -0.000946903    0.000483230   -0.000200148
      9        1           0.000000111    0.000071682    0.000061845
     10        1          -0.000054325    0.000155135    0.000002282
     11        1           0.002534341    0.010312826   -0.008065431
     12        6           0.014928128   -0.007272871    0.000546375
     13        8          -0.010399707    0.010520830    0.001859869
     14        8          -0.004140379    0.006950805   -0.000430430
 -------------------------------------------------------------------
 Cartesian Forces:  Max     0.019210393 RMS     0.006336707

 GradGradGradGradGradGradGradGradGradGradGradGradGradGradGradGradGradGrad
 Berny optimization.
 FormGI is forming the generalized inverse of G from B-inverse, IUseBI=4.
 Internal  Forces:  Max     0.016097643 RMS     0.003608336
 Search for a saddle point.
 Step number   3 out of a maximum of  100
 All quantities printed in internal units (Hartrees-Bohrs-Radians)
 Swapping is turned off.
 Update second derivatives using D2CorX and points    2    3
 ITU=  0  0  0
     Eigenvalues ---   -0.04995  -0.00070   0.00275   0.00320   0.00631
     Eigenvalues ---    0.00891   0.01369   0.01491   0.02297   0.02782
     Eigenvalues ---    0.03525   0.04526   0.04964   0.06206   0.07056
     Eigenvalues ---    0.07491   0.10208   0.10443   0.10918   0.12182
     Eigenvalues ---    0.14279   0.21598   0.22985   0.24850   0.26622
     Eigenvalues ---    0.33844   0.37349   0.38621   0.39012   0.41349
     Eigenvalues ---    0.44887   0.51603   0.53201   0.59080   0.60770
     Eigenvalues ---    0.84068
 Eigenvectors required to have negative eigenvalues:
                          R4        R1        R9        R3        A22
   1                   -0.63090   0.52584   0.36714  -0.32984   0.14333
                          A1        D4        A20       R7        A3
   1                    0.12702  -0.08176  -0.07550  -0.07402  -0.06292
 RFO step:  Lambda0=2.496104027D-04 Lambda=-8.25760604D-03.
 Linear search not attempted -- option 19 set.
 Maximum step size (   0.300) exceeded in Quadratic search.
    -- Step size scaled by   0.638
 Iteration  1 RMS(Cart)=  0.04001594 RMS(Int)=  0.03673769
 Iteration  2 RMS(Cart)=  0.01763434 RMS(Int)=  0.00443824
 Iteration  3 RMS(Cart)=  0.00117591 RMS(Int)=  0.00428552
 Iteration  4 RMS(Cart)=  0.00000719 RMS(Int)=  0.00428551
 Iteration  5 RMS(Cart)=  0.00000016 RMS(Int)=  0.00428551
 Variable       Old X    -DE/DX   Delta X   Delta X   Delta X     New X
                                 (Linear)    (Quad)   (Total)
    R1        2.04845  -0.01610   0.00000  -0.02419  -0.02345   2.02500
    R2        1.84013  -0.00357   0.00000   0.00094   0.00094   1.84107
    R3        1.95405  -0.00062   0.00000   0.00278   0.00149   1.95555
    R4        2.73362  -0.00887   0.00000  -0.03412  -0.03288   2.70074
    R5        2.51807   0.00004   0.00000   0.00132   0.00002   2.51810
    R6        2.49964  -0.00124   0.00000   0.00276   0.00269   2.50232
    R7        2.81830  -0.00199   0.00000  -0.01939  -0.01893   2.79937
    R8        2.50331  -0.00090   0.00000  -0.00143  -0.00161   2.50170
    R9        2.99523  -0.00103   0.00000   0.13752   0.13598   3.13121
   R10        2.65426  -0.00008   0.00000   0.00140   0.00165   2.65591
   R11        2.04008   0.00008   0.00000   0.00013   0.00013   2.04021
   R12        2.50671   0.00058   0.00000  -0.00253  -0.00220   2.50450
   R13        2.03909  -0.00007   0.00000   0.00005   0.00005   2.03913
   R14        2.36029   0.00901   0.00000   0.01045   0.01198   2.37227
   R15        2.32238  -0.00761   0.00000  -0.00503  -0.00503   2.31734
    A1        2.05820  -0.00937   0.00000  -0.15160  -0.14895   1.90925
    A2        1.55707   0.01073   0.00000   0.07804   0.07050   1.62757
    A3        1.99542  -0.00553   0.00000  -0.13588  -0.14458   1.85084
    A4        1.98868  -0.00082   0.00000   0.00010   0.00042   1.98911
    A5        2.16325  -0.00023   0.00000   0.00792   0.00601   2.16926
    A6        2.13119   0.00105   0.00000  -0.00790  -0.00637   2.12482
    A7        1.83498   0.00167   0.00000  -0.00123  -0.00077   1.83422
    A8        2.11538  -0.00244   0.00000   0.02128   0.01694   2.13232
    A9        2.33265   0.00076   0.00000  -0.02091  -0.01790   2.31474
   A10        1.87884  -0.00149   0.00000   0.00136   0.00091   1.87976
   A11        2.12261   0.00071   0.00000  -0.00062  -0.00039   2.12222
   A12        2.28172   0.00078   0.00000  -0.00073  -0.00052   2.28120
   A13        1.89292   0.00067   0.00000   0.00007   0.00009   1.89301
   A14        2.26788  -0.00051   0.00000  -0.00024  -0.00025   2.26763
   A15        2.12238  -0.00016   0.00000   0.00017   0.00016   2.12254
   A16        1.82934  -0.00003   0.00000  -0.00029  -0.00067   1.82867
   A17        2.74479  -0.00560   0.00000  -0.11356  -0.11643   2.62836
   A18        2.00774   0.00182   0.00000   0.00698   0.00714   2.01488
   A19        1.99806   0.00227   0.00000   0.01012   0.01000   2.00806
   A20        2.27738  -0.00409   0.00000  -0.01706  -0.01725   2.26013
   A21        2.26498  -0.00134   0.00000   0.00508   0.00438   2.26935
   A22        2.84596  -0.00276   0.00000   0.01760   0.01246   2.85842
   A23        3.18060  -0.00412   0.00000  -0.05101  -0.05246   3.12814
    D1        1.93248  -0.00089   0.00000   0.00002   0.00844   1.94092
    D2       -0.02586   0.00096   0.00000   0.11618   0.13571   0.10986
    D3        0.19895  -0.00366   0.00000  -0.35309  -0.34798  -0.14903
    D4       -1.90450   0.00273   0.00000  -0.18871  -0.18616  -2.09066
    D5        0.00016   0.00021   0.00000  -0.00307  -0.00529  -0.00513
    D6       -3.12407   0.00027   0.00000   0.04055   0.03588  -3.08819
    D7       -3.12953   0.00030   0.00000  -0.01394  -0.01794   3.13571
    D8        0.02942   0.00036   0.00000   0.02968   0.02323   0.05265
    D9       -0.00022  -0.00019   0.00000   0.00251   0.00453   0.00431
   D10        3.12972  -0.00029   0.00000   0.01328   0.01692  -3.13655
   D11        0.01964   0.00087   0.00000  -0.02961  -0.03957  -0.01992
   D12       -3.12624   0.00050   0.00000  -0.01963  -0.02037   3.13657
   D13       -3.10911   0.00098   0.00000  -0.04141  -0.05322   3.12086
   D14        0.02819   0.00061   0.00000  -0.03143  -0.03402  -0.00583
   D15       -0.00003  -0.00013   0.00000   0.00227   0.00372   0.00368
   D16       -3.14014   0.00000   0.00000  -0.00026  -0.00072  -3.14086
   D17        3.12103  -0.00025   0.00000  -0.04862  -0.04310   3.07794
   D18       -0.01907  -0.00012   0.00000  -0.05116  -0.04754  -0.06661
   D19       -0.20154   0.00095   0.00000   0.29419   0.29243   0.09089
   D20        2.96322   0.00105   0.00000   0.35194   0.34610  -2.97387
   D21       -0.00010   0.00002   0.00000  -0.00088  -0.00118  -0.00128
   D22        3.14070   0.00009   0.00000  -0.00067  -0.00183   3.13886
[...]
 ! D1    D(3,1,13,12)          107.8237         -DE/DX =    0.0                 !
 ! D2    D(11,1,13,12)           1.6657         -DE/DX =    0.0                 !
 ! D3    D(2,1,11,5)           -12.4614         -DE/DX =    0.0                 !
 ! D4    D(3,1,11,5)          -125.87           -DE/DX =    0.0                 !
 ! D5    D(8,4,5,6)              0.0634         -DE/DX =    0.0                 !
 ! D6    D(8,4,5,11)           179.5598         -DE/DX =    0.0                 !
 ! D7    D(12,4,5,6)           179.703          -DE/DX =    0.0                 !
 ! D8    D(12,4,5,11)           -0.8005         -DE/DX =    0.0                 !
 ! D9    D(5,4,8,7)             -0.0444         -DE/DX =    0.0                 !
 ! D10   D(12,4,8,7)          -179.689          -DE/DX =    0.0                 !
 ! D11   D(5,4,12,13)           -0.6191         -DE/DX =    0.0                 !
 ! D12   D(5,4,12,14)          179.4569         -DE/DX =    0.0                 !
 ! D13   D(8,4,12,13)          178.9882         -DE/DX =    0.0                 !
 ! D14   D(8,4,12,14)           -0.9357         -DE/DX =    0.0                 !
 ! D15   D(4,5,6,7)             -0.0539         -DE/DX =    0.0                 !
 ! D16   D(4,5,6,9)            179.9478         -DE/DX =    0.0                 !
 ! D17   D(11,5,6,7)          -179.4712         -DE/DX =    0.0                 !
 ! D18   D(11,5,6,9)             0.5305         -DE/DX =    0.0                 !
 ! D19   D(4,5,11,1)             9.8739         -DE/DX =    0.0                 !
 ! D20   D(6,5,11,1)          -170.785          -DE/DX =    0.0                 !
 ! D21   D(5,6,7,8)              0.0296         -DE/DX =    0.0                 !
 ! D22   D(5,6,7,10)          -179.9235         -DE/DX =    0.0                 !
 ! D23   D(9,6,7,8)           -179.9723         -DE/DX =    0.0                 !
 ! D24   D(9,6,7,10)             0.0746         -DE/DX =    0.0                 !
 ! D25   D(6,7,8,4)              0.008          -DE/DX =    0.0                 !
 ! D26   D(10,7,8,4)           179.9657         -DE/DX =    0.0                 !
 ! D27   D(4,12,13,2)            2.7613         -DE/DX =    0.0                 !
 ! D28   D(14,12,13,2)        -177.3309         -DE/DX =    0.0                 !
 --------------------------------------------------------------------------------
 GradGradGradGradGradGradGradGradGradGradGradGradGradGradGradGradGradGrad


 ----------------------------------------------------------------------

 Electric dipole moment (input orientation):
 (Debye = 10**-18 statcoulomb cm , SI units = C m)
                  (au)            (Debye)         (10**-30 SI)
   Tot        0.543129D+01      0.138050D+02      0.460484D+02
   x          0.553864D+00      0.140778D+01      0.469586D+01
   y          0.533305D+01      0.135553D+02      0.452155D+02
   z         -0.866466D+00     -0.220234D+01     -0.734620D+01

 Dipole polarizability, Alpha (input orientation).
 (esu units = cm**3 , SI units = C**2 m**2 J**-1)
 Alpha(0;0):
               (au)            (10**-24 esu)      (10**-40 SI)
   iso        0.938665D+02      0.139096D+02      0.154765D+02
   aniso      0.596619D+02      0.884098D+01      0.983692D+01
   xx         0.115137D+03      0.170616D+02      0.189836D+02
   yx         0.155638D+01      0.230632D+00      0.256613D+00
   yy         0.112243D+03      0.166328D+02      0.185064D+02
   zx         0.115730D+01      0.171494D+00      0.190812D+00
   zy        -0.130409D+01     -0.193247D+00     -0.215016D+00
   zz         0.542187D+02      0.803438D+01      0.893946D+01

 ----------------------------------------------------------------------

 Dipole orientation:
     8         -4.02195826         -0.89197542          3.18871067
     1         -4.46718568         -0.55865351          1.37551499
     1         -4.77191468          0.40914338          4.25053265
     7          0.81357500          0.19291244         -0.59010914
     7          0.49775981         -0.21233399          1.87399637
     6          2.79401377         -0.15567554          2.87059189
     6          4.49634176          0.29940897          0.89014521
     7          3.19712244          0.50755841         -1.24676683
     1          3.10406266         -0.43106399          4.86803412
     1          6.52712187          0.47542858          0.92868008
     1         -2.02059475         -0.58885444          2.97650559
     6         -1.30793374          0.27311126         -2.45923421
     8         -3.44289399         -0.09668054         -1.53354975
     8         -0.63952749          0.68972299         -4.64111032

 Electric dipole moment (dipole orientation):
 (Debye = 10**-18 statcoulomb cm , SI units = C m)
                  (au)            (Debye)         (10**-30 SI)
   Tot        0.543129D+01      0.138050D+02      0.460484D+02
   x          0.000000D+00      0.000000D+00      0.000000D+00
   y          0.000000D+00      0.000000D+00      0.000000D+00
   z          0.543129D+01      0.138050D+02      0.460484D+02

 Dipole polarizability, Alpha (dipole orientation).
 (esu units = cm**3 , SI units = C**2 m**2 J**-1)
 Alpha(0;0):
               (au)            (10**-24 esu)      (10**-40 SI)
   iso        0.938665D+02      0.139096D+02      0.154765D+02
   aniso      0.596619D+02      0.884098D+01      0.983692D+01
   xx         0.114473D+03      0.169631D+02      0.188740D+02
   yx         0.458213D+01      0.679001D+00      0.755491D+00
   yy         0.556474D+02      0.824609D+01      0.917501D+01
   zx         0.241776D+01      0.358276D+00      0.398635D+00
   zy        -0.786821D+01     -0.116595D+01     -0.129729D+01
   zz         0.111479D+03      0.165195D+02      0.183805D+02

 ----------------------------------------------------------------------
 Unable to Open any file for archive entry.
 1\1\GINC-NODE01\Freq\RM062X\6-31+G(d,p)\C3H5N3O3\GAU\06-Dec-2023\0\\#N
  Geom=AllCheck Guess=TCheck SCRF=Check GenChk RM062X/6-31+G(d,p) Freq\
 \TS\\0,1\O,-1.9779272323,1.9201979958,-0.0227580257\H,-2.2940331833,0.
 9686765717,-0.0669084996\H,-2.2544703794,2.390180771,-0.8289363843\N,0
 .4036353356,-0.3610033646,-0.0065173388\N,0.3524654391,0.969925091,-0.
 0210134794\C,1.6130619901,1.3777765576,-0.0106726211\C,2.4197400788,0.
 2303558936,0.0119178445\N,1.6325850688,-0.8391838597,0.0140514935\H,1.
 8708661112,2.426045012,-0.0194736387\H,3.4948678611,0.1418824653,0.026
 7923261\H,-0.9259490851,1.6914498303,-0.0543458387\C,-0.8061502298,-1.
 2424142312,-0.0048804141\O,-1.8927354021,-0.6308886337,-0.006091963\O,
 -0.5543210426,-2.4438207091,-0.0010886708\\Version=ES64L-G16RevC.01\St
 ate=1-A\HF=-507.0832449\RMSD=3.349e-09\RMSF=1.584e-05\ZeroPoint=0.0972
 891\Thermal=0.1050209\ETot=-506.978224\HTot=-506.9772798\GTot=-507.019
 19\Dipole=0.5538642,5.3330466,-0.8664656\DipoleDeriv=-1.5263113,0.3780
 741,-0.0400576,0.4218932,-1.2414359,0.0596118,-0.0410686,0.0579863,-0.
 5485955,0.5621796,-0.0662299,-0.0335796,-0.2334805,1.3447318,-0.040814
 7,-0.0400868,-0.0350318,0.4273424,0.4498983,-0.0492686,0.0300942,-0.06
 76549,0.5135327,-0.0498807,0.0542862,-0.0606539,0.47713,-1.3969086,-1.
 15836,-0.0019639,-1.0841075,-0.5589776,-0.008681,-0.0050821,-0.007695,
 0.0681579,-0.8811997,0.6850987,-0.0214088,1.0680974,-0.1262079,0.01742
 08,-0.0383114,0.0156636,-0.2055246,-0.2448677,-0.519783,0.0028983,0.10
 64607,0.3215551,-0.0001797,-0.0028508,-0.0092293,-0.0216213,0.1633302,
 -0.0922742,0.004145,-0.5744251,-0.324074,-0.0037278,0.0109883,0.001764
 6,-0.0747889,0.2972025,0.6683395,-0.0013558,0.128472,-0.4339482,0.0057
 517,0.0071513,0.0088185,-0.2413156,0.1609372,0.020161,-0.0011627,-0.00
 73236,0.1210069,0.0011393,-0.0014381,0.0013697,0.2176428,0.0911846,0.0
 000189,-0.0015516,0.0335279,0.1425746,0.0014894,-0.002078,0.0008824,0.
 2149372,1.9665958,-0.740519,0.0712568,-0.6570712,0.6910418,0.0010755,0
 .0605109,0.0052384,0.3857127,3.6669917,0.0839022,0.00782,0.1968765,3.6
 356917,-0.0058533,-0.000649,0.0015124,0.5558766,-2.2427023,0.6786557,-
 0.0132025,0.59676,-1.6649705,0.0163967,-0.0010696,0.0174238,-0.6389495
 ,-1.06633,0.1121847,-0.0019319,0.071975,-2.4205204,0.006252,-0.0003022
 ,0.0019505,-0.6160043\Polar=115.1372464,1.5563817,112.2434757,1.157296
 2,-1.3040926,54.2187118\Quadrupole=6.0859686,-5.0887747,-0.9971938,-5.
 5011623,3.7674018,-3.7670916\PG=C01 [X(C3H5N3O3)]\NImag=1\\0.37776554,
 0.00465718,0.55364710,0.12424958,-0.18504900,0.42601391,-0.07962793,-0
 .10834448,-0.01755555,0.10017233,-0.09823445,-0.30983893,-0.00255278,0
 .13416804,0.28900999,-0.03464761,-0.03586157,-0.04233961,0.01655469,0.
 00745165,0.04439624,-0.08006185,0.04904575,-0.10858361,0.00480723,-0.0
 0118800,0.01436092,0.07747435,0.04261291,-0.13740451,0.17076492,0.0123
 6234,-0.01099236,0.03001671,-0.05921333,0.15324637,-0.12055412,0.20824
 039,-0.35459873,0.00233679,-0.00092175,0.00190646,0.11945121,-0.200927
 67,0.35103937,-0.00510151,0.00193632,-0.00007274,-0.00052317,-0.004673
 59,0.00015650,0.00014286,0.00000948,0.00006360,0.73038857,-0.00728041,
 0.00209979,-0.00060315,0.00169396,0.00003683,-0.00013959,-0.00013542,-
 0.00050473,0.00070406,0.02713670,0.70789912,-0.00013254,-0.00006108,0.
 00066682,0.00003658,0.00003903,-0.00003259,0.00016692,-0.00001519,0.00
 006105,0.00561131,-0.00584143,0.11798436,-0.06242587,0.02703808,-0.004
 75702,0.00228485,0.00589409,-0.00071692,-0.00383958,-0.00142653,0.0033
 2544,-0.10952139,-0.01537457,-0.00008518,0.71615158,0.03524076,-0.0017
 1704,0.00162740,0.00141792,-0.00078664,0.00001086,0.00072937,0.0013393
 0,-0.00118262,0.06649026,-0.28794318,0.00341370,-0.00195480,0.54438630
 ,-0.00409980,-0.00023451,0.01008432,0.00027742,0.00037828,-0.00039412,
 0.00194997,0.00006815,-0.00016443,-0.00095965,0.00207010,-0.07016924,0
 .00754064,-0.00493801,0.11808859,0.00230277,0.00140837,0.00001447,0.00
 035877,-0.00235778,0.00007981,0.00000660,0.00026686,-0.00006408,-0.076
 51566,-0.09789385,-0.00011955,-0.39179941,-0.07876681,-0.00283630,0.66
 319659,0.00925268,-0.00385136,0.00054116,-0.00109538,-0.00085962,0.000
 15111,0.00044377,0.00027044,-0.00050146,-0.03006214,-0.08013513,0.0008
 2177,-0.07750793,-0.14821174,-0.00005930,0.10592958,0.91462218,-0.0001
 0424,0.00008212,0.00009910,-0.00001094,-0.00003430,-0.00008381,0.00000
 791,-0.00002946,0.00003027,-0.00081797,-0.00026964,0.01295683,-0.00289
 465,-0.00005868,-0.07284603,0.00507431,-0.00760636,0.14258002,-0.00271
 505,0.00167491,-0.00024586,0.00064559,-0.00067737,-0.00002557,-0.00014
 081,-0.00006330,0.00020964,-0.10696936,-0.01247451,-0.00128455,-0.0707
 7425,-0.00593166,-0.00105058,-0.18954904,0.11715404,-0.00275499,0.9356
 4218,0.00285646,0.00033858,0.00004750,0.00023152,-0.00219139,0.0000890
 8,0.00012573,0.00017512,-0.00006999,-0.08453478,-0.03144391,-0.0006888
 3,0.08916109,0.03857610,0.00101776,0.06935780,-0.25171168,0.00293722,-
 0.00403450,0.61253473,0.00014200,0.00003220,-0.00052062,0.00000206,-0.
 00002047,0.00006952,-0.00012131,0.00001392,0.00002467,-0.00044663,0.00
 029955,0.01215995,-0.00211924,-0.00039886,0.01875409,-0.00216956,0.003
 47085,-0.07345373,0.01002413,-0.00524842,0.14143797,-0.00795226,0.0016
 4874,-0.00046074,0.00047372,0.00229595,-0.00014980,-0.00028948,-0.0004
 2338,0.00045249,-0.26349430,0.12630069,-0.00363418,-0.08331620,0.04826
 384,-0.00203940,0.06063010,-0.05290843,0.00105806,-0.20926357,-0.12939
 983,-0.00036315,0.54923133,0.00683193,-0.00050193,0.00033359,0.0000069
 1,-0.00224043,0.00013457,0.00021043,0.00032699,-0.00033339,0.04817673,
 -0.14452550,0.00128574,0.02167591,-0.09411738,0.00168633,0.04044636,-0
 .07924979,0.00159150,-0.13104738,-0.31214021,0.00103140,0.04607071,0.6
 1370256,0.00000812,0.00009102,-0.00063677,-0.00001535,0.00000924,-0.00
 006218,-0.00015578,-0.00002151,-0.00001485,-0.00303978,0.00246421,-0.0
 7380927,-0.00148920,0.00185617,0.02509269,-0.00001478,0.00046980,0.021
 54216,-0.00027934,0.00098869,-0.07229580,0.00485558,-0.00502351,0.1071
 9008,-0.00006246,0.00003630,-0.00000798,0.00002001,-0.00008246,0.00000
 295,-0.00000493,-0.00000809,0.00000291,-0.00730410,-0.00175864,-0.0001
 3607,-0.00254083,-0.03255241,0.00037537,-0.07406273,-0.06240680,0.0002
 7173,0.01258647,0.01342112,-0.00000977,-0.00170382,0.00599631,-0.00015
 850,0.07185121,-0.00012033,-0.00002528,-0.00000650,-0.00001835,0.00002
 265,-0.00000029,-0.00001203,0.00000032,0.00000258,0.00152265,0.0024747
 6,0.00008582,0.00019968,-0.00070517,-0.00004998,-0.07264342,-0.3615162
 2,0.00296841,-0.00820843,-0.00496798,-0.00003493,0.00066565,-0.0024411
 6,0.00010186,0.07897373,0.36708929,-0.00009389,-0.00001086,0.00025570,
 0.00000719,0.00001021,-0.00002119,0.00005809,-0.00000299,-0.00000594,-
 0.00022241,0.00002046,0.00831695,0.00002897,-0.00037669,-0.00504976,0.
 00035700,0.00308604,-0.03402168,0.00024263,0.00019659,0.00060871,-0.00
 007515,0.00016266,0.00586662,-0.00037886,-0.00305109,0.02544485,-0.000
 26763,0.00011183,-0.00002434,0.00004604,-0.00003259,-0.00000379,-0.000
 00825,-0.00001571,0.00002426,0.00072963,-0.00210299,-0.00007980,-0.000
 30172,0.00061453,-0.00009800,-0.00214881,-0.00335128,0.00000960,-0.372
 05276,0.02962809,-0.00468376,-0.01105298,0.00197995,-0.00006855,-0.000
 23737,0.00021785,0.00001390,0.38500158,0.00095040,-0.00031064,0.000066
 01,-0.00008574,-0.00023535,0.00002148,0.00004989,0.00003630,-0.0000580
 5,-0.00569075,-0.00513220,0.00009185,0.00529461,-0.00475993,0.00019402
 ,0.01999706,0.00759290,0.00016893,0.03820952,-0.06148602,0.00079579,-0
 .02897374,0.00654908,-0.00053422,-0.00063203,-0.00003691,-0.00002279,-
 0.02718020,0.05524190,0.00000819,0.00000414,-0.00007975,-0.00000081,0.
 00000241,0.00002623,-0.00001706,0.00000206,0.00000288,-0.00001105,0.00
 013374,0.00895997,-0.00014963,0.00012603,0.00615848,-0.00023196,-0.000
 14214,-0.00018864,-0.00480851,0.00069032,-0.03288527,0.00028982,-0.000
 12698,-0.00733730,0.00002255,-0.00001388,-0.00145794,0.00492060,-0.000
 66532,0.02546561,-0.14502361,0.00950093,0.00791869,-0.02199367,-0.0219
 3571,0.00395354,0.00132571,0.00596569,-0.00555925,0.00920918,0.0126848
 8,0.00011649,0.00093357,-0.02048379,0.00088071,-0.00729071,-0.00876610
 ,-0.00000993,0.00263925,-0.00483988,0.00002205,0.01297258,-0.01201240,
 0.00023279,0.00021895,-0.00021871,0.00004481,0.00044124,-0.00120790,0.
 00001601,0.14358539,0.00789847,-0.04937804,0.01016844,-0.03230540,0.00
 861850,-0.00011910,0.01258041,-0.00411911,-0.00170665,0.00797402,-0.00
 915144,0.00016563,-0.01513389,-0.02261624,0.00036715,-0.00096276,0.009
 99532,-0.00014233,-0.00357762,0.00177871,-0.00003369,-0.00577697,0.002
 41413,-0.00006567,0.00005903,-0.00002044,-0.00001260,-0.00023284,0.000
 98499,-0.00000732,0.02898062,0.06488004,0.03439911,0.00989843,-0.04447
 563,-0.00186700,-0.00260181,0.00364855,-0.02679944,0.00104743,0.001745
 12,0.00000790,0.00026025,-0.00231302,0.00080402,0.00014178,-0.02145303
 ,-0.00004766,-0.00028398,-0.00002060,0.00012165,-0.00009091,0.00179081
 ,0.00031092,-0.00026500,0.00237057,0.00001877,-0.00000781,-0.00105899,
 0.00001035,-0.00004385,0.00028917,-0.00702094,-0.00880878,0.06022638,-
 0.01051393,-0.02088068,0.00108229,-0.00887209,0.03706810,-0.00099731,-
 0.00146384,-0.00077567,-0.00107332,-0.08459662,0.00490424,-0.00043476,
 0.00277904,-0.02290709,0.00021062,0.02780275,0.00645788,0.00029403,0.0
 0461827,0.03008623,-0.00034375,-0.04956446,-0.00898810,-0.00026041,0.0
 0182618,-0.00018870,0.00001534,0.00039347,0.00029943,-0.00002343,0.017
 17653,-0.00368689,0.00059075,0.59970780,-0.00493411,0.00459444,-0.0006
 5919,0.00725080,-0.00857558,-0.00023406,0.00019388,-0.00042057,0.00094
 176,0.01199798,-0.08629331,0.00054051,-0.02850351,-0.02952867,-0.00036
 746,0.02251684,-0.00577203,0.00040839,0.01332921,0.01808508,0.00003098
 ,-0.01779724,0.01591547,-0.00058441,-0.00011691,0.00001123,0.00002184,
 0.00072762,0.00177696,0.00001623,0.00718342,-0.00714897,0.00019360,-0.
 28606867,0.83747657,0.00027633,0.00046198,0.00115148,-0.00008642,-0.00
 058760,-0.00276705,-0.00005802,-0.00023149,0.00002391,-0.00029209,0.00
 075985,-0.04481841,0.00048127,-0.00008784,-0.01370645,-0.00002001,0.00
 010970,0.00372135,-0.00021271,0.00020019,0.00485423,-0.00032999,-0.000
 59760,-0.01393492,-0.00001309,0.00001816,0.00221164,-0.00003512,-0.000
 00720,0.00203600,-0.00010011,0.00006851,-0.00019910,0.00096836,-0.0030
 0798,0.21817747,0.01125637,0.02567174,-0.00110284,-0.00000686,-0.03895
 381,0.00102881,0.00160902,0.00046797,0.00099919,-0.08625417,0.00392581
 ,-0.00015072,0.00631071,0.00903787,-0.00004893,-0.01028510,0.00059905,
 -0.00014502,-0.00642021,-0.00867850,-0.00000697,0.00558911,-0.01206254
 ,0.00029510,-0.00021647,-0.00003804,-0.00000400,-0.00040911,-0.0010577
 4,-0.00001195,-0.01026983,0.00346561,-0.00038473,-0.39439087,0.1693543
 5,-0.00023084,0.51249054,-0.00144413,-0.04827033,0.00449843,-0.0116571
 0,0.02280297,-0.00120324,-0.00235564,-0.00197326,-0.00334384,-0.010350
 50,0.01282458,-0.00017504,-0.00201392,-0.00111580,-0.00011579,0.001838
 25,0.00185472,0.00006132,-0.00175981,0.00219784,-0.00003905,-0.0018755
 5,-0.00040017,0.00006924,0.00007967,-0.00000399,-0.00000528,-0.0001326
 8,-0.00003020,-0.00002096,0.00816020,0.00055748,0.00060187,0.17417961,
 -0.18271566,0.00101040,-0.23598174,0.27678023,0.00064361,0.00267390,0.
 00492909,0.00037458,-0.00140381,-0.00575997,-0.00029219,-0.00080484,-0
 .00005732,-0.00006772,-0.00012377,0.01478374,0.00013429,-0.00015706,0.
 00081805,-0.00008209,-0.00002937,0.00011642,0.00002128,-0.00010675,-0.
 00046565,0.00008051,0.00011016,0.00438880,-0.00000101,-0.00000081,-0.0
 0026931,0.00001198,-0.00000754,-0.00078222,-0.00056444,0.00016117,-0.0
 0059053,0.00034824,0.00084971,-0.07584254,-0.00018750,-0.00150281,0.03
 073621,0.00242742,0.00649500,-0.00045435,0.00221516,-0.01129043,0.0004
 0380,0.00044296,0.00024076,0.00038523,-0.00018995,-0.03962588,0.000126
 03,-0.00394049,0.00080201,-0.00010206,-0.00264612,-0.00373894,0.000022
 10,0.00175329,-0.00338055,0.00007390,-0.00225975,-0.00728484,0.0000900
 9,-0.00037010,-0.00013155,0.00000637,-0.00013334,0.00002719,-0.0000027
 7,-0.00392458,0.00071820,-0.00014370,-0.10490222,0.10486634,-0.0003475
 7,-0.02900312,0.08331334,-0.00041954,0.14053083,0.00171263,-0.00938184
 ,0.00082317,-0.00362504,0.01522935,-0.00031762,-0.00047482,0.00001969,
 -0.00084338,-0.02993238,-0.08020569,0.00033753,-0.00734831,0.00720008,
 -0.00001673,-0.00913647,-0.00302798,-0.00007712,-0.00259310,-0.0097449
 9,0.00010073,0.01190955,-0.00329167,0.00017908,-0.00100882,0.00011890,
 -0.00001553,-0.00023160,-0.00019089,0.00000166,-0.00301125,0.00320506,
 -0.00004122,0.09050031,-0.55740496,0.00189092,0.08424994,-0.08250840,0
 .00034181,-0.13101063,0.71998335,-0.00009476,-0.00026715,-0.00054931,-
 0.00005325,0.00023170,0.00141354,0.00003240,0.00011995,0.00000754,0.00
 009072,0.00026535,0.01525286,-0.00010279,0.00002381,0.00478684,0.00006
 041,-0.00002782,-0.00043165,0.00004280,0.00003754,-0.00007889,0.000005
 02,0.00001052,0.00164017,0.00001102,-0.00001154,-0.00081965,0.00000266
 ,0.00000089,-0.00020720,0.00006957,-0.00003477,0.00004030,-0.00037666,
 0.00185008,-0.08090761,-0.00004961,0.00016476,0.02799523,0.00036247,-0
 .00236332,0.03185784\\-0.00000250,0.00003549,-0.00003135,-0.00000435,-
 0.00001054,-0.00001424,0.00002167,0.00001613,-0.00003061,-0.00000455,-
 0.00000295,0.00000892,0.00000498,-0.00000560,-0.00000470,0.00000690,-0
 .00000994,0.00000140,-0.00000244,-0.00001559,0.00001604,-0.00001062,-0
 .00000974,0.00002342,0.00001380,-0.00001228,-0.00001019,-0.00000299,-0
 .00002341,0.00002298,0.00002623,0.00000883,-0.00001999,-0.00000865,0.0
 0000414,0.00001545,-0.00001506,0.00001667,-0.00000105,-0.00002243,0.00
 000878,0.00002393\\\@
 The archive entry for this job was punched.


 CONFIDENCE IS WHAT YOU FEEL BEFORE YOU FULLY
 COMPREHEND THE SITUATION.
 Job cpu time:       0 days  0 hours 39 minutes 38.6 seconds.
 Elapsed time:       0 days  0 hours  0 minutes 50.4 seconds.
 File lengths (MBytes):  RWF=     89 Int=      0 D2E=      0 Chk=     10 Scr=      1
 Normal termination of Gaussian 16 at Wed Dec  6 12:06:06 2023.
