 Entering Gaussian System, Link 0=/home/gau/soft/g16/g16
 Initial command:
 /home/gau/soft/g16/l1.exe "/home/gau/soft/scratch/Gau-21326.inp" -scrdir="/home/gau/soft/scratch/"
 Entering Link 1 = /home/gau/soft/g16/l1.exe PID=     21327.
  
 Copyright (c) 1988-2019, Gaussian, Inc.  All Rights Reserved.
  
 This is part of the Gaussian(R) 16 program.  It is based on
 the Gaussian(R) 09 system (copyright 2009, Gaussian, Inc.),
 the Gaussian(R) 03 system (copyright 2003, Gaussian, Inc.),
 the Gaussian(R) 98 system (copyright 1998, Gaussian, Inc.),
 the Gaussian(R) 94 system (copyright 1995, Gaussian, Inc.),
 the Gaussian 92(TM) system (copyright 1992, Gaussian, Inc.),
 the Gaussian 90(TM) system (copyright 1990, Gaussian, Inc.),
 the Gaussian 88(TM) system (copyright 1988, Gaussian, Inc.),
 the Gaussian 86(TM) system (copyright 1986, Carnegie Mellon
 University), and the Gaussian 82(TM) system (copyright 1983,
 Carnegie Mellon University). Gaussian is a federally registered
 trademark of Gaussian, Inc.
  
 This software contains proprietary and confidential information,
 including trade secrets, belonging to Gaussian, Inc.
  
 This software is provided under written license and may be
 used, copied, transmitted, or stored only in accord with that
 written license.
  
 The following legend is applicable only to US Government
 contracts under FAR:
  
                    RESTRICTED RIGHTS LEGEND
  
 Use, reproduction and disclosure by the US Government is
 subject to restrictions as set forth in subparagraphs (a)
 and (c) of the Commercial Computer Software - Restricted
 Rights clause in FAR 52.227-19.
  
 Gaussian, Inc.
 340 Quinnipiac St., Bldg. 40, Wallingford CT 06492
  
  
 ---------------------------------------------------------------
 Warning -- This program may not be used in any manner that
 competes with the business of Gaussian, Inc. or will provide
 assistance to any competitor of Gaussian, Inc.  The licensee
 of this program is prohibited from giving any competitor of
 Gaussian, Inc. access to this program.  By using this program,
 the user acknowledges that Gaussian, Inc. is engaged in the
 business of creating and licensing software in the field of
 computational chemistry and represents and warrants to the
 licensee that it is not a competitor of Gaussian, Inc. and that
 it will not use this program in any manner prohibited above.
 ---------------------------------------------------------------
  

 Cite this work as:
 Gaussian 16, Revision C.01,
 M. J. Frisch, G. W. Trucks, H. B. Schlegel, G. E. Scuseria, 
 M. A. Robb, J. R. Cheeseman, G. Scalmani, V. Barone, 
 G. A. Petersson, H. Nakatsuji, X. Li, M. Caricato, A. V. Marenich, 
 J. Bloino, B. G. Janesko, R. Gomperts, B. Mennucci, H. P. Hratchian, 
 J. V. Ortiz, A. F. Izmaylov, J. L. Sonnenberg, D. Williams-Young, 
 F. Ding, F. Lipparini, F. Egidi, J. Goings, B. Peng, A. Petrone, 
 T. Henderson, D. Ranasinghe, V. G. Zakrzewski, J. Gao, N. Rega, 
 G. Zheng, W. Liang, M. Hada, M. Ehara, K. Toyota, R. Fukuda, 
 J. Hasegawa, M. Ishida, T. Nakajima, Y. Honda, O. Kitao, H. Nakai, 
 T. Vreven, K. Throssell, J. A. Montgomery, Jr., J. E. Peralta, 
 F. Ogliaro, M. J. Bearpark, J. J. Heyd, E. N. Brothers, K. N. Kudin, 
 V. N. Staroverov, T. A. Keith, R. Kobayashi, J. Normand, 
 K. Raghavachari, A. P. Rendell, J. C. Burant, S. S. Iyengar, 
 J. Tomasi, M. Cossi, J. M. Millam, M. Klene, C. Adamo, R. Cammi, 
 J. W. Ochterski, R. L. Martin, K. Morokuma, O. Farkas, 
 J. B. Foresman, and D. J. Fox, Gaussian, Inc., Wallingford CT, 2019.
 
 ******************************************
 Gaussian 16:  ES64L-G16RevC.01  3-Jul-2019
                29-Nov-2023 
 ******************************************
 %mem=10GB
 %nprocshared=48
 Will use up to   48 processors via shared memory.
 -----------------------------------------------------
 # opt freq 6-31+g(d,p) scrf=(smd,solvent=water) m062x
 -----------------------------------------------------
 1/18=20,19=15,26=3,38=1/1,3;
 2/9=110,12=2,17=6,18=5,40=1/2;
 3/5=1,6=6,7=111,11=2,25=1,30=1,70=32201,71=1,72=1,74=-55/1,2,3;
 4//1;
 5/5=2,38=5,53=1/2;
 6/7=2,8=2,9=2,10=2,28=1/1;
 7//1,2,3,16;
 1/18=20,19=15,26=3/3(2);
 2/9=110/2;
 99//99;
 2/9=110/2;
 3/5=1,6=6,7=111,11=2,25=1,30=1,70=32205,71=1,72=1,74=-55/1,2,3;
 4/5=5,16=3,69=1/1;
 5/5=2,38=5,53=1/2;
 7//1,2,3,16;
 1/18=20,19=15,26=3/3(-5);
 2/9=110/2;
 6/7=2,8=2,9=2,10=2,19=2,28=1/1;
 99/9=1/99;
 -------------------
 Title Card Required
 -------------------
 Symbolic Z-matrix:
 Charge =  0 Multiplicity = 1
 N                     0.25353  -0.37029  -0.34124 
 N                     1.11851   0.61885  -0.1312 
 C                     2.3203    0.13657   0.24325 
 C                     2.14983  -1.22968   0.24669 
 N                     0.87067  -1.4989   -0.11731 
 H                     3.15868   0.77981   0.46243 
 H                     2.85629  -2.01098   0.47857 
 C                     0.69875   2.01085  -0.24369 
 C                    -2.46136  -0.1183    0.11165 
 O                    -2.33121   0.9906    0.43904 
 O                    -2.63901  -1.22326  -0.20584 
 H                     0.26635   2.34577   0.70033 
 H                    -0.0373    2.08915  -1.04259 
 H                     1.57372   2.61326  -0.4835 
 
 Add virtual bond connecting atoms C9         and N1         Dist= 5.22D+00.

 GradGradGradGradGradGradGradGradGradGradGradGradGradGradGradGradGradGrad
 Berny optimization.
 Initialization pass.
                           ----------------------------
                           !    Initial Parameters    !
                           ! (Angstroms and Degrees)  !
 --------------------------                            --------------------------
 ! Name  Definition              Value          Derivative Info.                !
 --------------------------------------------------------------------------------
 ! R1    R(1,2)                  1.3307         estimate D2E/DX2                !
 ! R2    R(1,5)                  1.3057         estimate D2E/DX2                !
 ! R3    R(1,9)                  2.7639         estimate D2E/DX2                !
 ! R4    R(2,3)                  1.348          estimate D2E/DX2                !
 ! R5    R(2,8)                  1.4583         estimate D2E/DX2                !
 ! R6    R(3,4)                  1.3769         estimate D2E/DX2                !
 ! R7    R(3,6)                  1.0792         estimate D2E/DX2                !
 ! R8    R(4,5)                  1.3569         estimate D2E/DX2                !
 ! R9    R(4,7)                  1.0786         estimate D2E/DX2                !
 ! R10   R(8,12)                 1.091          estimate D2E/DX2                !
 ! R11   R(8,13)                 1.0891         estimate D2E/DX2                !
 ! R12   R(8,14)                 1.089          estimate D2E/DX2                !
 ! R13   R(9,10)                 1.1635         estimate D2E/DX2                !
 ! R14   R(9,11)                 1.1633         estimate D2E/DX2                !
 ! A1    A(2,1,5)              107.9515         estimate D2E/DX2                !
 ! A2    A(2,1,9)              123.0155         estimate D2E/DX2                !
 ! A3    A(5,1,9)              120.9964         estimate D2E/DX2                !
 ! A4    A(1,2,3)              110.9421         estimate D2E/DX2                !
 ! A5    A(1,2,8)              120.6816         estimate D2E/DX2                !
 ! A6    A(3,2,8)              128.2856         estimate D2E/DX2                !
 ! A7    A(2,3,4)              104.202          estimate D2E/DX2                !
 ! A8    A(2,3,6)              122.3956         estimate D2E/DX2                !
 ! A9    A(4,3,6)              133.4019         estimate D2E/DX2                !
 ! A10   A(3,4,5)              108.2349         estimate D2E/DX2                !
 ! A11   A(3,4,7)              129.6624         estimate D2E/DX2                !
 ! A12   A(5,4,7)              122.1017         estimate D2E/DX2                !
 ! A13   A(1,5,4)              108.6685         estimate D2E/DX2                !
 ! A14   A(2,8,12)             109.8991         estimate D2E/DX2                !
 ! A15   A(2,8,13)             108.6478         estimate D2E/DX2                !
 ! A16   A(2,8,14)             108.2847         estimate D2E/DX2                !
 ! A17   A(12,8,13)            110.1696         estimate D2E/DX2                !
 ! A18   A(12,8,14)            109.8255         estimate D2E/DX2                !
 ! A19   A(13,8,14)            109.9798         estimate D2E/DX2                !
 ! A20   A(1,9,10)              91.3249         estimate D2E/DX2                !
 ! A21   A(1,9,11)              91.0703         estimate D2E/DX2                !
 ! A22   L(10,9,11,1,-1)       182.3953         estimate D2E/DX2                !
 ! A23   L(10,9,11,1,-2)       179.901          estimate D2E/DX2                !
 ! D1    D(5,1,2,3)             -0.334          estimate D2E/DX2                !
 ! D2    D(5,1,2,8)           -177.1468         estimate D2E/DX2                !
 ! D3    D(9,1,2,3)            148.5482         estimate D2E/DX2                !
 ! D4    D(9,1,2,8)            -28.2645         estimate D2E/DX2                !
 ! D5    D(2,1,5,4)              0.2217         estimate D2E/DX2                !
 ! D6    D(9,1,5,4)           -149.4112         estimate D2E/DX2                !
 ! D7    D(2,1,9,10)             1.0352         estimate D2E/DX2                !
 ! D8    D(2,1,9,11)          -178.8658         estimate D2E/DX2                !
 ! D9    D(5,1,9,10)           146.0376         estimate D2E/DX2                !
 ! D10   D(5,1,9,11)           -33.8634         estimate D2E/DX2                !
 ! D11   D(1,2,3,4)              0.2999         estimate D2E/DX2                !
 ! D12   D(1,2,3,6)           -179.9063         estimate D2E/DX2                !
 ! D13   D(8,2,3,4)            176.8074         estimate D2E/DX2                !
 ! D14   D(8,2,3,6)             -3.3988         estimate D2E/DX2                !
 ! D15   D(1,2,8,12)            85.2808         estimate D2E/DX2                !
 ! D16   D(1,2,8,13)           -35.3275         estimate D2E/DX2                !
 ! D17   D(1,2,8,14)          -154.7538         estimate D2E/DX2                !
 ! D18   D(3,2,8,12)           -90.926          estimate D2E/DX2                !
 ! D19   D(3,2,8,13)           148.4656         estimate D2E/DX2                !
 ! D20   D(3,2,8,14)            29.0394         estimate D2E/DX2                !
 ! D21   D(2,3,4,5)             -0.158          estimate D2E/DX2                !
 ! D22   D(2,3,4,7)            179.4805         estimate D2E/DX2                !
 ! D23   D(6,3,4,5)           -179.9184         estimate D2E/DX2                !
 ! D24   D(6,3,4,7)             -0.2799         estimate D2E/DX2                !
 ! D25   D(3,4,5,1)             -0.0365         estimate D2E/DX2                !
 ! D26   D(7,4,5,1)           -179.708          estimate D2E/DX2                !
 --------------------------------------------------------------------------------
 Trust Radius=3.00D-01 FncErr=1.00D-07 GrdErr=1.00D-06 EigMax=2.50D+02 EigMin=1.00D-04
 Number of steps in this run=     73 maximum allowed number of steps=    100.
 GradGradGradGradGradGradGradGradGradGradGradGradGradGradGradGradGradGrad

                          Input orientation:                          
 ---------------------------------------------------------------------
 Center     Atomic      Atomic             Coordinates (Angstroms)
 Number     Number       Type             X           Y           Z
 ---------------------------------------------------------------------
      1          7           0        0.253525   -0.370290   -0.341243
      2          7           0        1.118513    0.618853   -0.131195
      3          6           0        2.320295    0.136571    0.243249
      4          6           0        2.149834   -1.229683    0.246688
      5          7           0        0.870667   -1.498896   -0.117312
      6          1           0        3.158677    0.779805    0.462429
      7          1           0        2.856293   -2.010981    0.478567
      8          6           0        0.698746    2.010854   -0.243687
      9          6           0       -2.461363   -0.118304    0.111650
     10          8           0       -2.331213    0.990599    0.439042
     11          8           0       -2.639007   -1.223262   -0.205840
     12          1           0        0.266352    2.345770    0.700333
     13          1           0       -0.037298    2.089149   -1.042593
     14          1           0        1.573718    2.613262   -0.483501
 ---------------------------------------------------------------------
                    Distance matrix (angstroms):
                    1          2          3          4          5
     1  N    0.000000
     2  N    1.330687   0.000000
     3  C    2.206825   1.347993   0.000000
     4  C    2.163379   2.150233   1.376851   0.000000
     5  N    1.305665   2.132248   2.214989   1.356923   0.000000
     6  H    3.226223   2.130860   1.079201   2.258838   3.280788
     7  H    3.184079   3.210563   2.225904   1.078554   2.135419
     8  C    2.424373   1.458261   2.525760   3.584300   3.516230
     9  C    2.763915   3.663043   4.790254   4.745159   3.613984
    10  O    3.023530   3.516244   4.733310   5.004641   4.093794
    11  O    3.018714   4.185441   5.161928   4.810179   3.521594
    12  H    2.908956   2.097584   3.050929   4.066591   3.976832
    13  H    2.573968   2.080460   3.320270   4.178569   3.815051
    14  H    3.265690   2.075813   2.686920   3.953898   4.187866
                    6          7          8          9         10
     6  H    0.000000
     7  H    2.807166   0.000000
     8  C    2.839955   4.620803   0.000000
     9  C    5.702148   5.656352   3.826992   0.000000
    10  O    5.493985   5.993435   3.269203   1.163525   0.000000
    11  O    6.170251   5.593499   4.647745   1.163310   2.326326
    12  H    3.297634   5.073288   1.091012   3.722719   2.941446
    13  H    3.767457   5.243840   1.089101   3.475804   2.943484
    14  H    2.601623   4.894302   1.089028   4.908924   4.328118
                   11         12         13         14
    11  O    0.000000
    12  H    4.690442   0.000000
    13  H    4.294312   1.787694   0.000000
    14  H    5.704653   1.783878   1.783999   0.000000
 Stoichiometry    C4H5N3O2
 Framework group  C1[X(C4H5N3O2)]
 Deg. of freedom    36
 Full point group                 C1      NOp   1
 Largest Abelian subgroup         C1      NOp   1
 Largest concise Abelian subgroup C1      NOp   1
                         Standard orientation:                         
 ---------------------------------------------------------------------
 Center     Atomic      Atomic             Coordinates (Angstroms)
 Number     Number       Type             X           Y           Z
 ---------------------------------------------------------------------
      1          7           0       -0.253525   -0.370290    0.341243
      2          7           0       -1.118513    0.618853    0.131195
      3          6           0       -2.320295    0.136571   -0.243249
      4          6           0       -2.149834   -1.229683   -0.246688
      5          7           0       -0.870667   -1.498896    0.117312
      6          1           0       -3.158677    0.779806   -0.462429
      7          1           0       -2.856293   -2.010981   -0.478567
      8          6           0       -0.698746    2.010854    0.243687
      9          6           0        2.461363   -0.118304   -0.111650
     10          8           0        2.331213    0.990599   -0.439042
     11          8           0        2.639007   -1.223262    0.205840
     12          1           0       -0.266352    2.345770   -0.700333
     13          1           0        0.037298    2.089149    1.042593
     14          1           0       -1.573718    2.613262    0.483501
 ---------------------------------------------------------------------
 Rotational constants (GHZ):           2.8542384           1.1065158           0.8243153
 Standard basis: 6-31+G(d,p) (6D, 7F)
 There are   196 symmetry adapted cartesian basis functions of A   symmetry.
 There are   196 symmetry adapted basis functions of A   symmetry.
   196 basis functions,   323 primitive gaussians,   196 cartesian basis functions
    33 alpha electrons       33 beta electrons
       nuclear repulsion energy       418.2712405803 Hartrees.
 NAtoms=   14 NActive=   14 NUniq=   14 SFac= 1.00D+00 NAtFMM=   60 NAOKFM=F Big=F
 Integral buffers will be    131072 words long.
 Raffenetti 2 integral format.
 Two-electron integral symmetry is turned on.
 ------------------------------------------------------------------------------
 Polarizable Continuum Model (PCM)
 =================================
 Model                : PCM.
 Atomic radii         : SMD-Coulomb.
 Polarization charges : Total charges.
 Charge compensation  : None.
 Solution method      : On-the-fly selection.
 Cavity type          : VdW (van der Waals Surface) (Alpha=1.000).
 Cavity algorithm     : GePol (No added spheres)
                        Default sphere list used, NSphG=   14.
                        Lebedev-Laikov grids with approx.  5.0 points / Ang**2.
                        Smoothing algorithm: York/Karplus (Gamma=1.0000).
                        Polarization charges: spherical gaussians, with
                                              point-specific exponents (IZeta= 3).
                        Self-potential: point-specific (ISelfS= 7).
                        Self-field    : sphere-specific E.n sum rule (ISelfD= 2).
 1st derivatives      : Analytical E(r).r(x)/FMM algorithm (CHGder, D1EAlg=3).
                        Cavity 1st derivative terms included.
 Solvent              : Water, Eps=  78.355300 Eps(inf)=   1.777849
 ------------------------------------------------------------------------------
 Spheres list:
 ISph  on   Nord     Re0    Alpha      Xe            Ye            Ze
    1   N      1    1.8900  1.000     -0.253525     -0.370290      0.341243
    2   N      2    1.8900  1.000     -1.118513      0.618853      0.131195
    3   C      3    1.8500  1.000     -2.320295      0.136571     -0.243249
    4   C      4    1.8500  1.000     -2.149834     -1.229683     -0.246688
    5   N      5    1.8900  1.000     -0.870667     -1.498896      0.117312
    6   H      6    1.2000  1.000     -3.158677      0.779806     -0.462429
    7   H      7    1.2000  1.000     -2.856293     -2.010981     -0.478567
    8   C      8    1.8500  1.000     -0.698746      2.010854      0.243687
    9   C      9    1.8500  1.000      2.461363     -0.118304     -0.111650
   10   O     10    1.5200  1.000      2.331213      0.990599     -0.439042
   11   O     11    1.5200  1.000      2.639007     -1.223262      0.205840
   12   H     12    1.2000  1.000     -0.266352      2.345770     -0.700333
   13   H     13    1.2000  1.000      0.037298      2.089149      1.042593
   14   H     14    1.2000  1.000     -1.573718      2.613262      0.483501
 ------------------------------------------------------------------------------
 ------------------------------------------------------------------------------
 Atomic radii for non-electrostatic terms: SMD-CDS.
 ------------------------------------------------------------------------------
 Nuclear repulsion after PCM non-electrostatic terms =      418.2813591559 Hartrees.
 One-electron integrals computed using PRISM.
 NBasis=   196 RedAO= T EigKep=  4.29D-05  NBF=   196
 NBsUse=   196 1.00D-06 EigRej= -1.00D+00 NBFU=   196
 ExpMin= 4.38D-02 ExpMax= 5.48D+03 ExpMxC= 8.25D+02 IAcc=3 IRadAn=         5 AccDes= 0.00D+00
 Harris functional with IExCor= 1009 and IRadAn=       5 diagonalized for initial guess.
 HarFok:  IExCor= 1009 AccDes= 0.00D+00 IRadAn=         5 IDoV= 1 UseB2=F ITyADJ=14
 ICtDFT=  3500011 ScaDFX=  1.000000  1.000000  1.000000  1.000000
 FoFCou: FMM=F IPFlag=           0 FMFlag=      100000 FMFlg1=           0
         NFxFlg=           0 DoJE=T BraDBF=F KetDBF=T FulRan=T
         wScrn=  0.000000 ICntrl=       500 IOpCl=  0 I1Cent=   200000004 NGrid=           0
         NMat0=    1 NMatS0=      1 NMatT0=    0 NMatD0=    1 NMtDS0=    0 NMtDT0=    0
 Petite list used in FoFCou.
 Requested convergence on RMS density matrix=1.00D-08 within 128 cycles.
 Requested convergence on MAX density matrix=1.00D-06.
 Requested convergence on             energy=1.00D-06.
 No special actions if energy rises.
 Inv3:  Mode=1 IEnd=     5195568.
 Iteration    1 A*A^-1 deviation from unit magnitude is 4.22D-15 for   1300.
 Iteration    1 A*A^-1 deviation from orthogonality  is 2.44D-15 for   1274   1012.
 Iteration    1 A^-1*A deviation from unit magnitude is 4.22D-15 for   1300.
 Iteration    1 A^-1*A deviation from orthogonality  is 1.64D-15 for   1147    869.
 Error on total polarization charges =  0.03781
 SCF Done:  E(RM062X) =  -469.966713907     A.U. after   14 cycles
            NFock= 14  Conv=0.33D-08     -V/T= 2.0084
 SMD-CDS (non-electrostatic) energy       (kcal/mol) =       6.35
 (included in total energy above)

 **********************************************************************

            Population analysis using the SCF Density.

 **********************************************************************

 Orbital symmetries:
       Occupied  (A) (A) (A) (A) (A) (A) (A) (A) (A) (A) (A) (A)
                 (A) (A) (A) (A) (A) (A) (A) (A) (A) (A) (A) (A)
                 (A) (A) (A) (A) (A) (A) (A) (A) (A)
       Virtual   (A) (A) (A) (A) (A) (A) (A) (A) (A) (A) (A) (A)
                 (A) (A) (A) (A) (A) (A) (A) (A) (A) (A) (A) (A)
                 (A) (A) (A) (A) (A) (A) (A) (A) (A) (A) (A) (A)
                 (A) (A) (A) (A) (A) (A) (A) (A) (A) (A) (A) (A)
                 (A) (A) (A) (A) (A) (A) (A) (A) (A) (A) (A) (A)
                 (A) (A) (A) (A) (A) (A) (A) (A) (A) (A) (A) (A)
                 (A) (A) (A) (A) (A) (A) (A) (A) (A) (A) (A) (A)
                 (A) (A) (A) (A) (A) (A) (A) (A) (A) (A) (A) (A)
                 (A) (A) (A) (A) (A) (A) (A) (A) (A) (A) (A) (A)
                 (A) (A) (A) (A) (A) (A) (A) (A) (A) (A) (A) (A)
                 (A) (A) (A) (A) (A) (A) (A) (A) (A) (A) (A) (A)
                 (A) (A) (A) (A) (A) (A) (A) (A) (A) (A) (A) (A)
                 (A) (A) (A) (A) (A) (A) (A) (A) (A) (A) (A) (A)
                 (A) (A) (A) (A) (A) (A) (A)
 The electronic state is 1-A.
 Alpha  occ. eigenvalues --  -19.72628 -19.72619 -14.86347 -14.82940 -14.79506
 Alpha  occ. eigenvalues --  -10.75066 -10.59231 -10.58510 -10.57359  -1.28795
 Alpha  occ. eigenvalues --   -1.23826  -1.22773  -1.02794  -0.90975  -0.82931
 Alpha  occ. eigenvalues --   -0.71785  -0.67253  -0.65778  -0.61257  -0.60586
 Alpha  occ. eigenvalues --   -0.59765  -0.59638  -0.57313  -0.52462  -0.50392
 Alpha  occ. eigenvalues --   -0.48222  -0.47324  -0.44120  -0.44069  -0.41300
 Alpha  occ. eigenvalues --   -0.35598  -0.35310  -0.32159
 Alpha virt. eigenvalues --    0.01302   0.02212   0.03275   0.03572   0.05328
 Alpha virt. eigenvalues --    0.05613   0.05740   0.06394   0.06736   0.07229
 Alpha virt. eigenvalues --    0.08253   0.08802   0.09215   0.09709   0.10339
 Alpha virt. eigenvalues --    0.11021   0.12564   0.13587   0.14855   0.16243
 Alpha virt. eigenvalues --    0.17492   0.17727   0.18423   0.19771   0.20990
 Alpha virt. eigenvalues --    0.22102   0.22715   0.23178   0.24067   0.24874
 Alpha virt. eigenvalues --    0.25575   0.26575   0.26640   0.26940   0.28239
 Alpha virt. eigenvalues --    0.28994   0.29361   0.30368   0.30899   0.31708
 Alpha virt. eigenvalues --    0.32599   0.33341   0.34080   0.34841   0.36700
 Alpha virt. eigenvalues --    0.37989   0.40399   0.42746   0.44022   0.44886
 Alpha virt. eigenvalues --    0.51979   0.56307   0.68851   0.71160   0.73359
 Alpha virt. eigenvalues --    0.73665   0.76091   0.77569   0.77852   0.79389
 Alpha virt. eigenvalues --    0.83401   0.89123   0.90047   0.93203   0.94424
 Alpha virt. eigenvalues --    0.96309   0.97085   0.98249   0.98806   0.99919
 Alpha virt. eigenvalues --    1.01713   1.03780   1.05122   1.07870   1.09124
 Alpha virt. eigenvalues --    1.09743   1.15983   1.16524   1.17561   1.19697
 Alpha virt. eigenvalues --    1.22003   1.24703   1.27109   1.29980   1.30986
 Alpha virt. eigenvalues --    1.32195   1.36070   1.37139   1.37882   1.38969
 Alpha virt. eigenvalues --    1.39178   1.40552   1.48294   1.48888   1.49511
 Alpha virt. eigenvalues --    1.50029   1.52868   1.55447   1.56113   1.59549
 Alpha virt. eigenvalues --    1.64326   1.65225   1.78748   1.80063   1.81746
 Alpha virt. eigenvalues --    1.83123   1.88855   1.94480   1.96729   2.01268
 Alpha virt. eigenvalues --    2.06856   2.08454   2.08608   2.09236   2.09850
 Alpha virt. eigenvalues --    2.14908   2.15724   2.18326   2.19678   2.20482
 Alpha virt. eigenvalues --    2.22171   2.24374   2.27033   2.29137   2.34858
 Alpha virt. eigenvalues --    2.38585   2.41087   2.43570   2.46916   2.53445
 Alpha virt. eigenvalues --    2.58243   2.62940   2.63991   2.66837   2.72776
 Alpha virt. eigenvalues --    2.74364   2.78357   2.81412   2.86609   2.89650
 Alpha virt. eigenvalues --    2.92066   2.94870   3.03347   3.03907   3.06698
 Alpha virt. eigenvalues --    3.08444   3.21351   3.26274   3.34220   3.35496
 Alpha virt. eigenvalues --    3.37634   3.44355   3.46965   3.75183   4.01295
 Alpha virt. eigenvalues --    4.13380   4.22276   4.28271   4.46379   4.57579
 Alpha virt. eigenvalues --    4.65370   4.71645   4.90011
          Condensed to atoms (all electrons):
               1          2          3          4          5          6
     1  N    7.065875  -0.038806  -0.016181   0.002288   0.171144   0.013390
     2  N   -0.038806   6.866080   0.247709  -0.089240   0.053260  -0.044302
     3  C   -0.016181   0.247709   5.378014   0.302800  -0.085413   0.384888
     4  C    0.002288  -0.089240   0.302800   5.317115   0.333711  -0.005750
     5  N    0.171144   0.053260  -0.085413   0.333711   6.820306  -0.003446
     6  H    0.013390  -0.044302   0.384888  -0.005750  -0.003446   0.409584
     7  H    0.019918  -0.010488  -0.019446   0.391317  -0.050238   0.000527
     8  C   -0.038103   0.144559  -0.088436  -0.013081   0.029790  -0.006490
     9  C   -0.007292   0.004107  -0.002058  -0.002879   0.001427   0.000145
    10  O    0.014410  -0.013591  -0.004297   0.003115  -0.008793  -0.000003
    11  O   -0.009420   0.006872   0.000648  -0.001913  -0.001868   0.000000
    12  H   -0.024016  -0.013409  -0.001912   0.000298   0.001683   0.000031
    13  H    0.030805  -0.063764   0.008619  -0.003977   0.002288   0.000046
    14  H    0.001918  -0.042760  -0.013483   0.003485  -0.001692  -0.000317
               7          8          9         10         11         12
     1  N    0.019918  -0.038103  -0.007292   0.014410  -0.009420  -0.024016
     2  N   -0.010488   0.144559   0.004107  -0.013591   0.006872  -0.013409
     3  C   -0.019446  -0.088436  -0.002058  -0.004297   0.000648  -0.001912
     4  C    0.391317  -0.013081  -0.002879   0.003115  -0.001913   0.000298
     5  N   -0.050238   0.029790   0.001427  -0.008793  -0.001868   0.001683
     6  H    0.000527  -0.006490   0.000145  -0.000003   0.000000   0.000031
     7  H    0.451122  -0.001201   0.000144  -0.000001   0.000003   0.000001
     8  C   -0.001201   5.113428  -0.004665   0.006651  -0.000128   0.400647
     9  C    0.000144  -0.004665   4.347008   0.411906   0.434737  -0.000043
    10  O   -0.000001   0.006651   0.411906   8.105307  -0.107975  -0.000825
    11  O    0.000003  -0.000128   0.434737  -0.107975   8.071174   0.000007
    12  H    0.000001   0.400647  -0.000043  -0.000825   0.000007   0.466257
    13  H    0.000002   0.394210  -0.000848  -0.000865   0.000278  -0.024842
    14  H   -0.000006   0.415725  -0.000289   0.000290  -0.000019  -0.022935
              13         14
     1  N    0.030805   0.001918
     2  N   -0.063764  -0.042760
     3  C    0.008619  -0.013483
     4  C   -0.003977   0.003485
     5  N    0.002288  -0.001692
     6  H    0.000046  -0.000317
     7  H    0.000002  -0.000006
     8  C    0.394210   0.415725
     9  C   -0.000848  -0.000289
    10  O   -0.000865   0.000290
    11  O    0.000278  -0.000019
    12  H   -0.024842  -0.022935
    13  H    0.464009  -0.019383
    14  H   -0.019383   0.466899
 Mulliken charges:
               1
     1  N   -0.185931
     2  N   -0.006227
     3  C   -0.091452
     4  C   -0.237290
     5  N   -0.262160
     6  H    0.251697
     7  H    0.218349
     8  C   -0.352907
     9  C    0.818600
    10  O   -0.405332
    11  O   -0.392395
    12  H    0.219059
    13  H    0.213421
    14  H    0.212567
 Sum of Mulliken charges =  -0.00000
 Mulliken charges with hydrogens summed into heavy atoms:
               1
     1  N   -0.185931
     2  N   -0.006227
     3  C    0.160245
     4  C   -0.018941
     5  N   -0.262160
     8  C    0.292140
     9  C    0.818600
    10  O   -0.405332
    11  O   -0.392395
 Electronic spatial extent (au):  <R**2>=           1300.9279
 Charge=             -0.0000 electrons
 Dipole moment (field-independent basis, Debye):
    X=             -4.1111    Y=              5.6411    Z=             -0.9348  Tot=              7.0425
 Quadrupole moment (field-independent basis, Debye-Ang):
   XX=            -40.9601   YY=            -52.1877   ZZ=            -51.9532
   XY=             -1.6939   XZ=              1.6361   YZ=              3.2377
 Traceless Quadrupole moment (field-independent basis, Debye-Ang):
   XX=              7.4069   YY=             -3.8207   ZZ=             -3.5862
   XY=             -1.6939   XZ=              1.6361   YZ=              3.2377
 Octapole moment (field-independent basis, Debye-Ang**2):
  XXX=            -16.7071  YYY=             28.1415  ZZZ=             -0.1398  XYY=            -16.7683
  XXY=              6.0764  XXZ=             -7.5505  XZZ=              8.4147  YZZ=              3.8148
  YYZ=             -1.3193  XYZ=              1.4673
 Hexadecapole moment (field-independent basis, Debye-Ang**3):
 XXXX=           -982.2120 YYYY=           -476.2904 ZZZZ=            -80.4911 XXXY=              4.9441
 XXXZ=             18.1487 YYYX=             -7.2405 YYYZ=              9.1979 ZZZX=             -3.9178
 ZZZY=             -0.6295 XXYY=           -257.0517 XXZZ=           -199.0493 YYZZ=            -93.3853
 XXYZ=             14.0257 YYXZ=              4.1434 ZZXY=             -4.1032
 N-N= 4.182813591559D+02 E-N=-1.933595624069D+03  KE= 4.660536020435D+02
 D1PCM: PCM CHGder 1st derivatives, ID1Alg=3 FixD1E=F DoIter=F DoCFld=F I1PDM=0.
 Calling FoFJK, ICntrl=      2127 FMM=F ISym2X=0 I1Cent= 0 IOpClX= 0 NMat=1 NMatS=1 NMatT=0.
 ***** Axes restored to original set *****
 -------------------------------------------------------------------
 Center     Atomic                   Forces (Hartrees/Bohr)
 Number     Number              X              Y              Z
 -------------------------------------------------------------------
      1        7          -0.000037675    0.000104965   -0.000180352
      2        7          -0.000693460    0.000887116    0.000328084
      3        6           0.000186892   -0.000273556   -0.000072262
      4        6           0.000224138   -0.000033968    0.000010537
      5        7          -0.000008936    0.000238186   -0.000015817
      6        1          -0.000046044   -0.000024925   -0.000042236
      7        1           0.000034038   -0.000024255    0.000030516
      8        6           0.000382711   -0.000398887    0.000161923
      9        6          -0.000058607    0.000001664   -0.000003586
     10        8           0.000057718    0.000023868   -0.000000273
     11        8           0.000029380   -0.000077644   -0.000011784
     12        1          -0.000101857   -0.000150643   -0.000116944
     13        1           0.000065630   -0.000195561    0.000043128
     14        1          -0.000033929   -0.000076359   -0.000130935
 -------------------------------------------------------------------
 Cartesian Forces:  Max     0.000887116 RMS     0.000224281

 GradGradGradGradGradGradGradGradGradGradGradGradGradGradGradGradGradGrad
 Berny optimization.
 FormGI is forming the generalized inverse of G from B-inverse, IUseBI=4.
 Internal  Forces:  Max     0.000878181 RMS     0.000144836
 Search for a local minimum.
 Step number   1 out of a maximum of   73
 All quantities printed in internal units (Hartrees-Bohrs-Radians)
 Mixed Optimization -- En-DIIS/RFO-DIIS
 Second derivative matrix not updated -- first step.
 ITU=  0
     Eigenvalues ---    0.00230   0.00921   0.01690   0.02304   0.02345
     Eigenvalues ---    0.02387   0.02389   0.02406   0.02447   0.02526
     Eigenvalues ---    0.07637   0.07809   0.11548   0.16000   0.16000
     Eigenvalues ---    0.16000   0.16000   0.16000   0.21626   0.22737
     Eigenvalues ---    0.24012   0.24943   0.25000   0.34696   0.34917
     Eigenvalues ---    0.34925   0.36091   0.36170   0.37183   0.45358
     Eigenvalues ---    0.48630   0.54193   0.57069   0.63051   1.25514
     Eigenvalues ---    1.25652
 RFO step:  Lambda=-7.83738593D-06 EMin= 2.30000000D-03
 Linear search not attempted -- first point.
 Iteration  1 RMS(Cart)=  0.00177383 RMS(Int)=  0.00000307
 Iteration  2 RMS(Cart)=  0.00000452 RMS(Int)=  0.00000150
 Iteration  3 RMS(Cart)=  0.00000000 RMS(Int)=  0.00000150
 Variable       Old X    -DE/DX   Delta X   Delta X   Delta X     New X
                                 (Linear)    (Quad)   (Total)
    R1        2.51463  -0.00014   0.00000  -0.00024  -0.00024   2.51440
    R2        2.46735  -0.00003   0.00000  -0.00005  -0.00005   2.46730
    R3        5.22304  -0.00003   0.00000  -0.00112  -0.00112   5.22193
    R4        2.54734   0.00031   0.00000   0.00056   0.00056   2.54789
    R5        2.75571  -0.00088   0.00000  -0.00236  -0.00236   2.75335
    R6        2.60187  -0.00011   0.00000  -0.00020  -0.00020   2.60167
    R7        2.03939  -0.00006   0.00000  -0.00017  -0.00017   2.03922
    R8        2.56421   0.00007   0.00000   0.00014   0.00013   2.56435
    R9        2.03817   0.00005   0.00000   0.00013   0.00013   2.03830
   R10        2.06171  -0.00011   0.00000  -0.00032  -0.00032   2.06140
   R11        2.05810  -0.00009   0.00000  -0.00027  -0.00027   2.05784
   R12        2.05796  -0.00004   0.00000  -0.00011  -0.00011   2.05786
   R13        2.19874   0.00004   0.00000   0.00003   0.00003   2.19877
   R14        2.19834   0.00006   0.00000   0.00005   0.00005   2.19839
    A1        1.88411  -0.00007   0.00000  -0.00042  -0.00042   1.88369
    A2        2.14703   0.00005   0.00000   0.00015   0.00015   2.14717
    A3        2.11179   0.00002   0.00000   0.00000   0.00000   2.11179
    A4        1.93630  -0.00003   0.00000  -0.00003  -0.00003   1.93628
    A5        2.10629  -0.00012   0.00000  -0.00036  -0.00037   2.10592
    A6        2.23901   0.00016   0.00000   0.00073   0.00072   2.23973
    A7        1.81867   0.00007   0.00000   0.00037   0.00037   1.81904
    A8        2.13621  -0.00004   0.00000  -0.00023  -0.00023   2.13597
    A9        2.32830  -0.00003   0.00000  -0.00014  -0.00014   2.32817
   A10        1.88906  -0.00017   0.00000  -0.00071  -0.00071   1.88835
   A11        2.26304   0.00008   0.00000   0.00033   0.00033   2.26337
   A12        2.13108   0.00009   0.00000   0.00037   0.00037   2.13145
   A13        1.89662   0.00020   0.00000   0.00081   0.00080   1.89743
   A14        1.91810  -0.00003   0.00000   0.00000   0.00000   1.91810
   A15        1.89626  -0.00032   0.00000  -0.00247  -0.00247   1.89379
   A16        1.88992   0.00002   0.00000   0.00043   0.00043   1.89036
   A17        1.92282   0.00007   0.00000  -0.00012  -0.00012   1.92270
   A18        1.91682   0.00018   0.00000   0.00207   0.00207   1.91889
   A19        1.91951   0.00007   0.00000   0.00005   0.00005   1.91955
   A20        1.59392  -0.00006   0.00000  -0.00039  -0.00039   1.59353
   A21        1.58948  -0.00001   0.00000  -0.00018  -0.00018   1.58930
   A22        3.18340  -0.00007   0.00000  -0.00057  -0.00057   3.18283
   A23        3.13986  -0.00001   0.00000  -0.00033  -0.00033   3.13953
    D1       -0.00583   0.00004   0.00000   0.00265   0.00265  -0.00318
    D2       -3.09179  -0.00007   0.00000  -0.00333  -0.00333  -3.09513
    D3        2.59266   0.00004   0.00000   0.00215   0.00215   2.59480
    D4       -0.49331  -0.00007   0.00000  -0.00384  -0.00384  -0.49714
    D5        0.00387  -0.00002   0.00000  -0.00160  -0.00160   0.00227
    D6       -2.60772  -0.00004   0.00000  -0.00117  -0.00117  -2.60889
    D7        0.01807   0.00002   0.00000   0.00385   0.00385   0.02191
    D8       -3.12180   0.00003   0.00000   0.00418   0.00418  -3.11762
    D9        2.54884  -0.00001   0.00000   0.00317   0.00317   2.55200
   D10       -0.59103  -0.00000   0.00000   0.00350   0.00350  -0.58753
   D11        0.00523  -0.00004   0.00000  -0.00252  -0.00253   0.00271
   D12       -3.13996  -0.00005   0.00000  -0.00275  -0.00275   3.14048
   D13        3.08587   0.00007   0.00000   0.00399   0.00399   3.08986
   D14       -0.05932   0.00006   0.00000   0.00376   0.00376  -0.05556
   D15        1.48843  -0.00006   0.00000   0.00167   0.00167   1.49010
   D16       -0.61658   0.00007   0.00000   0.00335   0.00335  -0.61324
   D17       -2.70096   0.00016   0.00000   0.00445   0.00445  -2.69651
   D18       -1.58696  -0.00018   0.00000  -0.00542  -0.00542  -1.59238
   D19        2.59121  -0.00005   0.00000  -0.00374  -0.00374   2.58747
   D20        0.50683   0.00004   0.00000  -0.00263  -0.00263   0.50420
   D21       -0.00276   0.00002   0.00000   0.00149   0.00149  -0.00127
   D22        3.13252   0.00001   0.00000   0.00080   0.00080   3.13333
   D23       -3.14017   0.00003   0.00000   0.00175   0.00175  -3.13842
   D24       -0.00489   0.00002   0.00000   0.00106   0.00106  -0.00382
   D25       -0.00064   0.00000   0.00000   0.00004   0.00004  -0.00060
   D26       -3.13650   0.00001   0.00000   0.00066   0.00066  -3.13583
         Item               Value     Threshold  Converged?
 Maximum Force            0.000878     0.000450     NO 
 RMS     Force            0.000145     0.000300     YES
 Maximum Displacement     0.006873     0.001800     NO 
 RMS     Displacement     0.001775     0.001200     NO 
 Predicted change in Energy=-3.919058D-06
 GradGradGradGradGradGradGradGradGradGradGradGradGradGradGradGradGradGrad

                          Input orientation:                          
 ---------------------------------------------------------------------
 Center     Atomic      Atomic             Coordinates (Angstroms)
 Number     Number       Type             X           Y           Z
 ---------------------------------------------------------------------
      1          7           0        0.253065   -0.368756   -0.340480
      2          7           0        1.117834    0.619872   -0.127921
      3          6           0        2.320401    0.136590    0.243764
      4          6           0        2.149924   -1.229556    0.246058
      5          7           0        0.870356   -1.497489   -0.117743
      6          1           0        3.159284    0.779388    0.461851
      7          1           0        2.856412   -2.011393    0.476345
      8          6           0        0.699157    2.010719   -0.242537
      9          6           0       -2.461576   -0.118146    0.111056
     10          8           0       -2.331939    0.991407    0.436499
     11          8           0       -2.638017   -1.223950   -0.204252
     12          1           0        0.265194    2.346724    0.700182
     13          1           0       -0.036338    2.085512   -1.042092
     14          1           0        1.573982    2.612524   -0.484143
 ---------------------------------------------------------------------
                    Distance matrix (angstroms):
                    1          2          3          4          5
     1  N    0.000000
     2  N    1.330561   0.000000
     3  C    2.206943   1.348287   0.000000
     4  C    2.164042   2.150687   1.376744   0.000000
     5  N    1.305641   2.131799   2.214392   1.356994   0.000000
     6  H    3.226156   2.130914   1.079108   2.258590   3.280135
     7  H    3.184788   3.211128   2.226035   1.078622   2.135756
     8  C    2.422911   1.457011   2.525327   3.583690   3.514599
     9  C    2.763324   3.662507   4.790595   4.745460   3.613407
    10  O    3.022579   3.515329   4.734145   5.005601   4.093468
    11  O    3.017990   4.184725   5.161172   4.809074   3.520084
    12  H    2.908085   2.096370   3.052357   4.067949   3.976581
    13  H    2.568939   2.077479   3.317520   4.174775   3.809778
    14  H    3.263969   2.075000   2.686492   3.953035   4.185875
                    6          7          8          9         10
     6  H    0.000000
     7  H    2.807204   0.000000
     8  C    2.839817   4.620381   0.000000
     9  C    5.702867   5.656749   3.827183   0.000000
    10  O    5.495373   5.994779   3.269194   1.163541   0.000000
    11  O    6.169745   5.592140   4.647718   1.163336   2.326382
    12  H    3.299863   5.075204   1.090844   3.722624   2.941346
    13  H    3.765608   5.240065   1.088961   3.473850   2.941611
    14  H    2.601630   4.893646   1.088972   4.908823   4.328027
                   11         12         13         14
    11  O    0.000000
    12  H    4.690027   0.000000
    13  H    4.292231   1.787364   0.000000
    14  H    5.704192   1.784993   1.783866   0.000000
 Stoichiometry    C4H5N3O2
 Framework group  C1[X(C4H5N3O2)]
 Deg. of freedom    36
 Full point group                 C1      NOp   1
 Largest Abelian subgroup         C1      NOp   1
 Largest concise Abelian subgroup C1      NOp   1
                         Standard orientation:                         
 ---------------------------------------------------------------------
 Center     Atomic      Atomic             Coordinates (Angstroms)
 Number     Number       Type             X           Y           Z
 ---------------------------------------------------------------------
      1          7           0       -0.253125   -0.369151    0.340740
      2          7           0       -1.117931    0.619445    0.128181
      3          6           0       -2.320480    0.136118   -0.243504
      4          6           0       -2.149952   -1.230022   -0.245798
      5          7           0       -0.870374   -1.497907    0.118003
      6          1           0       -3.159387    0.778883   -0.461592
      7          1           0       -2.856410   -2.011886   -0.476085
      8          6           0       -0.699307    2.010307    0.242797
      9          6           0        2.461506   -0.118439   -0.110796
     10          8           0        2.331828    0.991109   -0.436239
     11          8           0        2.637989   -1.224236    0.204512
     12          1           0       -0.265357    2.346329   -0.699922
     13          1           0        0.036186    2.085128    1.042352
     14          1           0       -1.574154    2.612079    0.484403
 ---------------------------------------------------------------------
 Rotational constants (GHZ):           2.8558342           1.1067693           0.8243863
 Standard basis: 6-31+G(d,p) (6D, 7F)
 There are   196 symmetry adapted cartesian basis functions of A   symmetry.
 There are   196 symmetry adapted basis functions of A   symmetry.
   196 basis functions,   323 primitive gaussians,   196 cartesian basis functions
    33 alpha electrons       33 beta electrons
       nuclear repulsion energy       418.3214717922 Hartrees.
 NAtoms=   14 NActive=   14 NUniq=   14 SFac= 1.00D+00 NAtFMM=   60 NAOKFM=F Big=F
 Integral buffers will be    131072 words long.
 Raffenetti 2 integral format.
 Two-electron integral symmetry is turned on.
 ------------------------------------------------------------------------------
 Polarizable Continuum Model (PCM)
 =================================
 Model                : PCM.
 Atomic radii         : SMD-Coulomb.
 Polarization charges : Total charges.
 Charge compensation  : None.
 Solution method      : On-the-fly selection.
 Cavity type          : VdW (van der Waals Surface) (Alpha=1.000).
 Cavity algorithm     : GePol (No added spheres)
                        Default sphere list used, NSphG=   14.
                        Lebedev-Laikov grids with approx.  5.0 points / Ang**2.
                        Smoothing algorithm: York/Karplus (Gamma=1.0000).
                        Polarization charges: spherical gaussians, with
                                              point-specific exponents (IZeta= 3).
                        Self-potential: point-specific (ISelfS= 7).
                        Self-field    : sphere-specific E.n sum rule (ISelfD= 2).
 1st derivatives      : Analytical E(r).r(x)/FMM algorithm (CHGder, D1EAlg=3).
                        Cavity 1st derivative terms included.
 Solvent              : Water, Eps=  78.355300 Eps(inf)=   1.777849
 ------------------------------------------------------------------------------
 Spheres list:
 ISph  on   Nord     Re0    Alpha      Xe            Ye            Ze
    1   N      1    1.8900  1.000     -0.253125     -0.369151      0.340740
    2   N      2    1.8900  1.000     -1.117931      0.619445      0.128181
    3   C      3    1.8500  1.000     -2.320480      0.136118     -0.243504
    4   C      4    1.8500  1.000     -2.149952     -1.230022     -0.245798
    5   N      5    1.8900  1.000     -0.870374     -1.497907      0.118003
    6   H      6    1.2000  1.000     -3.159387      0.778883     -0.461592
    7   H      7    1.2000  1.000     -2.856410     -2.011886     -0.476085
    8   C      8    1.8500  1.000     -0.699307      2.010307      0.242797
    9   C      9    1.8500  1.000      2.461506     -0.118439     -0.110796
   10   O     10    1.5200  1.000      2.331828      0.991109     -0.436239
   11   O     11    1.5200  1.000      2.637989     -1.224236      0.204512
   12   H     12    1.2000  1.000     -0.265357      2.346329     -0.699922
   13   H     13    1.2000  1.000      0.036186      2.085128      1.042352
   14   H     14    1.2000  1.000     -1.574154      2.612079      0.484403
 ------------------------------------------------------------------------------
 ------------------------------------------------------------------------------
 Atomic radii for non-electrostatic terms: SMD-CDS.
 ------------------------------------------------------------------------------
 Nuclear repulsion after PCM non-electrostatic terms =      418.3315952421 Hartrees.
 One-electron integrals computed using PRISM.
 NBasis=   196 RedAO= T EigKep=  4.28D-05  NBF=   196
 NBsUse=   196 1.00D-06 EigRej= -1.00D+00 NBFU=   196
 Initial guess from the checkpoint file:  "/home/gau/soft/scratch/Gau-21327.chk"
 B after Tr=     0.000000    0.000000   -0.000000
         Rot=    1.000000    0.000001    0.000096    0.000017 Ang=   0.01 deg.
 Requested convergence on RMS density matrix=1.00D-08 within 128 cycles.
 Requested convergence on MAX density matrix=1.00D-06.
 Requested convergence on             energy=1.00D-06.
 No special actions if energy rises.
 Inv3:  Mode=1 IEnd=     5211372.
 Iteration    1 A*A^-1 deviation from unit magnitude is 3.33D-15 for   1297.
 Iteration    1 A*A^-1 deviation from orthogonality  is 1.25D-15 for    572    261.
 Iteration    1 A^-1*A deviation from unit magnitude is 3.11D-15 for   1314.
 Iteration    1 A^-1*A deviation from orthogonality  is 1.01D-15 for   1224   1076.
 Error on total polarization charges =  0.03781
 SCF Done:  E(RM062X) =  -469.966717862     A.U. after    9 cycles
            NFock=  9  Conv=0.36D-08     -V/T= 2.0084
 SMD-CDS (non-electrostatic) energy       (kcal/mol) =       6.35
 (included in total energy above)
 D1PCM: PCM CHGder 1st derivatives, ID1Alg=3 FixD1E=F DoIter=F DoCFld=F I1PDM=0.
 Calling FoFJK, ICntrl=      2127 FMM=F ISym2X=0 I1Cent= 0 IOpClX= 0 NMat=1 NMatS=1 NMatT=0.
 ***** Axes restored to original set *****
 -------------------------------------------------------------------
 Center     Atomic                   Forces (Hartrees/Bohr)
 Number     Number              X              Y              Z
 -------------------------------------------------------------------
      1        7           0.000162832   -0.000082085    0.000192228
      2        7           0.000050011    0.000143883    0.000096160
      3        6          -0.000004248   -0.000060628    0.000055911
      4        6          -0.000019388    0.000107691   -0.000131934
      5        7          -0.000127006   -0.000143560   -0.000111112
      6        1          -0.000015789    0.000033958    0.000031244
      7        1          -0.000020400    0.000008397    0.000011607
      8        6           0.000106850   -0.000090872   -0.000061736
      9        6           0.000026418   -0.000033835    0.000029923
     10        8          -0.000005742   -0.000005452   -0.000025812
     11        8          -0.000010444   -0.000006911   -0.000013931
     12        1          -0.000052488    0.000031601   -0.000032246
     13        1          -0.000041384    0.000076864   -0.000017653
     14        1          -0.000049221    0.000020947   -0.000022648
 -------------------------------------------------------------------
 Cartesian Forces:  Max     0.000192228 RMS     0.000074697

 GradGradGradGradGradGradGradGradGradGradGradGradGradGradGradGradGradGrad
 Berny optimization.
 Using GEDIIS/GDIIS optimizer.
 FormGI is forming the generalized inverse of G from B-inverse, IUseBI=4.
 Internal  Forces:  Max     0.000141893 RMS     0.000049871
 Search for a local minimum.
 Step number   2 out of a maximum of   73
 All quantities printed in internal units (Hartrees-Bohrs-Radians)
 Mixed Optimization -- En-DIIS/RFO-DIIS
 Swapping is turned off.
 Update second derivatives using D2CorX and points    1    2
 DE= -3.96D-06 DEPred=-3.92D-06 R= 1.01D+00
 TightC=F SS=  1.41D+00  RLast= 1.59D-02 DXNew= 5.0454D-01 4.7685D-02
 Trust test= 1.01D+00 RLast= 1.59D-02 DXMaxT set to 3.00D-01
 ITU=  1  0
     Eigenvalues ---    0.00223   0.00918   0.01286   0.02334   0.02348
     Eigenvalues ---    0.02387   0.02388   0.02439   0.02512   0.02661
     Eigenvalues ---    0.07448   0.07791   0.11564   0.15953   0.16000
     Eigenvalues ---    0.16000   0.16000   0.17012   0.21595   0.22970
     Eigenvalues ---    0.24561   0.24996   0.25888   0.34694   0.34902
     Eigenvalues ---    0.34962   0.36097   0.36171   0.39877   0.45363
     Eigenvalues ---    0.48621   0.54538   0.57470   0.63370   1.25519
     Eigenvalues ---    1.25650
 En-DIIS/RFO-DIIS/Sim-DIIS IScMMF=       -3 using points:     2    1
 RFO step:  Lambda=-2.24347254D-06.
 DidBck=F Rises=F RFO-DIIS coefs:    1.57408   -0.57408
 Iteration  1 RMS(Cart)=  0.00191710 RMS(Int)=  0.00000247
 Iteration  2 RMS(Cart)=  0.00000287 RMS(Int)=  0.00000123
 Iteration  3 RMS(Cart)=  0.00000000 RMS(Int)=  0.00000123
 Variable       Old X    -DE/DX   Delta X   Delta X   Delta X     New X
                                 (Linear)    (Quad)   (Total)
    R1        2.51440   0.00007  -0.00014   0.00016   0.00003   2.51442
    R2        2.46730  -0.00007  -0.00003  -0.00012  -0.00014   2.46716
    R3        5.22193  -0.00001  -0.00064  -0.00000  -0.00064   5.22128
    R4        2.54789  -0.00004   0.00032  -0.00022   0.00010   2.54799
    R5        2.75335   0.00005  -0.00136   0.00082  -0.00054   2.75281
    R6        2.60167   0.00001  -0.00012   0.00013   0.00002   2.60168
    R7        2.03922   0.00001  -0.00010   0.00008  -0.00002   2.03920
    R8        2.56435   0.00001   0.00008  -0.00002   0.00006   2.56441
    R9        2.03830  -0.00002   0.00007  -0.00008  -0.00001   2.03829
   R10        2.06140  -0.00000  -0.00018   0.00009  -0.00009   2.06131
   R11        2.05784   0.00004  -0.00015   0.00020   0.00005   2.05789
   R12        2.05786  -0.00002  -0.00006  -0.00003  -0.00009   2.05777
   R13        2.19877  -0.00000   0.00002  -0.00001   0.00001   2.19878
   R14        2.19839   0.00000   0.00003  -0.00001   0.00002   2.19840
    A1        1.88369   0.00014  -0.00024   0.00091   0.00066   1.88435
    A2        2.14717  -0.00004   0.00008   0.00020   0.00028   2.14745
    A3        2.11179  -0.00007   0.00000   0.00009   0.00009   2.11188
    A4        1.93628  -0.00009  -0.00002  -0.00046  -0.00048   1.93579
    A5        2.10592   0.00001  -0.00021   0.00021  -0.00001   2.10591
    A6        2.23973   0.00008   0.00041   0.00022   0.00063   2.24035
    A7        1.81904  -0.00001   0.00021  -0.00014   0.00008   1.81911
    A8        2.13597  -0.00002  -0.00013  -0.00007  -0.00021   2.13577
    A9        2.32817   0.00003  -0.00008   0.00020   0.00012   2.32829
   A10        1.88835   0.00010  -0.00041   0.00067   0.00026   1.88861
   A11        2.26337  -0.00003   0.00019  -0.00022  -0.00003   2.26334
   A12        2.13145  -0.00006   0.00021  -0.00044  -0.00022   2.13122
   A13        1.89743  -0.00014   0.00046  -0.00099  -0.00053   1.89690
   A14        1.91810   0.00005   0.00000   0.00036   0.00036   1.91847
   A15        1.89379   0.00008  -0.00142   0.00119  -0.00023   1.89356
   A16        1.89036   0.00004   0.00025   0.00014   0.00039   1.89075
   A17        1.92270  -0.00008  -0.00007  -0.00054  -0.00061   1.92209
   A18        1.91889  -0.00002   0.00119  -0.00062   0.00057   1.91946
   A19        1.91955  -0.00007   0.00003  -0.00050  -0.00047   1.91908
   A20        1.59353  -0.00001  -0.00022   0.00009  -0.00013   1.59340
   A21        1.58930   0.00002  -0.00010   0.00016   0.00005   1.58935
   A22        3.18283   0.00001  -0.00032   0.00025  -0.00007   3.18276
   A23        3.13953   0.00002  -0.00019   0.00089   0.00070   3.14024
    D1       -0.00318  -0.00005   0.00152  -0.00335  -0.00183  -0.00501
    D2       -3.09513  -0.00008  -0.00191  -0.00275  -0.00466  -3.09978
    D3        2.59480  -0.00003   0.00123  -0.00120   0.00003   2.59483
    D4       -0.49714  -0.00005  -0.00220  -0.00060  -0.00280  -0.49994
    D5        0.00227   0.00002  -0.00092   0.00186   0.00094   0.00320
    D6       -2.60889  -0.00001  -0.00067  -0.00027  -0.00094  -2.60983
    D7        0.02191  -0.00003   0.00221   0.00082   0.00303   0.02494
    D8       -3.11762  -0.00005   0.00240  -0.00008   0.00232  -3.11530
    D9        2.55200   0.00006   0.00182   0.00348   0.00530   2.55730
   D10       -0.58753   0.00004   0.00201   0.00259   0.00459  -0.58294
   D11        0.00271   0.00006  -0.00145   0.00337   0.00192   0.00462
   D12        3.14048   0.00003  -0.00158   0.00199   0.00041   3.14089
   D13        3.08986   0.00008   0.00229   0.00270   0.00499   3.09485
   D14       -0.05556   0.00005   0.00216   0.00132   0.00348  -0.05208
   D15        1.49010  -0.00001   0.00096  -0.00036   0.00059   1.49069
   D16       -0.61324   0.00001   0.00192  -0.00065   0.00127  -0.61197
   D17       -2.69651   0.00002   0.00256  -0.00082   0.00174  -2.69477
   D18       -1.59238  -0.00003  -0.00311   0.00038  -0.00273  -1.59511
   D19        2.58747  -0.00001  -0.00215   0.00009  -0.00206   2.58541
   D20        0.50420  -0.00000  -0.00151  -0.00007  -0.00159   0.50261
   D21       -0.00127  -0.00004   0.00086  -0.00215  -0.00130  -0.00257
   D22        3.13333  -0.00001   0.00046  -0.00081  -0.00035   3.13298
   D23       -3.13842  -0.00001   0.00101  -0.00056   0.00045  -3.13797
   D24       -0.00382   0.00002   0.00061   0.00079   0.00140  -0.00242
   D25       -0.00060   0.00001   0.00002   0.00023   0.00025  -0.00034
   D26       -3.13583  -0.00002   0.00038  -0.00099  -0.00061  -3.13644
         Item               Value     Threshold  Converged?
 Maximum Force            0.000142     0.000450     YES
 RMS     Force            0.000050     0.000300     YES
 Maximum Displacement     0.006189     0.001800     NO 
 RMS     Displacement     0.001917     0.001200     NO 
 Predicted change in Energy=-1.122040D-06
 GradGradGradGradGradGradGradGradGradGradGradGradGradGradGradGradGradGrad

                          Input orientation:                          
 ---------------------------------------------------------------------
 Center     Atomic      Atomic             Coordinates (Angstroms)
 Number     Number       Type             X           Y           Z
 ---------------------------------------------------------------------
      1          7           0        0.252921   -0.368061   -0.339106
      2          7           0        1.117574    0.620504   -0.125692
      3          6           0        2.319949    0.136441    0.245791
      4          6           0        2.149790   -1.229755    0.244451
      5          7           0        0.870159   -1.497350   -0.119495
      6          1           0        3.158792    0.778928    0.464889
      7          1           0        2.856363   -2.011998    0.473070
      8          6           0        0.699725    2.011096   -0.242764
      9          6           0       -2.461590   -0.118783    0.111860
     10          8           0       -2.332743    0.991594    0.434810
     11          8           0       -2.637268   -1.225199   -0.201753
     12          1           0        0.264268    2.348818    0.698595
     13          1           0       -0.034906    2.084799   -1.043252
     14          1           0        1.574706    2.612411   -0.484818
 ---------------------------------------------------------------------
                    Distance matrix (angstroms):
                    1          2          3          4          5
     1  N    0.000000
     2  N    1.330575   0.000000
     3  C    2.206633   1.348340   0.000000
     4  C    2.163600   2.150798   1.376752   0.000000
     5  N    1.305566   2.132265   2.214633   1.357026   0.000000
     6  H    3.225845   2.130834   1.079098   2.258647   3.280364
     7  H    3.184346   3.211225   2.226024   1.078617   2.135650
     8  C    2.422665   1.456727   2.525499   3.583739   3.514746
     9  C    2.762984   3.662430   4.790219   4.745173   3.613104
    10  O    3.022130   3.515190   4.734402   5.006369   4.093981
    11  O    3.017738   4.184644   5.160267   4.807810   3.518931
    12  H    2.908330   2.096342   3.053763   4.070335   3.978615
    13  H    2.568110   2.077086   3.317088   4.173409   3.808445
    14  H    3.263673   2.075003   2.686932   3.952821   4.185687
                    6          7          8          9         10
     6  H    0.000000
     7  H    2.807276   0.000000
     8  C    2.840074   4.620475   0.000000
     9  C    5.702562   5.656444   3.828323   0.000000
    10  O    5.495734   5.995819   3.270222   1.163544   0.000000
    11  O    6.168893   5.590565   4.648742   1.163345   2.326396
    12  H    3.301127   5.078044   1.090796   3.723387   2.942126
    13  H    3.765567   5.238550   1.088988   3.475464   2.942757
    14  H    2.602486   4.893398   1.088927   4.909901   4.329079
                   11         12         13         14
    11  O    0.000000
    12  H    4.690749   0.000000
    13  H    4.293773   1.786964   0.000000
    14  H    5.705094   1.785272   1.783556   0.000000
 Stoichiometry    C4H5N3O2
 Framework group  C1[X(C4H5N3O2)]
 Deg. of freedom    36
 Full point group                 C1      NOp   1
 Largest Abelian subgroup         C1      NOp   1
 Largest concise Abelian subgroup C1      NOp   1
                         Standard orientation:                         
 ---------------------------------------------------------------------
 Center     Atomic      Atomic             Coordinates (Angstroms)
 Number     Number       Type             X           Y           Z
 ---------------------------------------------------------------------
      1          7           0       -0.252963   -0.368487    0.339695
      2          7           0       -1.117872    0.619854    0.126281
      3          6           0       -2.320121    0.135479   -0.245201
      4          6           0       -2.149608   -1.230672   -0.243862
      5          7           0       -0.869908   -1.497935    0.120085
      6          1           0       -3.159131    0.777749   -0.464300
      7          1           0       -2.855978   -2.013098   -0.472480
      8          6           0       -0.700383    2.010555    0.243353
      9          6           0        2.461484   -0.118505   -0.111270
     10          8           0        2.332349    0.991839   -0.434220
     11          8           0        2.637448   -1.224875    0.202343
     12          1           0       -0.265013    2.348389   -0.698006
     13          1           0        0.034229    2.084448    1.043841
     14          1           0       -1.575520    2.611643    0.485407
 ---------------------------------------------------------------------
 Rotational constants (GHZ):           2.8552244           1.1069891           0.8243263
 Standard basis: 6-31+G(d,p) (6D, 7F)
 There are   196 symmetry adapted cartesian basis functions of A   symmetry.
 There are   196 symmetry adapted basis functions of A   symmetry.
   196 basis functions,   323 primitive gaussians,   196 cartesian basis functions
    33 alpha electrons       33 beta electrons
       nuclear repulsion energy       418.3240809991 Hartrees.
 NAtoms=   14 NActive=   14 NUniq=   14 SFac= 1.00D+00 NAtFMM=   60 NAOKFM=F Big=F
 Integral buffers will be    131072 words long.
 Raffenetti 2 integral format.
 Two-electron integral symmetry is turned on.
 ------------------------------------------------------------------------------
 Polarizable Continuum Model (PCM)
 =================================
 Model                : PCM.
 Atomic radii         : SMD-Coulomb.
 Polarization charges : Total charges.
 Charge compensation  : None.
 Solution method      : On-the-fly selection.
 Cavity type          : VdW (van der Waals Surface) (Alpha=1.000).
 Cavity algorithm     : GePol (No added spheres)
                        Default sphere list used, NSphG=   14.
                        Lebedev-Laikov grids with approx.  5.0 points / Ang**2.
                        Smoothing algorithm: York/Karplus (Gamma=1.0000).
                        Polarization charges: spherical gaussians, with
                                              point-specific exponents (IZeta= 3).
                        Self-potential: point-specific (ISelfS= 7).
                        Self-field    : sphere-specific E.n sum rule (ISelfD= 2).
 1st derivatives      : Analytical E(r).r(x)/FMM algorithm (CHGder, D1EAlg=3).
                        Cavity 1st derivative terms included.
 Solvent              : Water, Eps=  78.355300 Eps(inf)=   1.777849
 ------------------------------------------------------------------------------
 Spheres list:
 ISph  on   Nord     Re0    Alpha      Xe            Ye            Ze
    1   N      1    1.8900  1.000     -0.252963     -0.368487      0.339695
    2   N      2    1.8900  1.000     -1.117872      0.619854      0.126281
    3   C      3    1.8500  1.000     -2.320121      0.135479     -0.245201
    4   C      4    1.8500  1.000     -2.149608     -1.230672     -0.243862
    5   N      5    1.8900  1.000     -0.869908     -1.497935      0.120085
    6   H      6    1.2000  1.000     -3.159131      0.777749     -0.464300
    7   H      7    1.2000  1.000     -2.855978     -2.013098     -0.472480
    8   C      8    1.8500  1.000     -0.700383      2.010555      0.243353
    9   C      9    1.8500  1.000      2.461484     -0.118505     -0.111270
   10   O     10    1.5200  1.000      2.332349      0.991839     -0.434220
   11   O     11    1.5200  1.000      2.637448     -1.224875      0.202343
   12   H     12    1.2000  1.000     -0.265013      2.348389     -0.698006
   13   H     13    1.2000  1.000      0.034229      2.084448      1.043841
   14   H     14    1.2000  1.000     -1.575520      2.611643      0.485407
 ------------------------------------------------------------------------------
 ------------------------------------------------------------------------------
 Atomic radii for non-electrostatic terms: SMD-CDS.
 ------------------------------------------------------------------------------
 Nuclear repulsion after PCM non-electrostatic terms =      418.3342058261 Hartrees.
 One-electron integrals computed using PRISM.
 NBasis=   196 RedAO= T EigKep=  4.28D-05  NBF=   196
 NBsUse=   196 1.00D-06 EigRej= -1.00D+00 NBFU=   196
 Initial guess from the checkpoint file:  "/home/gau/soft/scratch/Gau-21327.chk"
 B after Tr=     0.000000    0.000000    0.000000
         Rot=    1.000000   -0.000014   -0.000023   -0.000056 Ang=  -0.01 deg.
 Requested convergence on RMS density matrix=1.00D-08 within 128 cycles.
 Requested convergence on MAX density matrix=1.00D-06.
 Requested convergence on             energy=1.00D-06.
 No special actions if energy rises.
 Inv3:  Mode=1 IEnd=     5195568.
 Iteration    1 A*A^-1 deviation from unit magnitude is 4.22D-15 for   1287.
 Iteration    1 A*A^-1 deviation from orthogonality  is 1.93D-15 for   1274   1013.
 Iteration    1 A^-1*A deviation from unit magnitude is 4.22D-15 for   1287.
 Iteration    1 A^-1*A deviation from orthogonality  is 1.29D-15 for    381    328.
 Error on total polarization charges =  0.03781
 SCF Done:  E(RM062X) =  -469.966718503     A.U. after    9 cycles
            NFock=  9  Conv=0.44D-08     -V/T= 2.0084
 SMD-CDS (non-electrostatic) energy       (kcal/mol) =       6.35
 (included in total energy above)
 D1PCM: PCM CHGder 1st derivatives, ID1Alg=3 FixD1E=F DoIter=F DoCFld=F I1PDM=0.
 Calling FoFJK, ICntrl=      2127 FMM=F ISym2X=0 I1Cent= 0 IOpClX= 0 NMat=1 NMatS=1 NMatT=0.
 ***** Axes restored to original set *****
 -------------------------------------------------------------------
 Center     Atomic                   Forces (Hartrees/Bohr)
 Number     Number              X              Y              Z
 -------------------------------------------------------------------
      1        7          -0.000088164   -0.000017477   -0.000183914
      2        7           0.000118671   -0.000270217    0.000259490
      3        6           0.000059972   -0.000024810   -0.000175984
      4        6           0.000025170    0.000039704    0.000036856
      5        7          -0.000012117    0.000093165    0.000060304
      6        1           0.000010641    0.000017076    0.000026483
      7        1           0.000002652    0.000018520    0.000015708
      8        6          -0.000078346    0.000035231   -0.000054461
      9        6           0.000027649   -0.000006651   -0.000082385
     10        8          -0.000011317   -0.000026080    0.000027719
     11        8          -0.000007405   -0.000005756    0.000043580
     12        1          -0.000009595    0.000064067    0.000018813
     13        1          -0.000032269    0.000065957   -0.000020471
     14        1          -0.000005544    0.000017272    0.000028261
 -------------------------------------------------------------------
 Cartesian Forces:  Max     0.000270217 RMS     0.000081977

 GradGradGradGradGradGradGradGradGradGradGradGradGradGradGradGradGradGrad
 Berny optimization.
 Using GEDIIS/GDIIS optimizer.
 FormGI is forming the generalized inverse of G from B-inverse, IUseBI=4.
 Internal  Forces:  Max     0.000205253 RMS     0.000043364
 Search for a local minimum.
 Step number   3 out of a maximum of   73
 All quantities printed in internal units (Hartrees-Bohrs-Radians)
 Mixed Optimization -- En-DIIS/RFO-DIIS
 Swapping is turned off.
 Update second derivatives using D2CorX and points    1    2    3
 DE= -6.41D-07 DEPred=-1.12D-06 R= 5.71D-01
 TightC=F SS=  1.41D+00  RLast= 1.29D-02 DXNew= 5.0454D-01 3.8769D-02
 Trust test= 5.71D-01 RLast= 1.29D-02 DXMaxT set to 3.00D-01
 ITU=  1  1  0
     Eigenvalues ---    0.00197   0.00847   0.00982   0.02339   0.02349
     Eigenvalues ---    0.02385   0.02404   0.02442   0.02504   0.04193
     Eigenvalues ---    0.07722   0.07786   0.11602   0.15926   0.16000
     Eigenvalues ---    0.16000   0.16084   0.17325   0.21563   0.23260
     Eigenvalues ---    0.24568   0.25003   0.28002   0.34734   0.34889
     Eigenvalues ---    0.34950   0.36096   0.36178   0.43034   0.45635
     Eigenvalues ---    0.48776   0.54389   0.57491   0.63420   1.25525
     Eigenvalues ---    1.25675
 En-DIIS/RFO-DIIS/Sim-DIIS IScMMF=       -3 using points:     3    2    1
 RFO step:  Lambda=-8.86309314D-07.
 DidBck=F Rises=F RFO-DIIS coefs:    0.88162    0.44244   -0.32406
 Iteration  1 RMS(Cart)=  0.00067569 RMS(Int)=  0.00000115
 Iteration  2 RMS(Cart)=  0.00000051 RMS(Int)=  0.00000104
 Variable       Old X    -DE/DX   Delta X   Delta X   Delta X     New X
                                 (Linear)    (Quad)   (Total)
    R1        2.51442   0.00003  -0.00008   0.00012   0.00004   2.51447
    R2        2.46716  -0.00004   0.00000  -0.00004  -0.00004   2.46712
    R3        5.22128  -0.00001  -0.00029   0.00010  -0.00019   5.22109
    R4        2.54799  -0.00000   0.00017  -0.00017   0.00000   2.54799
    R5        2.75281   0.00021  -0.00070   0.00095   0.00025   2.75306
    R6        2.60168  -0.00006  -0.00007  -0.00001  -0.00008   2.60161
    R7        2.03920   0.00002  -0.00005   0.00008   0.00003   2.03923
    R8        2.56441   0.00003   0.00004  -0.00001   0.00003   2.56444
    R9        2.03829  -0.00001   0.00004  -0.00006  -0.00001   2.03828
   R10        2.06131   0.00004  -0.00009   0.00014   0.00005   2.06135
   R11        2.05789   0.00004  -0.00009   0.00016   0.00007   2.05796
   R12        2.05777   0.00000  -0.00002   0.00002  -0.00001   2.05777
   R13        2.19878  -0.00001   0.00001  -0.00001  -0.00000   2.19878
   R14        2.19840  -0.00001   0.00001  -0.00002  -0.00000   2.19840
    A1        1.88435  -0.00008  -0.00022   0.00006  -0.00015   1.88420
    A2        2.14745   0.00005   0.00001  -0.00003  -0.00002   2.14743
    A3        2.11188   0.00001  -0.00001  -0.00011  -0.00013   2.11175
    A4        1.93579   0.00006   0.00005   0.00009   0.00013   1.93593
    A5        2.10591  -0.00004  -0.00012   0.00004  -0.00009   2.10583
    A6        2.24035  -0.00002   0.00016  -0.00014   0.00001   2.24036
    A7        1.81911  -0.00003   0.00011  -0.00018  -0.00007   1.81904
    A8        2.13577   0.00002  -0.00005   0.00008   0.00003   2.13580
    A9        2.32829   0.00001  -0.00006   0.00011   0.00005   2.32834
   A10        1.88861  -0.00000  -0.00026   0.00027   0.00001   1.88862
   A11        2.26334  -0.00001   0.00011  -0.00013  -0.00002   2.26332
   A12        2.13122   0.00001   0.00015  -0.00014   0.00001   2.13123
   A13        1.89690   0.00005   0.00032  -0.00024   0.00009   1.89699
   A14        1.91847   0.00006  -0.00004   0.00027   0.00022   1.91869
   A15        1.89356   0.00009  -0.00077   0.00112   0.00035   1.89391
   A16        1.89075  -0.00002   0.00009  -0.00015  -0.00005   1.89069
   A17        1.92209  -0.00005   0.00003  -0.00019  -0.00016   1.92193
   A18        1.91946  -0.00005   0.00060  -0.00081  -0.00021   1.91925
   A19        1.91908  -0.00003   0.00007  -0.00021  -0.00014   1.91894
   A20        1.59340   0.00000  -0.00011   0.00014   0.00002   1.59343
   A21        1.58935   0.00002  -0.00006   0.00014   0.00008   1.58943
   A22        3.18276   0.00002  -0.00017   0.00028   0.00011   3.18286
   A23        3.14024  -0.00004  -0.00019  -0.00054  -0.00073   3.13951
    D1       -0.00501   0.00006   0.00108   0.00015   0.00123  -0.00378
    D2       -3.09978   0.00003  -0.00053   0.00060   0.00008  -3.09971
    D3        2.59483   0.00003   0.00069  -0.00003   0.00066   2.59549
    D4       -0.49994  -0.00000  -0.00091   0.00042  -0.00049  -0.50043
    D5        0.00320  -0.00003  -0.00063  -0.00009  -0.00072   0.00249
    D6       -2.60983  -0.00002  -0.00027   0.00007  -0.00020  -2.61003
    D7        0.02494   0.00002   0.00089   0.00071   0.00159   0.02653
    D8       -3.11530   0.00006   0.00108   0.00124   0.00232  -3.11298
    D9        2.55730  -0.00005   0.00040   0.00055   0.00095   2.55825
   D10       -0.58294  -0.00000   0.00059   0.00109   0.00168  -0.58126
   D11        0.00462  -0.00006  -0.00105  -0.00016  -0.00120   0.00342
   D12        3.14089  -0.00001  -0.00094   0.00057  -0.00037   3.14052
   D13        3.09485  -0.00003   0.00070  -0.00064   0.00006   3.09491
   D14       -0.05208   0.00002   0.00081   0.00008   0.00089  -0.05119
   D15        1.49069   0.00004   0.00047   0.00010   0.00057   1.49126
   D16       -0.61197   0.00001   0.00093  -0.00052   0.00041  -0.61156
   D17       -2.69477  -0.00000   0.00124  -0.00082   0.00041  -2.69436
   D18       -1.59511   0.00000  -0.00143   0.00063  -0.00081  -1.59592
   D19        2.58541  -0.00003  -0.00097   0.00001  -0.00096   2.58445
   D20        0.50261  -0.00004  -0.00067  -0.00030  -0.00096   0.50165
   D21       -0.00257   0.00004   0.00064   0.00010   0.00074  -0.00183
   D22        3.13298   0.00004   0.00030   0.00050   0.00080   3.13378
   D23       -3.13797  -0.00001   0.00051  -0.00074  -0.00023  -3.13819
   D24       -0.00242  -0.00002   0.00018  -0.00034  -0.00017  -0.00258
   D25       -0.00034  -0.00001  -0.00002  -0.00001  -0.00003  -0.00037
   D26       -3.13644  -0.00000   0.00029  -0.00037  -0.00008  -3.13653
         Item               Value     Threshold  Converged?
 Maximum Force            0.000205     0.000450     YES
 RMS     Force            0.000043     0.000300     YES
 Maximum Displacement     0.003174     0.001800     NO 
 RMS     Displacement     0.000676     0.001200     YES
 Predicted change in Energy=-4.056654D-07
 GradGradGradGradGradGradGradGradGradGradGradGradGradGradGradGradGradGrad

                          Input orientation:                          
 ---------------------------------------------------------------------
 Center     Atomic      Atomic             Coordinates (Angstroms)
 Number     Number       Type             X           Y           Z
 ---------------------------------------------------------------------
      1          7           0        0.252872   -0.368022   -0.339338
      2          7           0        1.117524    0.620442   -0.125312
      3          6           0        2.320137    0.136314    0.245315
      4          6           0        2.149735   -1.229810    0.244334
      5          7           0        0.870024   -1.497285   -0.119479
      6          1           0        3.159043    0.778760    0.464369
      7          1           0        2.856173   -2.012101    0.473166
      8          6           0        0.699708    2.011181   -0.242392
      9          6           0       -2.461593   -0.118888    0.111371
     10          8           0       -2.333025    0.991865    0.433130
     11          8           0       -2.637002   -1.225912   -0.200230
     12          1           0        0.264256    2.349164    0.698904
     13          1           0       -0.034884    2.085319   -1.042924
     14          1           0        1.574771    2.612419   -0.484328
 ---------------------------------------------------------------------
                    Distance matrix (angstroms):
                    1          2          3          4          5
     1  N    0.000000
     2  N    1.330599   0.000000
     3  C    2.206753   1.348341   0.000000
     4  C    2.163664   2.150705   1.376711   0.000000
     5  N    1.305545   2.132149   2.214622   1.357042   0.000000
     6  H    3.225970   2.130865   1.079112   2.258644   3.280376
     7  H    3.184389   3.211131   2.225970   1.078609   2.135662
     8  C    2.422740   1.456857   2.525624   3.583784   3.514748
     9  C    2.762884   3.662337   4.790409   4.745121   3.612886
    10  O    3.022063   3.515125   4.734887   5.006658   4.093991
    11  O    3.017731   4.184627   5.160174   4.807339   3.518436
    12  H    2.908811   2.096635   3.054356   4.070715   3.978929
    13  H    2.568408   2.077479   3.317274   4.173689   3.808761
    14  H    3.263659   2.075075   2.686828   3.952753   4.185624
                    6          7          8          9         10
     6  H    0.000000
     7  H    2.807261   0.000000
     8  C    2.840194   4.620516   0.000000
     9  C    5.702800   5.656306   3.828337   0.000000
    10  O    5.496289   5.996098   3.269985   1.163543   0.000000
    11  O    6.168836   5.589859   4.649106   1.163343   2.326389
    12  H    3.301661   5.078349   1.090821   3.723806   2.942578
    13  H    3.765660   5.238854   1.089023   3.475607   2.942079
    14  H    2.602355   4.893361   1.088924   4.909901   4.328832
                   11         12         13         14
    11  O    0.000000
    12  H    4.691152   0.000000
    13  H    4.294811   1.786915   0.000000
    14  H    5.705482   1.785158   1.783494   0.000000
 Stoichiometry    C4H5N3O2
 Framework group  C1[X(C4H5N3O2)]
 Deg. of freedom    36
 Full point group                 C1      NOp   1
 Largest Abelian subgroup         C1      NOp   1
 Largest concise Abelian subgroup C1      NOp   1
                         Standard orientation:                         
 ---------------------------------------------------------------------
 Center     Atomic      Atomic             Coordinates (Angstroms)
 Number     Number       Type             X           Y           Z
 ---------------------------------------------------------------------
      1          7           0       -0.252911   -0.368401    0.339872
      2          7           0       -1.117864    0.619801    0.125846
      3          6           0       -2.320330    0.135307   -0.244781
      4          6           0       -2.149512   -1.230766   -0.243800
      5          7           0       -0.869720   -1.497851    0.120013
      6          1           0       -3.159431    0.777497   -0.463835
      7          1           0       -2.855712   -2.013272   -0.472632
      8          6           0       -0.700471    2.010667    0.242927
      9          6           0        2.461478   -0.118441   -0.110837
     10          8           0        2.332572    0.992273   -0.432596
     11          8           0        2.637223   -1.225412    0.200764
     12          1           0       -0.265122    2.348782   -0.698370
     13          1           0        0.034098    2.085028    1.043458
     14          1           0       -1.575717    2.611638    0.484862
 ---------------------------------------------------------------------
 Rotational constants (GHZ):           2.8552073           1.1070813           0.8242706
 Standard basis: 6-31+G(d,p) (6D, 7F)
 There are   196 symmetry adapted cartesian basis functions of A   symmetry.
 There are   196 symmetry adapted basis functions of A   symmetry.
   196 basis functions,   323 primitive gaussians,   196 cartesian basis functions
    33 alpha electrons       33 beta electrons
       nuclear repulsion energy       418.3227067240 Hartrees.
 NAtoms=   14 NActive=   14 NUniq=   14 SFac= 1.00D+00 NAtFMM=   60 NAOKFM=F Big=F
 Integral buffers will be    131072 words long.
 Raffenetti 2 integral format.
 Two-electron integral symmetry is turned on.
 ------------------------------------------------------------------------------
 Polarizable Continuum Model (PCM)
 =================================
 Model                : PCM.
 Atomic radii         : SMD-Coulomb.
 Polarization charges : Total charges.
 Charge compensation  : None.
 Solution method      : On-the-fly selection.
 Cavity type          : VdW (van der Waals Surface) (Alpha=1.000).
 Cavity algorithm     : GePol (No added spheres)
                        Default sphere list used, NSphG=   14.
                        Lebedev-Laikov grids with approx.  5.0 points / Ang**2.
                        Smoothing algorithm: York/Karplus (Gamma=1.0000).
[...]
 ! A23   L(10,9,11,1,-2)       179.8988         -DE/DX =   -0.0001              !
 ! D1    D(5,1,2,3)             -0.2029         -DE/DX =    0.0                 !
 ! D2    D(5,1,2,8)           -177.6548         -DE/DX =    0.0                 !
 ! D3    D(9,1,2,3)            150.1618         -DE/DX =    0.0                 !
 ! D4    D(9,1,2,8)            -27.29           -DE/DX =    0.0                 !
 ! D5    D(2,1,5,4)              0.1344         -DE/DX =    0.0                 !
 ! D6    D(9,1,5,4)           -151.0669         -DE/DX =    0.0                 !
 ! D7    D(2,1,9,10)             1.7942         -DE/DX =    0.0                 !
 ! D8    D(2,1,9,11)          -178.1045         -DE/DX =    0.0                 !
 ! D9    D(5,1,9,10)           148.4195         -DE/DX =    0.0                 !
 ! D10   D(5,1,9,11)           -31.4792         -DE/DX =    0.0                 !
 ! D11   D(1,2,3,4)              0.1826         -DE/DX =    0.0                 !
 ! D12   D(1,2,3,6)            179.9764         -DE/DX =    0.0                 !
 ! D13   D(8,2,3,4)            177.3855         -DE/DX =    0.0                 !
 ! D14   D(8,2,3,6)             -2.8206         -DE/DX =    0.0                 !
 ! D15   D(1,2,8,12)            84.2243         -DE/DX =    0.0                 !
 ! D16   D(1,2,8,13)           -36.2986         -DE/DX =    0.0                 !
 ! D17   D(1,2,8,14)          -155.6443         -DE/DX =    0.0                 !
 ! D18   D(3,2,8,12)           -92.7392         -DE/DX =    0.0                 !
 ! D19   D(3,2,8,13)           146.7379         -DE/DX =    0.0                 !
 ! D20   D(3,2,8,14)            27.3922         -DE/DX =    0.0                 !
 ! D21   D(2,3,4,5)             -0.0966         -DE/DX =    0.0                 !
 ! D22   D(2,3,4,7)            179.5626         -DE/DX =    0.0                 !
 ! D23   D(6,3,4,5)           -179.8569         -DE/DX =    0.0                 !
 ! D24   D(6,3,4,7)             -0.1977         -DE/DX =    0.0                 !
 ! D25   D(3,4,5,1)             -0.0216         -DE/DX =    0.0                 !
 ! D26   D(7,4,5,1)           -179.7119         -DE/DX =    0.0                 !
 --------------------------------------------------------------------------------
 GradGradGradGradGradGradGradGradGradGradGradGradGradGradGradGradGradGrad


 ----------------------------------------------------------------------

 Electric dipole moment (input orientation):
 (Debye = 10**-18 statcoulomb cm , SI units = C m)
                  (au)            (Debye)         (10**-30 SI)
   Tot        0.276859D+01      0.703706D+01      0.234731D+02
   x          0.161925D+01      0.411574D+01      0.137286D+02
   y          0.221541D+01      0.563102D+01      0.187830D+02
   z          0.367501D+00      0.934095D+00      0.311581D+01

 Dipole polarizability, Alpha (input orientation).
 (esu units = cm**3 , SI units = C**2 m**2 J**-1)
 Alpha(0;0):
               (au)            (10**-24 esu)      (10**-40 SI)
   iso        0.931977D+02      0.138105D+02      0.153662D+02
   aniso      0.498039D+02      0.738018D+01      0.821156D+01
   xx         0.939199D+02      0.139175D+02      0.154853D+02
   yx         0.938963D+00      0.139140D+00      0.154814D+00
   yy         0.119738D+03      0.177433D+02      0.197421D+02
   zx         0.892825D+01      0.132303D+01      0.147207D+01
   zy         0.470557D+01      0.697294D+00      0.775844D+00
   zz         0.659352D+02      0.977059D+01      0.108712D+02

 ----------------------------------------------------------------------

 Dipole orientation:
     7          0.99554733          0.01359730         -0.36212971
     7          1.12742778         -0.17404263          2.14190009
     6          2.68319465         -2.07035379          2.83174015
     6          3.52641217         -3.05747630          0.57727937
     7          2.44879856         -1.72790195         -1.33256078
     1          3.04569302         -2.52938488          4.78530916
     1          4.81632541         -4.59748727          0.23227597
     6         -0.37975928          1.47201449          3.75420360
     6         -3.27723596          1.65508400         -2.87300274
     8         -4.32844295          1.98730083         -0.97058311
     8         -2.30144221          1.34930461         -4.81909218
     1         -2.25882048          0.66709529          4.02001705
     1         -0.52117981          3.31762930          2.85470317
     1          0.57229280          1.64727485          5.57007020

 Electric dipole moment (dipole orientation):
 (Debye = 10**-18 statcoulomb cm , SI units = C m)
                  (au)            (Debye)         (10**-30 SI)
   Tot        0.276859D+01      0.703706D+01      0.234731D+02
   x          0.000000D+00      0.000000D+00      0.000000D+00
   y          0.000000D+00      0.000000D+00      0.000000D+00
   z          0.276859D+01      0.703706D+01      0.234731D+02

 Dipole polarizability, Alpha (dipole orientation).
 (esu units = cm**3 , SI units = C**2 m**2 J**-1)
 Alpha(0;0):
               (au)            (10**-24 esu)      (10**-40 SI)
   iso        0.931977D+02      0.138105D+02      0.153662D+02
   aniso      0.498039D+02      0.738018D+01      0.821156D+01
   xx         0.831972D+02      0.123286D+02      0.137174D+02
   yx        -0.197591D+02     -0.292800D+01     -0.325784D+01
   yy         0.831726D+02      0.123249D+02      0.137133D+02
   zx        -0.107527D+02     -0.159339D+01     -0.177288D+01
   zy         0.447223D+01      0.662716D+00      0.737372D+00
   zz         0.113223D+03      0.167779D+02      0.186680D+02

 ----------------------------------------------------------------------
 Unable to Open any file for archive entry.
 1\1\GINC-NODE01\Freq\RM062X\6-31+G(d,p)\C4H5N3O2\GAU\29-Nov-2023\0\\#N
  Geom=AllCheck Guess=TCheck SCRF=Check GenChk RM062X/6-31+G(d,p) Freq\
 \Title Card Required\\0,1\N,0.2526786356,-0.3678772901,-0.3393144015\N
 ,1.1174086556,0.6204417472,-0.1247860652\C,2.320176794,0.1361654686,0.
 2451470367\C,2.1497105502,-1.2299158239,0.2438055908\N,0.8698822421,-1
 .4971594584,-0.1198292165\H,3.1590608979,0.7785408402,0.4645529699\H,2
 .8560969996,-2.0123006879,0.4724560846\C,0.6998078022,2.0113578674,-0.
 2420768809\C,-2.4615779542,-0.1192894915,0.1116529243\O,-2.3337072001,
 0.9925379062,0.4299548007\O,-2.6366003522,-1.2270387252,-0.1975710028\
 H,0.2639840535,2.3495792474,0.6989988376\H,-0.0343421129,2.0859638806,
 -1.0430070786\H,1.5751599886,2.6124415192,-0.4833965991\\Version=ES64L
 -G16RevC.01\State=1-A\HF=-469.9667189\RMSD=3.224e-09\RMSF=2.963e-05\Ze
 roPoint=0.1009096\Thermal=0.1102188\ETot=-469.8565001\HTot=-469.855555
 9\GTot=-469.9041188\Dipole=1.6192549,2.2154123,0.3675014\DipoleDeriv=-
 0.7370023,0.1657287,-0.1391051,0.2687297,0.4033185,0.0758112,-0.107409
 8,0.0239851,-0.2342761,0.1755045,0.051796,0.0889375,0.1471729,-0.82008
 89,0.0478473,0.062848,0.1207432,-0.0871469,-0.0917229,-0.2576534,0.006
 6964,0.1074853,0.2308069,0.0264785,-0.0154452,-0.1104196,-0.0748525,-0
 .1019912,-0.0474476,0.0025375,-0.2260224,0.0319439,-0.0832092,0.017477
 4,-0.0218708,-0.1426804,0.05778,0.1533103,0.1367939,-0.1912042,-0.7015
 597,-0.0559159,0.1191649,0.0572289,-0.2971163,0.1659145,-0.0104323,-0.
 027212,-0.0302376,0.1381165,-0.0043903,-0.0263669,0.0049433,0.2529204,
 0.1042441,0.0337831,-0.0385306,0.0616631,0.0851604,0.0235265,-0.036652
 9,0.0156126,0.2236299,0.205408,-0.1428587,-0.026932,-0.18103,0.6625682
 ,-0.0157652,-0.0057221,-0.1037942,0.230979,1.0858431,0.3639488,0.09163
 4,0.369468,3.4550369,0.7807179,0.0578216,0.781255,0.9282564,-0.4993681
 ,-0.1358181,-0.0384419,-0.1165802,-1.7484576,-0.3986392,-0.0154254,-0.
 4032425,-0.4737563,-0.5053341,-0.2330453,-0.0660763,-0.2606049,-1.7362
 753,-0.3838446,-0.0577348,-0.3833976,-0.4669137,0.0947275,0.0736678,0.
 0456296,0.0414035,-0.036999,0.0274082,0.0697733,-0.0407424,-0.0285127,
 0.0607442,0.0522467,-0.0767123,-0.0131838,0.0290381,-0.0486249,-0.0916
 987,0.0236183,0.0381103,-0.0147472,-0.0672259,0.0407813,0.0229406,0.00
 73911,0.0085998,0.0293706,0.0360807,0.1313589\Polar=93.9199127,0.93896
 26,119.7378447,8.9282528,4.7055742,65.9352067\Quadrupole=5.5158533,-2.
 8616026,-2.6542508,1.2601489,1.2096501,-2.3815615\PG=C01 [X(C4H5N3O2)]
 \NImag=0\\0.57005321,-0.05560957,0.53849907,0.12629198,-0.02872822,0.1
 6019008,-0.21366710,-0.10085965,-0.03519322,0.66612765,-0.05887121,-0.
 18076237,-0.01324446,-0.09694166,0.82757865,-0.03709596,-0.02958444,-0
 .08673886,0.14687766,-0.03744318,0.20051784,-0.09597248,-0.05158538,-0
 .03229390,-0.30028907,0.08568285,-0.06935814,0.75828335,0.01183574,-0.
 01865560,0.00489453,0.05677171,-0.15652641,0.01690129,0.16884372,0.765
 33887,-0.03420996,-0.01300172,0.01077126,-0.06959905,0.02751725,-0.087
 89845,0.17609637,0.02714146,0.18073241,-0.09172971,0.08323408,-0.03665
 354,0.00581616,0.00658660,0.00102604,-0.11598038,-0.00998910,-0.012909
 19,0.66714761,0.00831404,-0.01291918,0.00395585,0.09778179,-0.06022932
 ,0.03368922,-0.04837011,-0.38508604,-0.00362468,-0.15727291,0.82409459
 ,-0.03352355,0.02571550,0.01277017,-0.00526492,0.00382146,0.01024524,-
 0.01120253,0.00791702,-0.07477654,0.15870292,-0.06907251,0.18439765,-0
 .16800835,0.14760924,-0.02568684,-0.01704907,0.01888512,-0.01658126,-0
 .01686278,-0.10474750,-0.00636851,-0.28382284,-0.05154302,-0.05897047,
 0.50096347,0.08042637,-0.29282976,0.02993473,-0.03070268,-0.15151818,-
 0.00089446,-0.01694478,-0.01653589,-0.00384325,-0.05434307,-0.13388263
 ,-0.01411701,0.00094594,0.58978902,-0.02311350,0.04960456,-0.10459441,
 -0.01127322,0.01190554,0.01979388,-0.01012160,-0.02922972,0.01865548,-
 0.05919855,-0.01321646,-0.09071488,0.11112160,-0.01583405,0.15158908,-
 0.00195360,0.00269813,-0.00276781,-0.01677280,-0.01859732,-0.00326620,
 -0.24267350,-0.14452587,-0.05639878,0.00728842,0.00168790,0.00194143,0
 .00216032,0.00294348,-0.00128795,0.25201812,0.00503726,-0.00215525,0.0
 0184312,0.01543412,0.01374491,0.00382110,-0.15541959,-0.17537963,-0.03
 954005,-0.01836611,0.00089768,-0.00545154,-0.00335888,-0.00513726,-0.0
 0055747,0.15632268,0.16711521,-0.00285185,0.00117303,0.00635797,-0.005
 14963,-0.00570045,-0.00410426,-0.05554519,-0.03643532,-0.04484256,0.00
 264826,0.00041194,0.00112614,-0.00099064,0.00126263,0.00595829,0.06070
 889,0.03990815,0.03908069,-0.00472867,-0.00090575,-0.00385381,-0.00007
 584,-0.00420865,-0.00160592,0.00972450,-0.00643824,0.00304372,-0.18478
 612,0.14676775,-0.04934000,-0.01406635,0.02296689,-0.00274215,-0.00050
 860,0.00058004,0.00043256,0.19352107,-0.00410207,0.00168463,-0.0010298
 3,-0.00130306,-0.00524136,-0.00015308,0.01777758,-0.00601346,0.0052978
 0,0.15236291,-0.23209360,0.05039776,-0.00650122,0.01236867,-0.00247521
 ,-0.00033886,0.00013049,-0.00016557,-0.15903031,0.22893873,-0.00384211
 ,-0.00018814,0.00759752,-0.00158125,-0.00063972,0.00538061,0.00226091,
 -0.00158317,0.00051057,-0.04933457,0.04871552,-0.04584126,-0.00203095,
 0.00605778,-0.00795148,0.00046505,0.00009314,-0.00194415,0.05406847,-0
 .05234931,0.04111521,0.01649768,-0.02185524,0.00982723,-0.12104878,0.0
 4641643,-0.01643263,0.00082191,0.02593945,0.00013710,-0.00482141,0.002
 52974,-0.00187258,-0.00272708,-0.00873762,-0.00442200,0.00038592,-0.00
 021397,0.00025046,0.00078372,0.00090865,0.00004778,0.62387341,0.003946
 93,-0.03452936,0.00159503,0.04239651,-0.22559447,0.00902254,0.00718810
 ,-0.00703091,0.00197700,-0.00077078,0.00372393,0.00076899,-0.00549958,
 0.00465451,-0.00182699,-0.00056645,0.00067528,-0.00058986,0.00034499,0
 .00065223,-0.00003699,0.04208331,0.50581584,0.00652794,0.00015413,-0.0
 0650722,-0.01534110,0.00882879,-0.06650426,-0.00038433,0.01100617,-0.0
 0408552,-0.00514339,-0.00100015,0.00274867,0.00019965,-0.00417554,0.00
 753290,0.00080397,-0.00016171,-0.00167438,-0.00011454,0.00049393,0.001
 29344,0.00656990,0.01182494,0.60607644,-0.00285858,0.00014054,-0.00219
 767,-0.00077741,-0.00201998,-0.00063320,0.00229383,-0.00085079,0.00097
 114,0.00238734,0.00102102,0.00121046,0.00045507,0.00158680,-0.00079693
 ,0.00008835,-0.00015118,0.00015802,0.00021501,0.00004964,0.00015215,0.
 00023326,-0.00092259,0.00006381,0.16138432,0.00016749,-0.00483422,-0.0
 0105151,-0.00254135,0.00043073,-0.00002797,-0.00048915,-0.00048068,-0.
 00013085,0.00030398,-0.00041036,0.00030198,0.00107247,-0.00028942,-0.0
 0001804,-0.00005980,0.00004757,-0.00008504,0.00002918,0.00002959,0.000
 07814,0.00016898,0.00061807,-0.00047923,0.21499755,1.71447357,0.000811
 87,-0.00124121,-0.00088917,-0.00090560,0.00039091,-0.00019915,-0.00038
 879,-0.00019066,-0.00005868,-0.00022307,-0.00002087,0.00005502,-0.0003
 0437,-0.00011506,-0.00033005,-0.00005374,0.00004102,-0.00000808,-0.000
 05017,-0.00000420,0.00001595,0.00005296,0.00031168,-0.00018945,0.06348
 452,0.44307544,0.27097006,-0.00304822,0.00386843,0.00282199,0.00138422
 ,0.00045160,0.00021679,-0.00085705,0.00064083,-0.00047531,-0.00112085,
 -0.00029204,-0.00070265,-0.00097135,-0.00052012,0.00055650,-0.00001410
 ,0.00002680,-0.00003640,-0.00010557,-0.00004662,-0.00014163,-0.0007519
 9,-0.00045980,0.00047171,-0.07802468,-0.09493445,-0.02826138,0.0547143
 4,0.00020823,0.00031321,-0.00051791,0.00085726,-0.00051757,-0.00016173
 ,0.00051540,-0.00003369,0.00020407,0.00030387,0.00028582,0.00015470,0.
 00024005,0.00028100,-0.00019987,0.00002857,-0.00003030,0.00004423,0.00
 003279,0.00001352,0.00001929,-0.00049280,-0.00076428,0.00043811,-0.094
 21907,-0.85694729,-0.22387204,0.11268537,0.97280572,0.00026784,-0.0006
 3497,-0.00001240,0.00015932,-0.00023253,-0.00000855,0.00021256,0.00001
 688,0.00006823,0.00019353,-0.00001439,0.00004412,0.00057147,0.00003157
 ,0.00008344,0.00001407,-0.00001383,0.00001091,0.00003853,0.00001412,0.
 00001544,0.00018180,0.00011463,-0.00029187,-0.02801873,-0.22355091,-0.
 13605349,0.03099135,0.26699741,0.11259618,-0.00375324,-0.00363707,0.00
 077744,-0.00106209,0.00112284,0.00017113,-0.00096867,-0.00012467,-0.00
 032467,-0.00073394,-0.00035045,-0.00026052,0.00034782,-0.00064974,0.00
 019353,-0.00006757,0.00009730,-0.00013582,-0.00009726,0.00002312,-0.00
 005686,-0.00017680,0.00042069,-0.00002330,-0.08534248,-0.11933270,-0.0
 3429032,0.02956888,-0.01948687,-0.00486514,0.06221139,0.00021680,0.000
 58781,0.00042567,0.00048782,0.00024454,0.00009856,-0.00009138,0.000203
 47,-0.00005732,-0.00041579,0.00005202,-0.00027844,-0.00042214,0.000024
 70,0.00009064,0.00000252,0.00002412,0.00000566,-0.00002795,-0.00002834
 ,-0.00004052,-0.00023213,-0.00018945,0.00014003,-0.12001057,-0.8523232
 3,-0.21816595,-0.02135280,-0.11566300,-0.04285733,0.14207007,0.9669284
 5,0.00075149,0.00083352,0.00044108,0.00041848,-0.00010597,0.00020178,0
 .00010383,0.00010147,0.00001237,0.00001142,-0.00000946,-0.00002949,-0.
 00009558,-0.00000674,0.00002974,0.00003233,-0.00001453,-0.00001414,0.0
 0000774,-0.00000014,-0.00001353,-0.00004884,-0.00014552,0.00008399,-0.
 03449666,-0.21836484,-0.13334943,-0.00541880,-0.04303612,0.02347872,0.
 03883953,0.26068315,0.10919601,-0.00058318,-0.00167233,-0.00016283,-0.
 00494350,0.00712238,0.00620196,0.00079352,0.00050838,0.00071433,0.0004
 8242,0.00017978,-0.00052814,-0.00047827,0.00097839,0.00013052,-0.00008
 457,0.00002003,0.00023943,0.00003739,0.00006953,-0.00010404,-0.0923144
 8,0.03135244,0.09597605,-0.00006839,-0.00004947,-0.00002468,-0.0000353
 5,-0.00003901,-0.00012231,0.00004002,0.00002118,0.00000643,0.09429650,
 0.00282222,0.00410019,-0.00149081,0.01755036,-0.02390536,-0.02829250,-
 0.00276622,0.00162524,-0.00213981,-0.00165913,-0.00246205,0.00012857,0
 .00218118,-0.00309431,0.00254186,0.00009670,0.00002251,-0.00013493,-0.
 00009470,-0.00010627,0.00023197,0.02866221,-0.06881826,-0.06506898,0.0
 0014956,-0.00014154,-0.00006715,-0.00004415,0.00006069,0.00000684,-0.0
 0006270,0.00004893,0.00002629,-0.03958347,0.08409450,0.00014008,-0.000
 68161,0.00023101,-0.00373916,0.00177745,0.01006954,-0.00038865,0.00035
 956,0.00016987,0.00003554,-0.00015404,-0.00025775,0.00009062,0.0004019
 2,-0.00019042,-0.00004691,-0.00004593,-0.00002276,0.00001857,0.0000218
 5,-0.00008641,0.09810690,-0.07231282,-0.26699111,-0.00000095,-0.000279
 91,-0.00009615,0.00029897,0.00024641,-0.00001561,-0.00001062,0.0001811
 1,0.00005391,-0.10551405,0.07695073,0.27775326,0.00073520,-0.00230762,
 -0.00015637,-0.00935471,0.00310791,-0.00590410,0.00123365,0.00145054,-
 0.00051425,-0.00061584,-0.00004275,0.00012547,-0.00010763,0.00033725,0
 .00038773,0.00018615,-0.00003287,0.00000139,0.00011880,0.00012963,0.00
 003177,-0.17713551,0.01252922,-0.14272055,-0.00000060,0.00038475,0.000
 06003,-0.00042790,-0.00034195,0.00033408,0.00003947,-0.00010773,-0.000
 06455,0.01053423,-0.00179394,0.01046043,0.18806771,0.00092637,0.003574
 33,-0.00020429,0.03117773,-0.01109167,0.02795282,-0.00325952,-0.003050
 67,0.00072463,0.00082420,-0.00177960,-0.00008204,0.00120675,-0.0006638
 8,0.00017103,-0.00001654,0.00007503,0.00007099,-0.00011195,-0.00039745
 ,-0.00033580,0.00263206,-0.04915094,0.00426961,0.00004378,0.00003054,-
 0.00004737,-0.00016722,-0.00001820,0.00012020,-0.00000608,0.00000554,-
 0.00000360,-0.00706304,0.00137193,-0.00534758,-0.01626171,0.05834362,0
 .00020628,-0.00163853,0.00041264,-0.00002103,0.00142662,0.00066704,0.0
 0088068,-0.00070741,0.00020902,0.00036258,-0.00004715,0.00034346,-0.00
 025015,0.00074531,-0.00008863,-0.00001757,-0.00001821,0.00001371,0.000
 06253,-0.00002823,-0.00003557,-0.14490879,0.01364598,-0.20803594,0.000
 07151,0.00049133,0.00012598,-0.00032332,-0.00030917,-0.00000827,-0.000
 00524,-0.00021777,-0.00008486,-0.01843805,0.00154703,-0.01678422,0.155
 76221,-0.01294505,0.21567971,-0.00098294,0.00088220,-0.00075263,0.0117
 1233,0.01126309,-0.00361616,0.00045317,0.00068580,-0.00016293,0.000489
 14,-0.00041076,-0.00031491,0.00016703,0.00171290,0.00056604,-0.0000525
 4,0.00002437,0.00027053,-0.00003209,0.00000107,0.00006527,-0.24361984,
 -0.13204299,0.05311416,0.00001496,0.00028252,0.00009274,-0.00031037,-0
 .00029183,0.00004163,-0.00000554,-0.00013790,-0.00004681,-0.00767634,-
 0.00545792,0.00054922,-0.01327303,-0.00992484,0.00661836,0.25311606,0.
 00468140,-0.00207351,0.00361811,-0.03010891,-0.02661211,0.00507183,-0.
 00108151,0.00162540,-0.00052452,-0.00079874,-0.00019126,-0.00020444,-0
 .00006840,-0.00316658,-0.00095584,0.00032486,-0.00003035,0.00023453,0.
 00009592,0.00006262,-0.00002223,-0.11780906,-0.13006220,0.03372992,0.0
 0018530,-0.00020335,-0.00009454,0.00014417,0.00021438,0.00000231,-0.00
 008375,0.00008443,0.00004250,0.00815521,0.00720379,-0.00111711,0.00294
 924,0.00275142,-0.00194477,0.13341429,0.15039731,-0.00036056,-0.001781
 92,-0.00002966,0.00061272,0.00169830,-0.00142240,0.00012880,-0.0001920
 9,0.00053253,0.00048203,0.00038716,-0.00011056,-0.00070456,0.00055217,
 0.00022707,-0.00012678,0.00009675,0.00006262,0.00003449,-0.00001989,-0
 .00005633,0.05251072,0.03565139,-0.06345567,0.00003253,0.00004142,0.00
 000663,0.00000216,-0.00000739,0.00009316,-0.00000913,-0.00000750,-0.00
 000615,0.02162538,0.01576090,-0.00383317,-0.01780329,-0.01434354,0.007
 58594,-0.05642451,-0.03783576,0.06040599\\-0.00002618,-0.00001414,-0.0
 0005733,-0.00001774,-0.00001377,0.00004655,0.00002548,-0.00004449,-0.0
 0000436,0.00002272,0.00001049,-0.00000369,-0.00000516,0.00004796,0.000
 01620,0.00000588,-0.00000704,-0.00001040,-0.00000699,-0.00000546,0.000
 00860,0.00001991,-0.00002874,0.00002165,0.00001369,-0.00001897,0.00011
 580,-0.00000363,0.00002601,-0.00005269,-0.00001555,0.00002798,-0.00005
 404,-0.00000122,0.00001026,-0.00000706,-0.00000897,0.00001473,-0.00000
 299,-0.00000223,-0.00000481,-0.00001623\\\@
 The archive entry for this job was punched.


 A SCIENTIST IS SOMEONE WHOSE CURIOSITY SURVIVES
 EDUCATION'S ASSAULTS ON IT.
                          - SIR HERMANN BONDI
 Job cpu time:       0 days  0 hours 39 minutes 37.0 seconds.
 Elapsed time:       0 days  0 hours  0 minutes 52.4 seconds.
 File lengths (MBytes):  RWF=     96 Int=      0 D2E=      0 Chk=      9 Scr=      1
 Normal termination of Gaussian 16 at Wed Nov 29 22:43:20 2023.
