 Entering Gaussian System, Link 0=/opt/soft/g16/g16
 Initial command:
 /opt/soft/g16/l1.exe "/scratch/gongke2021/2-H-1-H-Tz-PC/Gau-503.inp" -scrdir="/scratch/gongke2021/2-H-1-H-Tz-PC/"
 Entering Link 1 = /opt/soft/g16/l1.exe PID=       504.
  
 Copyright (c) 1988,1990,1992,1993,1995,1998,2003,2009,2016,
            Gaussian, Inc.  All Rights Reserved.
  
 This is part of the Gaussian(R) 16 program.  It is based on
 the Gaussian(R) 09 system (copyright 2009, Gaussian, Inc.),
 the Gaussian(R) 03 system (copyright 2003, Gaussian, Inc.),
 the Gaussian(R) 98 system (copyright 1998, Gaussian, Inc.),
 the Gaussian(R) 94 system (copyright 1995, Gaussian, Inc.),
 the Gaussian 92(TM) system (copyright 1992, Gaussian, Inc.),
 the Gaussian 90(TM) system (copyright 1990, Gaussian, Inc.),
 the Gaussian 88(TM) system (copyright 1988, Gaussian, Inc.),
 the Gaussian 86(TM) system (copyright 1986, Carnegie Mellon
 University), and the Gaussian 82(TM) system (copyright 1983,
 Carnegie Mellon University). Gaussian is a federally registered
 trademark of Gaussian, Inc.
  
 This software contains proprietary and confidential information,
 including trade secrets, belonging to Gaussian, Inc.
  
 This software is provided under written license and may be
 used, copied, transmitted, or stored only in accord with that
 written license.
  
 The following legend is applicable only to US Government
 contracts under FAR:
  
                    RESTRICTED RIGHTS LEGEND
  
 Use, reproduction and disclosure by the US Government is
 subject to restrictions as set forth in subparagraphs (a)
 and (c) of the Commercial Computer Software - Restricted
 Rights clause in FAR 52.227-19.
  
 Gaussian, Inc.
 340 Quinnipiac St., Bldg. 40, Wallingford CT 06492
  
  
 ---------------------------------------------------------------
 Warning -- This program may not be used in any manner that
 competes with the business of Gaussian, Inc. or will provide
 assistance to any competitor of Gaussian, Inc.  The licensee
 of this program is prohibited from giving any competitor of
 Gaussian, Inc. access to this program.  By using this program,
 the user acknowledges that Gaussian, Inc. is engaged in the
 business of creating and licensing software in the field of
 computational chemistry and represents and warrants to the
 licensee that it is not a competitor of Gaussian, Inc. and that
 it will not use this program in any manner prohibited above.
 ---------------------------------------------------------------
  

 Cite this work as:
 Gaussian 16, Revision A.03,
 M. J. Frisch, G. W. Trucks, H. B. Schlegel, G. E. Scuseria, 
 M. A. Robb, J. R. Cheeseman, G. Scalmani, V. Barone, 
 G. A. Petersson, H. Nakatsuji, X. Li, M. Caricato, A. V. Marenich, 
 J. Bloino, B. G. Janesko, R. Gomperts, B. Mennucci, H. P. Hratchian, 
 J. V. Ortiz, A. F. Izmaylov, J. L. Sonnenberg, D. Williams-Young, 
 F. Ding, F. Lipparini, F. Egidi, J. Goings, B. Peng, A. Petrone, 
 T. Henderson, D. Ranasinghe, V. G. Zakrzewski, J. Gao, N. Rega, 
 G. Zheng, W. Liang, M. Hada, M. Ehara, K. Toyota, R. Fukuda, 
 J. Hasegawa, M. Ishida, T. Nakajima, Y. Honda, O. Kitao, H. Nakai, 
 T. Vreven, K. Throssell, J. A. Montgomery, Jr., J. E. Peralta, 
 F. Ogliaro, M. J. Bearpark, J. J. Heyd, E. N. Brothers, K. N. Kudin, 
 V. N. Staroverov, T. A. Keith, R. Kobayashi, J. Normand, 
 K. Raghavachari, A. P. Rendell, J. C. Burant, S. S. Iyengar, 
 J. Tomasi, M. Cossi, J. M. Millam, M. Klene, C. Adamo, R. Cammi, 
 J. W. Ochterski, R. L. Martin, K. Morokuma, O. Farkas, 
 J. B. Foresman, and D. J. Fox, Gaussian, Inc., Wallingford CT, 2016.
 
 ******************************************
 Gaussian 16:  ES64L-G16RevA.03 25-Dec-2016
                13-May-2023 
 ******************************************
 %mem=10GB
 %nprocshared=24
 Will use up to   24 processors via shared memory.
 -----------------------------------------------------
 # opt freq 6-31+g(d,p) scrf=(smd,solvent=water) m062x
 -----------------------------------------------------
 1/18=20,19=15,26=3,38=1/1,3;
 2/9=110,12=2,17=6,18=5,40=1/2;
 3/5=1,6=6,7=111,11=2,25=1,30=1,70=32201,71=1,72=1,74=-55/1,2,3;
 4//1;
 5/5=2,38=5,53=1/2;
 6/7=2,8=2,9=2,10=2,28=1/1;
 7//1,2,3,16;
 1/18=20,19=15,26=3/3(2);
 2/9=110/2;
 99//99;
 2/9=110/2;
 3/5=1,6=6,7=111,11=2,25=1,30=1,70=32205,71=1,72=1,74=-55/1,2,3;
 4/5=5,16=3,69=1/1;
 5/5=2,38=5,53=1/2;
 7//1,2,3,16;
 1/18=20,19=15,26=3/3(-5);
 2/9=110/2;
 6/7=2,8=2,9=2,10=2,19=2,28=1/1;
 99/9=1/99;
 ----------
 2-H-1-H-Tz
 ----------
 Symbolic Z-matrix:
 Charge =  1 Multiplicity = 1
 N                    -0.56169  -0.90033   0.00024 
 N                    -1.85149  -0.74439   0.00004 
 C                    -2.15738   0.5638   -0.00013 
 C                    -0.94048   1.23404  -0.00008 
 N                    -0.01213   0.27006   0.00015 
 H                    -3.17822   0.91514  -0.00025 
 H                    -0.69855   2.28624  -0.00021 
 H                    -2.47669  -1.55686  -0.00001 
 H                     0.98024  -2.10686   0.01815 
 C                     1.60514   0.03445  -0.00003 
 O                     1.72417  -1.20409  -0.00023 
 O                     2.26462   1.02828   0.0001 
 
 Add virtual bond connecting atoms O11        and H9         Dist= 2.21D+00.

 GradGradGradGradGradGradGradGradGradGradGradGradGradGradGradGradGradGrad
 Berny optimization.
 Initialization pass.
                           ----------------------------
                           !    Initial Parameters    !
                           ! (Angstroms and Degrees)  !
 --------------------------                            --------------------------
 ! Name  Definition              Value          Derivative Info.                !
 --------------------------------------------------------------------------------
 ! R1    R(1,2)                  1.2992         estimate D2E/DX2                !
 ! R2    R(1,5)                  1.293          estimate D2E/DX2                !
 ! R3    R(2,3)                  1.3435         estimate D2E/DX2                !
 ! R4    R(2,8)                  1.0252         estimate D2E/DX2                !
 ! R5    R(3,4)                  1.3893         estimate D2E/DX2                !
 ! R6    R(3,6)                  1.0796         estimate D2E/DX2                !
 ! R7    R(4,5)                  1.3383         estimate D2E/DX2                !
 ! R8    R(4,7)                  1.0797         estimate D2E/DX2                !
 ! R9    R(5,10)                 1.6343         estimate D2E/DX2                !
 ! R10   R(9,11)                 1.1699         estimate D2E/DX2                !
 ! R11   R(10,11)                1.2442         estimate D2E/DX2                !
 ! R12   R(10,12)                1.1927         estimate D2E/DX2                !
 ! A1    A(2,1,5)              108.2587         estimate D2E/DX2                !
 ! A2    A(1,2,3)              110.0544         estimate D2E/DX2                !
 ! A3    A(1,2,8)              120.6852         estimate D2E/DX2                !
 ! A4    A(3,2,8)              129.2604         estimate D2E/DX2                !
 ! A5    A(2,3,4)              105.6843         estimate D2E/DX2                !
 ! A6    A(2,3,6)              122.1524         estimate D2E/DX2                !
 ! A7    A(4,3,6)              132.1633         estimate D2E/DX2                !
 ! A8    A(3,4,5)              105.0761         estimate D2E/DX2                !
 ! A9    A(3,4,7)              131.7942         estimate D2E/DX2                !
 ! A10   A(5,4,7)              123.1296         estimate D2E/DX2                !
 ! A11   A(1,5,4)              110.9265         estimate D2E/DX2                !
 ! A12   A(1,5,10)             106.8638         estimate D2E/DX2                !
 ! A13   A(4,5,10)             142.2098         estimate D2E/DX2                !
 ! A14   A(5,10,11)            103.7779         estimate D2E/DX2                !
 ! A15   A(5,10,12)            115.2787         estimate D2E/DX2                !
 ! A16   A(11,10,12)           140.9433         estimate D2E/DX2                !
 ! A17   A(9,11,10)            135.0132         estimate D2E/DX2                !
 ! D1    D(5,1,2,3)             -0.0024         estimate D2E/DX2                !
 ! D2    D(5,1,2,8)            179.9948         estimate D2E/DX2                !
 ! D3    D(2,1,5,4)              0.0016         estimate D2E/DX2                !
 ! D4    D(2,1,5,10)          -179.9844         estimate D2E/DX2                !
 ! D5    D(1,2,3,4)              0.0023         estimate D2E/DX2                !
 ! D6    D(1,2,3,6)           -179.9965         estimate D2E/DX2                !
 ! D7    D(8,2,3,4)           -179.9946         estimate D2E/DX2                !
 ! D8    D(8,2,3,6)              0.0066         estimate D2E/DX2                !
 ! D9    D(2,3,4,5)             -0.0012         estimate D2E/DX2                !
 ! D10   D(2,3,4,7)            179.9974         estimate D2E/DX2                !
 ! D11   D(6,3,4,5)            179.9974         estimate D2E/DX2                !
 ! D12   D(6,3,4,7)             -0.004          estimate D2E/DX2                !
 ! D13   D(3,4,5,1)             -0.0002         estimate D2E/DX2                !
 ! D14   D(3,4,5,10)           179.978          estimate D2E/DX2                !
 ! D15   D(7,4,5,1)           -179.999          estimate D2E/DX2                !
 ! D16   D(7,4,5,10)            -0.0208         estimate D2E/DX2                !
 ! D17   D(1,5,10,11)            0.0105         estimate D2E/DX2                !
 ! D18   D(1,5,10,12)         -179.9877         estimate D2E/DX2                !
 ! D19   D(4,5,10,11)         -179.9682         estimate D2E/DX2                !
 ! D20   D(4,5,10,12)            0.0336         estimate D2E/DX2                !
 ! D21   D(5,10,11,9)           -1.2785         estimate D2E/DX2                !
 ! D22   D(12,10,11,9)         178.719          estimate D2E/DX2                !
 --------------------------------------------------------------------------------
 Trust Radius=3.00D-01 FncErr=1.00D-07 GrdErr=1.00D-06 EigMax=2.50D+02 EigMin=1.00D-04
 Number of steps in this run=     61 maximum allowed number of steps=    100.
 GradGradGradGradGradGradGradGradGradGradGradGradGradGradGradGradGradGrad

                          Input orientation:                          
 ---------------------------------------------------------------------
 Center     Atomic      Atomic             Coordinates (Angstroms)
 Number     Number       Type             X           Y           Z
 ---------------------------------------------------------------------
      1          7           0       -0.561687   -0.900331    0.000239
      2          7           0       -1.851485   -0.744394    0.000043
      3          6           0       -2.157375    0.563800   -0.000131
      4          6           0       -0.940484    1.234040   -0.000081
      5          7           0       -0.012134    0.270058    0.000146
      6          1           0       -3.178217    0.915136   -0.000253
      7          1           0       -0.698549    2.286240   -0.000208
      8          1           0       -2.476693   -1.556864   -0.000006
      9          1           0        0.980244   -2.106859    0.018147
     10          6           0        1.605141    0.034454   -0.000028
     11          8           0        1.724168   -1.204088   -0.000230
     12          8           0        2.264617    1.028277    0.000103
 ---------------------------------------------------------------------
                    Distance matrix (angstroms):
                    1          2          3          4          5
     1  N    0.000000
     2  N    1.299190   0.000000
     3  C    2.165618   1.343481   0.000000
     4  C    2.167724   2.178101   1.389261   0.000000
     5  N    1.292988   2.100553   2.165258   1.338318   0.000000
     6  H    3.184674   2.124678   1.079609   2.260343   3.231131
     7  H    3.189509   3.242530   2.257205   1.079656   2.129825
     8  H    2.024422   1.025179   2.144570   3.185763   3.067849
     9  H    1.957953   3.142503   4.120365   3.853717   2.575824
    10  C    2.359866   3.543285   3.799570   2.814110   1.634346
    11  O    2.305949   3.605082   4.265185   3.611764   2.277685
    12  O    3.421626   4.481591   4.446319   3.211699   2.399686
                    6          7          8          9         10
     6  H    0.000000
     7  H    2.833492   0.000000
     8  H    2.569615   4.234530   0.000000
     9  H    5.140583   4.702978   3.500462   0.000000
    10  C    4.863755   3.221417   4.381057   2.230706   0.000000
    11  O    5.340832   4.248758   4.215648   1.169938   1.244248
    12  O    5.444010   3.219134   5.400275   3.388070   1.192725
                   11         12
    11  O    0.000000
    12  O    2.296854   0.000000
 Stoichiometry    C3H4N3O2(1+)
 Framework group  C1[X(C3H4N3O2)]
 Deg. of freedom    30
 Full point group                 C1      NOp   1
 Largest Abelian subgroup         C1      NOp   1
 Largest concise Abelian subgroup C1      NOp   1
                         Standard orientation:                         
 ---------------------------------------------------------------------
 Center     Atomic      Atomic             Coordinates (Angstroms)
 Number     Number       Type             X           Y           Z
 ---------------------------------------------------------------------
      1          7           0       -0.559309   -0.899855   -0.000637
      2          7           0       -1.851174   -0.762086   -0.000587
      3          6           0       -2.175445    0.541674    0.000192
      4          6           0       -0.968107    1.228973    0.000585
      5          7           0       -0.026282    0.278152    0.000036
      6          1           0       -3.201130    0.878608    0.000425
      7          1           0       -0.741004    2.284474    0.001173
      8          1           0       -2.464886   -1.583274   -0.001142
      9          1           0        0.999451   -2.084575    0.016260
     10          6           0        1.594149    0.065332   -0.000475
     11          8           0        1.730594   -1.171411   -0.001561
     12          8           0        2.239573    1.068338    0.000286
 ---------------------------------------------------------------------
 Rotational constants (GHZ):           5.2995620           1.7025572           1.2885844
 Standard basis: 6-31+G(d,p) (6D, 7F)
 There are   172 symmetry adapted cartesian basis functions of A   symmetry.
 There are   172 symmetry adapted basis functions of A   symmetry.
   172 basis functions,   284 primitive gaussians,   172 cartesian basis functions
    29 alpha electrons       29 beta electrons
       nuclear repulsion energy       373.2744014125 Hartrees.
 NAtoms=   12 NActive=   12 NUniq=   12 SFac= 1.00D+00 NAtFMM=   60 NAOKFM=F Big=F
 Integral buffers will be    131072 words long.
 Raffenetti 2 integral format.
 Two-electron integral symmetry is turned on.
 ------------------------------------------------------------------------------
 Polarizable Continuum Model (PCM)
 =================================
 Model                : PCM.
 Atomic radii         : SMD-Coulomb.
 Polarization charges : Total charges.
 Charge compensation  : None.
 Solution method      : On-the-fly selection.
 Cavity type          : VdW (van der Waals Surface) (Alpha=1.000).
 Cavity algorithm     : GePol (No added spheres)
                        Default sphere list used, NSphG=   12.
                        Lebedev-Laikov grids with approx.  5.0 points / Ang**2.
                        Smoothing algorithm: York/Karplus (Gamma=1.0000).
                        Polarization charges: spherical gaussians, with
                                              point-specific exponents (IZeta= 3).
                        Self-potential: point-specific (ISelfS= 7).
                        Self-field    : sphere-specific E.n sum rule (ISelfD= 2).
 1st derivatives      : Analytical E(r).r(x)/FMM algorithm (CHGder, D1EAlg=3).
                        Cavity 1st derivative terms included.
 Solvent              : Water, Eps=  78.355300 Eps(inf)=   1.777849
 ------------------------------------------------------------------------------
 Spheres list:
 ISph  on   Nord     Re0    Alpha      Xe            Ye            Ze
    1   N      1    1.8900  1.000     -0.559309     -0.899855     -0.000637
    2   N      2    1.8900  1.000     -1.851174     -0.762086     -0.000587
    3   C      3    1.8500  1.000     -2.175445      0.541674      0.000192
    4   C      4    1.8500  1.000     -0.968107      1.228973      0.000585
    5   N      5    1.8900  1.000     -0.026282      0.278152      0.000036
    6   H      6    1.2000  1.000     -3.201130      0.878608      0.000425
    7   H      7    1.2000  1.000     -0.741004      2.284474      0.001173
    8   H      8    1.2000  1.000     -2.464886     -1.583274     -0.001142
    9   H      9    1.2000  1.000      0.999451     -2.084575      0.016260
   10   C     10    1.8500  1.000      1.594149      0.065332     -0.000475
   11   O     11    1.5200  1.000      1.730594     -1.171411     -0.001561
   12   O     12    1.5200  1.000      2.239573      1.068338      0.000286
 ------------------------------------------------------------------------------
 ------------------------------------------------------------------------------
 Atomic radii for non-electrostatic terms: SMD-CDS.
 ------------------------------------------------------------------------------
 Nuclear repulsion after PCM non-electrostatic terms =      373.2838899448 Hartrees.
 One-electron integrals computed using PRISM.
 NBasis=   172 RedAO= T EigKep=  2.31D-05  NBF=   172
 NBsUse=   172 1.00D-06 EigRej= -1.00D+00 NBFU=   172
 ExpMin= 4.38D-02 ExpMax= 5.48D+03 ExpMxC= 8.25D+02 IAcc=3 IRadAn=         5 AccDes= 0.00D+00
 Harris functional with IExCor= 1009 and IRadAn=       5 diagonalized for initial guess.
 HarFok:  IExCor= 1009 AccDes= 0.00D+00 IRadAn=         5 IDoV= 1 UseB2=F ITyADJ=14
 ICtDFT=  3500011 ScaDFX=  1.000000  1.000000  1.000000  1.000000
 FoFCou: FMM=F IPFlag=           0 FMFlag=      100000 FMFlg1=           0
         NFxFlg=           0 DoJE=T BraDBF=F KetDBF=T FulRan=T
         wScrn=  0.000000 ICntrl=       500 IOpCl=  0 I1Cent=   200000004 NGrid=           0
         NMat0=    1 NMatS0=      1 NMatT0=    0 NMatD0=    1 NMtDS0=    0 NMtDT0=    0
 Petite list used in FoFCou.
 Keep R1 ints in memory in canonical form, NReq=134699993.
 Requested convergence on RMS density matrix=1.00D-08 within 128 cycles.
 Requested convergence on MAX density matrix=1.00D-06.
 Requested convergence on             energy=1.00D-06.
 No special actions if energy rises.
 Inv3:  Mode=1 IEnd=     3288627.
 Iteration    1 A*A^-1 deviation from unit magnitude is 3.11D-15 for    377.
 Iteration    1 A*A^-1 deviation from orthogonality  is 1.64D-15 for    630     22.
 Iteration    1 A^-1*A deviation from unit magnitude is 3.11D-15 for     60.
 Iteration    1 A^-1*A deviation from orthogonality  is 1.73D-15 for    539    223.
 Error on total polarization charges =  0.02673
 SCF Done:  E(RM062X) =  -431.032583363     A.U. after   14 cycles
            NFock= 14  Conv=0.19D-08     -V/T= 2.0089
 SMD-CDS (non-electrostatic) energy       (kcal/mol) =       5.95
 (included in total energy above)

 **********************************************************************

            Population analysis using the SCF density.

 **********************************************************************

 Orbital symmetries:
       Occupied  (A) (A) (A) (A) (A) (A) (A) (A) (A) (A) (A) (A)
                 (A) (A) (A) (A) (A) (A) (A) (A) (A) (A) (A) (A)
                 (A) (A) (A) (A) (A)
       Virtual   (A) (A) (A) (A) (A) (A) (A) (A) (A) (A) (A) (A)
                 (A) (A) (A) (A) (A) (A) (A) (A) (A) (A) (A) (A)
                 (A) (A) (A) (A) (A) (A) (A) (A) (A) (A) (A) (A)
                 (A) (A) (A) (A) (A) (A) (A) (A) (A) (A) (A) (A)
                 (A) (A) (A) (A) (A) (A) (A) (A) (A) (A) (A) (A)
                 (A) (A) (A) (A) (A) (A) (A) (A) (A) (A) (A) (A)
                 (A) (A) (A) (A) (A) (A) (A) (A) (A) (A) (A) (A)
                 (A) (A) (A) (A) (A) (A) (A) (A) (A) (A) (A) (A)
                 (A) (A) (A) (A) (A) (A) (A) (A) (A) (A) (A) (A)
                 (A) (A) (A) (A) (A) (A) (A) (A) (A) (A) (A) (A)
                 (A) (A) (A) (A) (A) (A) (A) (A) (A) (A) (A) (A)
                 (A) (A) (A) (A) (A) (A) (A) (A) (A) (A) (A)
 The electronic state is 1-A.
 Alpha  occ. eigenvalues --  -19.74371 -19.70355 -14.91503 -14.91072 -14.89307
 Alpha  occ. eigenvalues --  -10.79328 -10.63900 -10.63809  -1.32356  -1.28449
 Alpha  occ. eigenvalues --   -1.21650  -1.09666  -0.97241  -0.82254  -0.79389
 Alpha  occ. eigenvalues --   -0.75614  -0.70238  -0.65864  -0.63692  -0.60687
 Alpha  occ. eigenvalues --   -0.58614  -0.56859  -0.55570  -0.50060  -0.44930
 Alpha  occ. eigenvalues --   -0.44865  -0.44049  -0.42682  -0.36808
 Alpha virt. eigenvalues --   -0.03604   0.00170   0.01915   0.02733   0.03331
 Alpha virt. eigenvalues --    0.04259   0.04721   0.05540   0.06637   0.06660
 Alpha virt. eigenvalues --    0.08566   0.08623   0.10076   0.11484   0.11724
 Alpha virt. eigenvalues --    0.12662   0.13834   0.15425   0.15742   0.17213
 Alpha virt. eigenvalues --    0.19777   0.19964   0.22531   0.22536   0.22897
 Alpha virt. eigenvalues --    0.23524   0.24323   0.25003   0.25661   0.26427
 Alpha virt. eigenvalues --    0.27326   0.28306   0.28556   0.30200   0.31086
 Alpha virt. eigenvalues --    0.31767   0.32016   0.33478   0.35114   0.37589
 Alpha virt. eigenvalues --    0.39206   0.40854   0.42344   0.44531   0.48482
 Alpha virt. eigenvalues --    0.50969   0.63294   0.69131   0.70889   0.73467
 Alpha virt. eigenvalues --    0.76000   0.79995   0.83129   0.86177   0.87068
 Alpha virt. eigenvalues --    0.89255   0.89749   0.89978   0.91662   0.93219
 Alpha virt. eigenvalues --    0.94410   0.95565   0.98008   1.03863   1.06778
 Alpha virt. eigenvalues --    1.12899   1.14662   1.17278   1.18988   1.22371
 Alpha virt. eigenvalues --    1.22541   1.23057   1.27762   1.28707   1.30574
 Alpha virt. eigenvalues --    1.32210   1.33533   1.33546   1.36499   1.38838
 Alpha virt. eigenvalues --    1.38942   1.43080   1.46685   1.50049   1.52170
 Alpha virt. eigenvalues --    1.57532   1.58930   1.63371   1.68020   1.70917
 Alpha virt. eigenvalues --    1.72901   1.78296   1.86395   1.88768   1.90646
 Alpha virt. eigenvalues --    1.94701   1.95891   2.02548   2.04496   2.05131
 Alpha virt. eigenvalues --    2.11064   2.11907   2.14232   2.17998   2.18634
 Alpha virt. eigenvalues --    2.23180   2.31484   2.33382   2.33646   2.35881
 Alpha virt. eigenvalues --    2.38489   2.40347   2.46981   2.49291   2.49946
 Alpha virt. eigenvalues --    2.53768   2.60092   2.62045   2.67282   2.73319
 Alpha virt. eigenvalues --    2.75212   2.75287   2.81694   2.81917   2.88998
 Alpha virt. eigenvalues --    2.94478   3.00402   3.12675   3.15366   3.19359
 Alpha virt. eigenvalues --    3.25293   3.29480   3.49223   3.54307   3.76995
 Alpha virt. eigenvalues --    3.99066   4.15077   4.20478   4.28783   4.43125
 Alpha virt. eigenvalues --    4.55513   4.68688   4.75885
          Condensed to atoms (all electrons):
               1          2          3          4          5          6
     1  N    7.683125  -0.802699   0.207901  -0.183628   0.050469   0.015997
     2  N   -0.802699   7.549256   0.034060   0.132200   0.146512  -0.037510
     3  C    0.207901   0.034060   5.374061   0.143008  -0.051686   0.368279
     4  C   -0.183628   0.132200   0.143008   5.411854   0.347639  -0.000795
     5  N    0.050469   0.146512  -0.051686   0.347639   6.715335  -0.008551
     6  H    0.015997  -0.037510   0.368279  -0.000795  -0.008551   0.374133
     7  H   -0.001465   0.004902  -0.017647   0.395855  -0.036141   0.000118
     8  H   -0.003561   0.289506   0.007881  -0.017028   0.010363  -0.000692
     9  H    0.014145   0.038303  -0.005141   0.003410  -0.000150  -0.000000
    10  C    0.061242  -0.032066  -0.003137  -0.060958   0.037008  -0.000039
    11  O    0.020990  -0.009781   0.008787  -0.002700  -0.147681   0.000057
    12  O    0.020809  -0.011488   0.028167  -0.065654  -0.052559  -0.000025
               7          8          9         10         11         12
     1  N   -0.001465  -0.003561   0.014145   0.061242   0.020990   0.020809
     2  N    0.004902   0.289506   0.038303  -0.032066  -0.009781  -0.011488
     3  C   -0.017647   0.007881  -0.005141  -0.003137   0.008787   0.028167
     4  C    0.395855  -0.017028   0.003410  -0.060958  -0.002700  -0.065654
     5  N   -0.036141   0.010363  -0.000150   0.037008  -0.147681  -0.052559
     6  H    0.000118  -0.000692  -0.000000  -0.000039   0.000057  -0.000025
     7  H    0.374240  -0.000047   0.000001  -0.004788  -0.000651   0.000771
     8  H   -0.000047   0.251280  -0.000063   0.001138   0.000473   0.000026
     9  H    0.000001  -0.000063   0.184356  -0.012068   0.183167   0.001251
    10  C   -0.004788   0.001138  -0.012068   4.289064   0.343558   0.527919
    11  O   -0.000651   0.000473   0.183167   0.343558   8.115343  -0.091372
    12  O    0.000771   0.000026   0.001251   0.527919  -0.091372   8.109680
 Mulliken charges:
               1
     1  N   -0.083325
     2  N   -0.301194
     3  C   -0.094532
     4  C   -0.103202
     5  N   -0.010557
     6  H    0.289029
     7  H    0.284853
     8  H    0.460723
     9  H    0.592790
    10  C    0.853127
    11  O   -0.420189
    12  O   -0.467523
 Sum of Mulliken charges =   1.00000
 Mulliken charges with hydrogens summed into heavy atoms:
               1
     1  N   -0.083325
     2  N    0.159529
     3  C    0.194497
     4  C    0.181650
     5  N   -0.010557
    10  C    0.853127
    11  O    0.172601
    12  O   -0.467523
 Electronic spatial extent (au):  <R**2>=            829.8425
 Charge=              1.0000 electrons
 Dipole moment (field-independent basis, Debye):
    X=             -9.0315    Y=             -4.0138    Z=              0.0450  Tot=              9.8834
 Quadrupole moment (field-independent basis, Debye-Ang):
   XX=            -28.5150   YY=            -27.7675   ZZ=            -44.1009
   XY=             -2.8120   XZ=              0.0478   YZ=             -0.0976
 Traceless Quadrupole moment (field-independent basis, Debye-Ang):
   XX=              4.9461   YY=              5.6937   ZZ=            -10.6397
   XY=             -2.8120   XZ=              0.0478   YZ=             -0.0976
 Octapole moment (field-independent basis, Debye-Ang**2):
  XXX=            -78.3043  YYY=            -23.9746  ZZZ=              0.0155  XYY=            -15.0980
  XXY=            -19.1451  XXZ=              0.0357  XZZ=              4.5539  YZZ=             -2.5243
  YYZ=              0.2355  XYZ=             -0.1188
 Hexadecapole moment (field-independent basis, Debye-Ang**3):
 XXXX=           -590.7542 YYYY=           -165.7329 ZZZZ=            -40.0284 XXXY=              5.9166
 XXXZ=              0.0675 YYYX=            -11.5025 YYYZ=             -0.4872 ZZZX=              0.0240
 ZZZY=             -0.0454 XXYY=           -131.9551 XXZZ=           -129.3947 YYZZ=            -52.3984
 XXYZ=             -0.0869 YYXZ=              0.2458 ZZXY=              2.8183
 N-N= 3.732838899448D+02 E-N=-1.740682342317D+03  KE= 4.272447009213D+02
 D1PCM: PCM CHGder 1st derivatives, ID1Alg=3 FixD1E=F DoIter=F DoCFld=F I1PDM=0.
 Calling FoFJK, ICntrl=      2127 FMM=F ISym2X=0 I1Cent= 0 IOpClX= 0 NMat=1 NMatS=1 NMatT=0.
 ***** Axes restored to original set *****
 -------------------------------------------------------------------
 Center     Atomic                   Forces (Hartrees/Bohr)
 Number     Number              X              Y              Z
 -------------------------------------------------------------------
      1        7          -0.022150189   -0.033005350    0.000045170
      2        7           0.012687795    0.015090095    0.000028900
      3        6          -0.002714920    0.016027256   -0.000014036
      4        6          -0.015103287    0.011724094   -0.000006642
      5        7           0.014198728   -0.027181933    0.000006300
      6        1           0.001259626    0.001828566   -0.000009354
      7        1          -0.000864732   -0.000245572   -0.000003227
      8        1           0.003295720    0.002481499    0.000010855
      9        1           0.042258205    0.086734735   -0.001449203
     10        6          -0.059037203    0.036254375    0.000643404
     11        8           0.021536877   -0.087938151    0.000978682
     12        8           0.004633378   -0.021769613   -0.000230849
 -------------------------------------------------------------------
 Cartesian Forces:  Max     0.087938151 RMS     0.027062690

 GradGradGradGradGradGradGradGradGradGradGradGradGradGradGradGradGradGrad
 Berny optimization.
 FormGI is forming the generalized inverse of G from B-inverse, IUseBI=4.
 Internal  Forces:  Max     0.093827545 RMS     0.022100278
 Search for a local minimum.
 Step number   1 out of a maximum of   61
 All quantities printed in internal units (Hartrees-Bohrs-Radians)
 Mixed Optimization -- RFO/linear search
 Second derivative matrix not updated -- first step.
 ITU=  0
     Eigenvalues ---    0.00230   0.01619   0.02017   0.02304   0.02376
     Eigenvalues ---    0.02406   0.02494   0.02608   0.03752   0.16000
     Eigenvalues ---    0.16000   0.16000   0.16000   0.21563   0.22204
     Eigenvalues ---    0.24092   0.25000   0.25000   0.25000   0.26996
     Eigenvalues ---    0.36036   0.36042   0.43522   0.44668   0.49505
     Eigenvalues ---    0.56514   0.63783   0.66665   0.85399   1.08565
 RFO step:  Lambda=-7.53831906D-02 EMin= 2.30000000D-03
 Linear search not attempted -- first point.
 Maximum step size (   0.300) exceeded in Quadratic search.
    -- Step size scaled by   0.617
 Iteration  1 RMS(Cart)=  0.11436884 RMS(Int)=  0.00449497
 Iteration  2 RMS(Cart)=  0.00659843 RMS(Int)=  0.00003543
 Iteration  3 RMS(Cart)=  0.00000535 RMS(Int)=  0.00003524
 Iteration  4 RMS(Cart)=  0.00000000 RMS(Int)=  0.00003524
 Variable       Old X    -DE/DX   Delta X   Delta X   Delta X     New X
                                 (Linear)    (Quad)   (Total)
    R1        2.45511   0.00235   0.00000   0.00204   0.00212   2.45723
    R2        2.44339   0.02085   0.00000   0.01844   0.01847   2.46186
    R3        2.53881   0.00631   0.00000   0.00419   0.00421   2.54302
    R4        1.93731  -0.00397   0.00000  -0.00480  -0.00480   1.93250
    R5        2.62532  -0.01992   0.00000  -0.02389  -0.02395   2.60137
    R6        2.04017  -0.00060   0.00000  -0.00084  -0.00084   2.03932
    R7        2.52905   0.02019   0.00000   0.02032   0.02027   2.54932
    R8        2.04025  -0.00044   0.00000  -0.00062  -0.00062   2.03964
    R9        3.08847   0.00738   0.00000   0.01565   0.01565   3.10412
   R10        2.21086  -0.09383   0.00000  -0.16767  -0.16767   2.04320
   R11        2.35129   0.00729   0.00000   0.00484   0.00484   2.35613
   R12        2.25392  -0.01557   0.00000  -0.00828  -0.00828   2.24565
    A1        1.88947  -0.01975   0.00000  -0.03322  -0.03309   1.85638
    A2        1.92081   0.01918   0.00000   0.03584   0.03591   1.95672
    A3        2.10635  -0.01066   0.00000  -0.02073  -0.02076   2.08559
    A4        2.25602  -0.00852   0.00000  -0.01511  -0.01515   2.24087
    A5        1.84454  -0.00522   0.00000  -0.01818  -0.01823   1.82631
    A6        2.13196   0.00478   0.00000   0.01479   0.01482   2.14678
    A7        2.30668   0.00043   0.00000   0.00339   0.00341   2.31010
    A8        1.83392   0.00661   0.00000   0.01262   0.01250   1.84643
    A9        2.30024  -0.00412   0.00000  -0.00843  -0.00837   2.29187
   A10        2.14902  -0.00250   0.00000  -0.00419  -0.00413   2.14489
   A11        1.93603  -0.00082   0.00000   0.00294   0.00291   1.93894
   A12        1.86512   0.05454   0.00000   0.10119   0.10120   1.96632
   A13        2.48203  -0.05371   0.00000  -0.10412  -0.10411   2.37792
   A14        1.81127   0.05421   0.00000   0.10282   0.10282   1.91409
   A15        2.01199  -0.00920   0.00000  -0.01744  -0.01744   1.99455
   A16        2.45993  -0.04502   0.00000  -0.08538  -0.08538   2.37455
   A17        2.35643  -0.04984   0.00000  -0.13066  -0.13066   2.22576
    D1       -0.00004   0.00001   0.00000   0.00005   0.00005   0.00001
    D2        3.14150   0.00000   0.00000   0.00001   0.00001   3.14151
    D3        0.00003   0.00000   0.00000   0.00002   0.00002   0.00005
    D4       -3.14132  -0.00000   0.00000  -0.00007  -0.00009  -3.14141
    D5        0.00004  -0.00002   0.00000  -0.00010  -0.00010  -0.00006
    D6       -3.14153  -0.00001   0.00000  -0.00004  -0.00004  -3.14158
    D7       -3.14150  -0.00001   0.00000  -0.00005  -0.00005  -3.14155
    D8        0.00012   0.00000   0.00000   0.00000   0.00000   0.00012
    D9       -0.00002   0.00002   0.00000   0.00011   0.00011   0.00009
   D10        3.14155   0.00001   0.00000   0.00008   0.00007  -3.14156
   D11        3.14155   0.00001   0.00000   0.00004   0.00004   3.14159
   D12       -0.00007   0.00000   0.00000   0.00001   0.00001  -0.00006
   D13       -0.00000  -0.00001   0.00000  -0.00008  -0.00008  -0.00009
   D14        3.14121   0.00002   0.00000   0.00013   0.00012   3.14133
   D15       -3.14158  -0.00001   0.00000  -0.00005  -0.00005   3.14156
   D16       -0.00036   0.00003   0.00000   0.00015   0.00015  -0.00021
   D17        0.00018   0.00010   0.00000   0.00069   0.00070   0.00089
   D18       -3.14138   0.00002   0.00000   0.00017   0.00016  -3.14121
   D19       -3.14104   0.00007   0.00000   0.00050   0.00051  -3.14053
   D20        0.00059  -0.00001   0.00000  -0.00002  -0.00003   0.00056
   D21       -0.02231   0.00021   0.00000   0.00107   0.00108  -0.02123
   D22        3.11923   0.00032   0.00000   0.00181   0.00179   3.12103
         Item               Value     Threshold  Converged?
 Maximum Force            0.093828     0.000450     NO 
 RMS     Force            0.022100     0.000300     NO 
 Maximum Displacement     0.468404     0.001800     NO 
 RMS     Displacement     0.113479     0.001200     NO 
 Predicted change in Energy=-3.555848D-02
 GradGradGradGradGradGradGradGradGradGradGradGradGradGradGradGradGradGrad

                          Input orientation:                          
 ---------------------------------------------------------------------
 Center     Atomic      Atomic             Coordinates (Angstroms)
 Number     Number       Type             X           Y           Z
 ---------------------------------------------------------------------
      1          7           0       -0.661055   -0.983752    0.000501
      2          7           0       -1.934889   -0.722685    0.000049
      3          6           0       -2.180815    0.600363   -0.000427
      4          6           0       -0.934932    1.185828   -0.000163
      5          7           0       -0.050553    0.167108    0.000337
      6          1           0       -3.178037    1.012842   -0.000829
      7          1           0       -0.634808    2.222591   -0.000340
      8          1           0       -2.606846   -1.493568    0.000009
      9          1           0        1.228112   -2.042804    0.017331
     10          6           0        1.585099    0.015870    0.000583
     11          8           0        1.894881   -1.191843   -0.000160
     12          8           0        2.171387    1.049519    0.000850
 ---------------------------------------------------------------------
                    Distance matrix (angstroms):
                    1          2          3          4          5
     1  N    0.000000
     2  N    1.300311   0.000000
     3  C    2.195243   1.345710   0.000000
     4  C    2.186798   2.154608   1.376587   0.000000
     5  N    1.302763   2.083856   2.173874   1.349043   0.000000
     6  H    3.212723   2.134824   1.079162   2.249765   3.239819
     7  H    3.206451   3.219451   2.240929   1.079330   2.136906
     8  H    2.011471   1.022637   2.136832   3.158236   3.048357
     9  H    2.165832   3.427476   4.313634   3.886275   2.553230
    10  C    2.458547   3.596635   3.811003   2.778373   1.642629
    11  O    2.564393   3.858400   4.452336   3.696101   2.373070
    12  O    3.486677   4.472383   4.375318   3.109309   2.390746
                    6          7          8          9         10
     6  H    0.000000
     7  H    2.816293   0.000000
     8  H    2.570671   4.206991   0.000000
     9  H    5.362038   4.654501   3.874128   0.000000
    10  C    4.866356   3.130113   4.455425   2.089464   0.000000
    11  O    5.531287   4.249434   4.511827   1.081213   1.246811
    12  O    5.349550   3.041518   5.412837   3.233033   1.188345
                   11         12
    11  O    0.000000
    12  O    2.258353   0.000000
 Stoichiometry    C3H4N3O2(1+)
 Framework group  C1[X(C3H4N3O2)]
 Deg. of freedom    30
 Full point group                 C1      NOp   1
 Largest Abelian subgroup         C1      NOp   1
 Largest concise Abelian subgroup C1      NOp   1
                         Standard orientation:                         
 ---------------------------------------------------------------------
 Center     Atomic      Atomic             Coordinates (Angstroms)
 Number     Number       Type             X           Y           Z
 ---------------------------------------------------------------------
      1          7           0       -0.626820   -0.978460   -0.000382
      2          7           0       -1.907652   -0.754229   -0.000335
      3          6           0       -2.191621    0.561179    0.000062
      4          6           0       -0.963136    1.182321    0.000351
      5          7           0       -0.049753    0.189523   -0.000007
      6          1           0       -3.200321    0.944735    0.000178
      7          1           0       -0.693028    2.227307    0.000727
      8          1           0       -2.557104   -1.544164   -0.000666
      9          1           0        1.292101   -1.982614    0.015297
     10          6           0        1.589579    0.085507   -0.000290
     11          8           0        1.934052   -1.112772   -0.001853
     12          8           0        2.145822    1.135629    0.000451
 ---------------------------------------------------------------------
 Rotational constants (GHZ):           5.3104497           1.6410301           1.2536353
 Standard basis: 6-31+G(d,p) (6D, 7F)
 There are   172 symmetry adapted cartesian basis functions of A   symmetry.
 There are   172 symmetry adapted basis functions of A   symmetry.
   172 basis functions,   284 primitive gaussians,   172 cartesian basis functions
    29 alpha electrons       29 beta electrons
       nuclear repulsion energy       370.4950502600 Hartrees.
 NAtoms=   12 NActive=   12 NUniq=   12 SFac= 1.00D+00 NAtFMM=   60 NAOKFM=F Big=F
 Integral buffers will be    131072 words long.
 Raffenetti 2 integral format.
 Two-electron integral symmetry is turned on.
 ------------------------------------------------------------------------------
 Polarizable Continuum Model (PCM)
 =================================
 Model                : PCM.
 Atomic radii         : SMD-Coulomb.
 Polarization charges : Total charges.
 Charge compensation  : None.
 Solution method      : On-the-fly selection.
 Cavity type          : VdW (van der Waals Surface) (Alpha=1.000).
 Cavity algorithm     : GePol (No added spheres)
                        Default sphere list used, NSphG=   12.
                        Lebedev-Laikov grids with approx.  5.0 points / Ang**2.
                        Smoothing algorithm: York/Karplus (Gamma=1.0000).
                        Polarization charges: spherical gaussians, with
                                              point-specific exponents (IZeta= 3).
                        Self-potential: point-specific (ISelfS= 7).
                        Self-field    : sphere-specific E.n sum rule (ISelfD= 2).
 1st derivatives      : Analytical E(r).r(x)/FMM algorithm (CHGder, D1EAlg=3).
                        Cavity 1st derivative terms included.
 Solvent              : Water, Eps=  78.355300 Eps(inf)=   1.777849
 ------------------------------------------------------------------------------
 Spheres list:
 ISph  on   Nord     Re0    Alpha      Xe            Ye            Ze
    1   N      1    1.8900  1.000     -0.626820     -0.978460     -0.000382
    2   N      2    1.8900  1.000     -1.907652     -0.754229     -0.000335
    3   C      3    1.8500  1.000     -2.191621      0.561179      0.000062
    4   C      4    1.8500  1.000     -0.963136      1.182321      0.000351
    5   N      5    1.8900  1.000     -0.049753      0.189523     -0.000007
    6   H      6    1.2000  1.000     -3.200321      0.944735      0.000178
    7   H      7    1.2000  1.000     -0.693028      2.227307      0.000727
    8   H      8    1.2000  1.000     -2.557104     -1.544164     -0.000666
    9   H      9    1.2000  1.000      1.292101     -1.982614      0.015297
   10   C     10    1.8500  1.000      1.589579      0.085507     -0.000290
   11   O     11    1.5200  1.000      1.934052     -1.112772     -0.001853
   12   O     12    1.5200  1.000      2.145822      1.135629      0.000451
 ------------------------------------------------------------------------------
 ------------------------------------------------------------------------------
 Atomic radii for non-electrostatic terms: SMD-CDS.
 ------------------------------------------------------------------------------
 Nuclear repulsion after PCM non-electrostatic terms =      370.5043708197 Hartrees.
 One-electron integrals computed using PRISM.
 NBasis=   172 RedAO= T EigKep=  2.70D-05  NBF=   172
 NBsUse=   172 1.00D-06 EigRej= -1.00D+00 NBFU=   172
 Initial guess from the checkpoint file:  "/scratch/gongke2021/2-H-1-H-Tz-PC/Gau-504.chk"
 B after Tr=     0.000000    0.000000    0.000000
         Rot=    0.999940    0.000019   -0.000013   -0.010945 Ang=   1.25 deg.
 ExpMin= 4.38D-02 ExpMax= 5.48D+03 ExpMxC= 8.25D+02 IAcc=2 IRadAn=         4 AccDes= 0.00D+00
 Harris functional with IExCor= 1009 and IRadAn=       4 diagonalized for initial guess.
 HarFok:  IExCor= 1009 AccDes= 0.00D+00 IRadAn=         4 IDoV= 1 UseB2=F ITyADJ=14
 ICtDFT=  3500011 ScaDFX=  1.000000  1.000000  1.000000  1.000000
 FoFCou: FMM=F IPFlag=           0 FMFlag=      100000 FMFlg1=           0
         NFxFlg=           0 DoJE=T BraDBF=F KetDBF=T FulRan=T
         wScrn=  0.000000 ICntrl=       500 IOpCl=  0 I1Cent=   200000004 NGrid=           0
         NMat0=    1 NMatS0=      1 NMatT0=    0 NMatD0=    1 NMtDS0=    0 NMtDT0=    0
 Petite list used in FoFCou.
 Keep R1 ints in memory in canonical form, NReq=134699993.
 Requested convergence on RMS density matrix=1.00D-08 within 128 cycles.
 Requested convergence on MAX density matrix=1.00D-06.
 Requested convergence on             energy=1.00D-06.
 No special actions if energy rises.
 Inv3:  Mode=1 IEnd=     3339075.
 Iteration    1 A*A^-1 deviation from unit magnitude is 3.11D-15 for      8.
 Iteration    1 A*A^-1 deviation from orthogonality  is 1.97D-15 for    574    211.
 Iteration    1 A^-1*A deviation from unit magnitude is 3.55D-15 for    731.
 Iteration    1 A^-1*A deviation from orthogonality  is 2.00D-15 for    984    796.
 Error on total polarization charges =  0.02630
 SCF Done:  E(RM062X) =  -431.066494683     A.U. after   13 cycles
            NFock= 13  Conv=0.21D-08     -V/T= 2.0090
 SMD-CDS (non-electrostatic) energy       (kcal/mol) =       5.85
 (included in total energy above)
 D1PCM: PCM CHGder 1st derivatives, ID1Alg=3 FixD1E=F DoIter=F DoCFld=F I1PDM=0.
 Calling FoFJK, ICntrl=      2127 FMM=F ISym2X=0 I1Cent= 0 IOpClX= 0 NMat=1 NMatS=1 NMatT=0.
 ***** Axes restored to original set *****
 -------------------------------------------------------------------
 Center     Atomic                   Forces (Hartrees/Bohr)
 Number     Number              X              Y              Z
 -------------------------------------------------------------------
      1        7          -0.003919388   -0.014206469    0.000019956
      2        7           0.006989846    0.000667529    0.000019662
      3        6           0.002204674    0.007220174    0.000002071
      4        6           0.000821613    0.014369072   -0.000007028
      5        7           0.019976298   -0.025771084    0.000027629
      6        1           0.000792270    0.000499168   -0.000005525
      7        1           0.000156156   -0.000046722   -0.000001348
      8        1           0.001575776    0.000977991    0.000004561
      9        1           0.030196601    0.062821281   -0.001235723
     10        6          -0.062423495    0.044900325    0.000448888
     11        8          -0.001636673   -0.079308445    0.000937565
     12        8           0.005266322   -0.012122820   -0.000210709
 -------------------------------------------------------------------
 Cartesian Forces:  Max     0.079308445 RMS     0.022875939

 GradGradGradGradGradGradGradGradGradGradGradGradGradGradGradGradGradGrad
 Berny optimization.
 Using GEDIIS/GDIIS optimizer.
 FormGI is forming the generalized inverse of G from B-inverse, IUseBI=4.
 Internal  Forces:  Max     0.068094155 RMS     0.013267422
 Search for a local minimum.
 Step number   2 out of a maximum of   61
 All quantities printed in internal units (Hartrees-Bohrs-Radians)
 Mixed Optimization -- RFO/linear search
 Update second derivatives using D2CorX and points    1    2
 DE= -3.39D-02 DEPred=-3.56D-02 R= 9.54D-01
 TightC=F SS=  1.41D+00  RLast= 3.00D-01 DXNew= 5.0454D-01 9.0003D-01
 Trust test= 9.54D-01 RLast= 3.00D-01 DXMaxT set to 5.05D-01
 ITU=  1  0
 Use linear search instead of GDIIS.
 Linear search step of   0.577 exceeds DXMaxT=   0.505 but not scaled.
 Quartic linear search produced a step of  1.92167.
 Iteration  1 RMS(Cart)=  0.20940662 RMS(Int)=  0.02691506
 Iteration  2 RMS(Cart)=  0.04064706 RMS(Int)=  0.00098829
 Iteration  3 RMS(Cart)=  0.00118238 RMS(Int)=  0.00019596
 Iteration  4 RMS(Cart)=  0.00000388 RMS(Int)=  0.00019593
 Iteration  5 RMS(Cart)=  0.00000000 RMS(Int)=  0.00019593
 Variable       Old X    -DE/DX   Delta X   Delta X   Delta X     New X
                                 (Linear)    (Quad)   (Total)
    R1        2.45723  -0.00135   0.00407   0.00000   0.00448   2.46171
    R2        2.46186   0.00507   0.03549   0.00000   0.03563   2.49749
    R3        2.54302   0.00809   0.00810   0.00000   0.00824   2.55126
    R4        1.93250  -0.00177  -0.00923   0.00000  -0.00923   1.92327
    R5        2.60137  -0.00778  -0.04602   0.00000  -0.04637   2.55500
    R6        2.03932  -0.00054  -0.00162   0.00000  -0.00162   2.03770
    R7        2.54932   0.00505   0.03895   0.00000   0.03863   2.58795
    R8        2.03964  -0.00000  -0.00118   0.00000  -0.00118   2.03845
    R9        3.10412  -0.02997   0.03008   0.00000   0.03008   3.13420
   R10        2.04320  -0.06809  -0.32220   0.00000  -0.32220   1.72099
   R11        2.35613   0.02306   0.00931   0.00000   0.00931   2.36544
   R12        2.24565  -0.00794  -0.01591   0.00000  -0.01591   2.22974
    A1        1.85638  -0.01209  -0.06359   0.00000  -0.06289   1.79349
    A2        1.95672   0.00685   0.06901   0.00000   0.06940   2.02613
    A3        2.08559  -0.00396  -0.03990   0.00000  -0.04009   2.04550
    A4        2.24087  -0.00289  -0.02911   0.00000  -0.02931   2.21156
    A5        1.82631   0.00027  -0.03503   0.00000  -0.03530   1.79102
    A6        2.14678   0.00063   0.02847   0.00000   0.02860   2.17538
    A7        2.31010  -0.00090   0.00656   0.00000   0.00669   2.31679
    A8        1.84643  -0.00454   0.02402   0.00000   0.02338   1.86981
    A9        2.29187   0.00243  -0.01609   0.00000  -0.01577   2.27610
   A10        2.14489   0.00211  -0.00793   0.00000  -0.00761   2.13728
   A11        1.93894   0.00952   0.00559   0.00000   0.00540   1.94434
   A12        1.96632   0.01702   0.19447   0.00000   0.19457   2.16089
   A13        2.37792  -0.02654  -0.20006   0.00000  -0.19997   2.17795
   A14        1.91409   0.00875   0.19759   0.00000   0.19759   2.11167
   A15        1.99455   0.00748  -0.03352   0.00000  -0.03352   1.96103
   A16        2.37455  -0.01622  -0.16407   0.00000  -0.16407   2.21048
   A17        2.22576  -0.03059  -0.25109   0.00000  -0.25109   1.97467
    D1        0.00001   0.00001   0.00010   0.00000   0.00008   0.00009
    D2        3.14151   0.00000   0.00002   0.00000   0.00001   3.14152
    D3        0.00005  -0.00000   0.00004   0.00000   0.00005   0.00010
    D4       -3.14141  -0.00001  -0.00017   0.00000  -0.00025   3.14153
    D5       -0.00006  -0.00001  -0.00019   0.00000  -0.00018  -0.00024
    D6       -3.14158  -0.00001  -0.00008   0.00000  -0.00009   3.14153
    D7       -3.14155  -0.00000  -0.00010   0.00000  -0.00010   3.14153
    D8        0.00012  -0.00000   0.00000   0.00000  -0.00001   0.00011
    D9        0.00009   0.00001   0.00021   0.00000   0.00019   0.00028
   D10       -3.14156   0.00000   0.00014   0.00000   0.00012  -3.14144
   D11        3.14159   0.00000   0.00009   0.00000   0.00009  -3.14151
   D12       -0.00006   0.00000   0.00002   0.00000   0.00002  -0.00004
   D13       -0.00009  -0.00000  -0.00016   0.00000  -0.00017  -0.00025
   D14        3.14133   0.00002   0.00023   0.00000   0.00018   3.14151
   D15        3.14156  -0.00000  -0.00011   0.00000  -0.00010   3.14145
   D16       -0.00021   0.00002   0.00028   0.00000   0.00025   0.00003
   D17        0.00089   0.00009   0.00135   0.00000   0.00139   0.00228
   D18       -3.14121   0.00000   0.00031   0.00000   0.00027  -3.14094
   D19       -3.14053   0.00007   0.00098   0.00000   0.00102  -3.13950
   D20        0.00056  -0.00001  -0.00005   0.00000  -0.00010   0.00046
   D21       -0.02123   0.00022   0.00208   0.00000   0.00216  -0.01907
   D22        3.12103   0.00031   0.00345   0.00000   0.00337   3.12440
         Item               Value     Threshold  Converged?
 Maximum Force            0.068094     0.000450     NO 
 RMS     Force            0.013267     0.000300     NO 
 Maximum Displacement     0.795882     0.001800     NO 
 RMS     Displacement     0.212178     0.001200     NO 
 Predicted change in Energy=-3.928196D-04
 GradGradGradGradGradGradGradGradGradGradGradGradGradGradGradGradGradGrad

                          Input orientation:                          
 ---------------------------------------------------------------------
 Center     Atomic      Atomic             Coordinates (Angstroms)
 Number     Number       Type             X           Y           Z
 ---------------------------------------------------------------------
      1          7           0       -0.858184   -1.146068    0.001083
      2          7           0       -2.075585   -0.682476    0.000094
      3          6           0       -2.198919    0.661948   -0.000950
      4          6           0       -0.912021    1.076592   -0.000247
      5          7           0       -0.126691   -0.045348    0.000789
      6          1           0       -3.138366    1.191266   -0.001898
      7          1           0       -0.498315    2.072809   -0.000506
      8          1           0       -2.832462   -1.362885    0.000040
      9          1           0        1.649275   -1.850049    0.014960
     10          6           0        1.531845   -0.039455    0.001817
     11          8           0        2.180156   -1.110218    0.000500
     12          8           0        1.976814    1.053353    0.002059
 ---------------------------------------------------------------------
                    Distance matrix (angstroms):
                    1          2          3          4          5
     1  N    0.000000
     2  N    1.302683   0.000000
     3  C    2.250888   1.350070   0.000000
     4  C    2.223312   2.109076   1.352049   0.000000
     5  N    1.321616   2.050395   2.189612   1.369487   0.000000
     6  H    3.265328   2.154163   1.078304   2.229297   3.255674
     7  H    3.238932   3.174804   2.209657   1.078703   2.150510
     8  H    1.986148   1.017752   2.121633   3.104697   3.009502
     9  H    2.604445   3.903592   4.595539   3.889177   2.532035
    10  C    2.633786   3.664291   3.796126   2.686642   1.658546
    11  O    3.038552   4.277182   4.724074   3.787307   2.540765
    12  O    3.588129   4.408519   4.194038   2.888929   2.373157
                    6          7          8          9         10
     6  H    0.000000
     7  H    2.783342   0.000000
     8  H    2.572405   4.153581   0.000000
     9  H    5.671983   4.472270   4.508161   0.000000
    10  C    4.829655   2.929713   4.560553   1.814445   0.000000
    11  O    5.795128   4.160032   5.018982   0.910711   1.251735
    12  O    5.117040   2.676857   5.382132   2.921848   1.179927
                   11         12
    11  O    0.000000
    12  O    2.173106   0.000000
 Stoichiometry    C3H4N3O2(1+)
 Framework group  C1[X(C3H4N3O2)]
 Deg. of freedom    30
 Full point group                 C1      NOp   1
 Largest Abelian subgroup         C1      NOp   1
 Largest concise Abelian subgroup C1      NOp   1
                         Standard orientation:                         
 ---------------------------------------------------------------------
 Center     Atomic      Atomic             Coordinates (Angstroms)
 Number     Number       Type             X           Y           Z
 ---------------------------------------------------------------------
      1          7           0       -0.771626   -1.121878    0.000079
      2          7           0       -2.006814   -0.708003   -0.000004
      3          6           0       -2.184531    0.630319   -0.000258
      4          6           0       -0.915493    1.096774   -0.000024
      5          7           0       -0.085341    0.007582   -0.000016
      6          1           0       -3.144658    1.121131   -0.000414
      7          1           0       -0.542500    2.108939    0.000030
      8          1           0       -2.735496   -1.418525   -0.000017
      9          1           0        1.762309   -1.723673    0.012226
     10          6           0        1.571594    0.080681    0.000121
     11          8           0        2.262764   -0.962927   -0.002122
     12          8           0        1.971911    1.190624    0.000712
 ---------------------------------------------------------------------
 Rotational constants (GHZ):           5.4848938           1.5469265           1.2066202
 Standard basis: 6-31+G(d,p) (6D, 7F)
 There are   172 symmetry adapted cartesian basis functions of A   symmetry.
 There are   172 symmetry adapted basis functions of A   symmetry.
   172 basis functions,   284 primitive gaussians,   172 cartesian basis functions
    29 alpha electrons       29 beta electrons
       nuclear repulsion energy       367.9674776501 Hartrees.
 NAtoms=   12 NActive=   12 NUniq=   12 SFac= 1.00D+00 NAtFMM=   60 NAOKFM=F Big=F
 Integral buffers will be    131072 words long.
 Raffenetti 2 integral format.
 Two-electron integral symmetry is turned on.
 ------------------------------------------------------------------------------
 Polarizable Continuum Model (PCM)
 =================================
 Model                : PCM.
 Atomic radii         : SMD-Coulomb.
 Polarization charges : Total charges.
 Charge compensation  : None.
 Solution method      : On-the-fly selection.
 Cavity type          : VdW (van der Waals Surface) (Alpha=1.000).
 Cavity algorithm     : GePol (No added spheres)
                        Default sphere list used, NSphG=   12.
                        Lebedev-Laikov grids with approx.  5.0 points / Ang**2.
                        Smoothing algorithm: York/Karplus (Gamma=1.0000).
                        Polarization charges: spherical gaussians, with
                                              point-specific exponents (IZeta= 3).
                        Self-potential: point-specific (ISelfS= 7).
                        Self-field    : sphere-specific E.n sum rule (ISelfD= 2).
 1st derivatives      : Analytical E(r).r(x)/FMM algorithm (CHGder, D1EAlg=3).
                        Cavity 1st derivative terms included.
 Solvent              : Water, Eps=  78.355300 Eps(inf)=   1.777849
 ------------------------------------------------------------------------------
 Spheres list:
 ISph  on   Nord     Re0    Alpha      Xe            Ye            Ze
    1   N      1    1.8900  1.000     -0.771626     -1.121878      0.000079
    2   N      2    1.8900  1.000     -2.006814     -0.708003     -0.000004
    3   C      3    1.8500  1.000     -2.184531      0.630319     -0.000258
    4   C      4    1.8500  1.000     -0.915493      1.096774     -0.000024
    5   N      5    1.8900  1.000     -0.085341      0.007582     -0.000016
    6   H      6    1.2000  1.000     -3.144658      1.121131     -0.000414
    7   H      7    1.2000  1.000     -0.542500      2.108939      0.000030
    8   H      8    1.2000  1.000     -2.735496     -1.418525     -0.000017
    9   H      9    1.2000  1.000      1.762309     -1.723673      0.012226
   10   C     10    1.8500  1.000      1.571594      0.080681      0.000121
   11   O     11    1.5200  1.000      2.262764     -0.962927     -0.002122
   12   O     12    1.5200  1.000      1.971911      1.190624      0.000712
 ------------------------------------------------------------------------------
 ------------------------------------------------------------------------------
 Atomic radii for non-electrostatic terms: SMD-CDS.
 ------------------------------------------------------------------------------
 Nuclear repulsion after PCM non-electrostatic terms =      367.9764292028 Hartrees.
 One-electron integrals computed using PRISM.
 NBasis=   172 RedAO= T EigKep=  2.71D-05  NBF=   172
 NBsUse=   172 1.00D-06 EigRej= -1.00D+00 NBFU=   172
 Initial guess from the checkpoint file:  "/scratch/gongke2021/2-H-1-H-Tz-PC/Gau-504.chk"
 B after Tr=    -0.000000   -0.000000    0.000000
         Rot=    0.999926    0.000025   -0.000005   -0.012189 Ang=   1.40 deg.
 ExpMin= 4.38D-02 ExpMax= 5.48D+03 ExpMxC= 8.25D+02 IAcc=2 IRadAn=         4 AccDes= 0.00D+00
 Harris functional with IExCor= 1009 and IRadAn=       4 diagonalized for initial guess.
 HarFok:  IExCor= 1009 AccDes= 0.00D+00 IRadAn=         4 IDoV= 1 UseB2=F ITyADJ=14
 ICtDFT=  3500011 ScaDFX=  1.000000  1.000000  1.000000  1.000000
 FoFCou: FMM=F IPFlag=           0 FMFlag=      100000 FMFlg1=           0
         NFxFlg=           0 DoJE=T BraDBF=F KetDBF=T FulRan=T
         wScrn=  0.000000 ICntrl=       500 IOpCl=  0 I1Cent=   200000004 NGrid=           0
         NMat0=    1 NMatS0=      1 NMatT0=    0 NMatD0=    1 NMtDS0=    0 NMtDT0=    0
 Petite list used in FoFCou.
 Keep R1 ints in memory in canonical form, NReq=134699993.
 Requested convergence on RMS density matrix=1.00D-08 within 128 cycles.
 Requested convergence on MAX density matrix=1.00D-06.
 Requested convergence on             energy=1.00D-06.
 No special actions if energy rises.
 Inv3:  Mode=1 IEnd=     3473328.
 Iteration    1 A*A^-1 deviation from unit magnitude is 3.44D-15 for    228.
 Iteration    1 A*A^-1 deviation from orthogonality  is 2.31D-15 for    713      4.
 Iteration    1 A^-1*A deviation from unit magnitude is 3.44D-15 for    228.
 Iteration    1 A^-1*A deviation from orthogonality  is 1.10D-14 for    572    517.
 Error on total polarization charges =  0.02558
 SCF Done:  E(RM062X) =  -431.067780049     A.U. after   14 cycles
            NFock= 14  Conv=0.53D-08     -V/T= 2.0083
 SMD-CDS (non-electrostatic) energy       (kcal/mol) =       5.62
 (included in total energy above)
 D1PCM: PCM CHGder 1st derivatives, ID1Alg=3 FixD1E=F DoIter=F DoCFld=F I1PDM=0.
 Calling FoFJK, ICntrl=      2127 FMM=F ISym2X=0 I1Cent= 0 IOpClX= 0 NMat=1 NMatS=1 NMatT=0.
 ***** Axes restored to original set *****
 -------------------------------------------------------------------
 Center     Atomic                   Forces (Hartrees/Bohr)
 Number     Number              X              Y              Z
 -------------------------------------------------------------------
      1        7           0.003683557    0.021479649   -0.000069441
      2        7          -0.011604764   -0.021801062   -0.000009432
      3        6           0.003033087   -0.010798393    0.000034690
      4        6           0.031528970    0.014895360    0.000001195
      5        7           0.029620803   -0.015126795    0.000070683
      6        1          -0.000560038   -0.001689503    0.000000196
      7        1           0.002121499   -0.000245560   -0.000001650
      8        1          -0.002525191   -0.001411908   -0.000001159
      9        1          -0.039546866   -0.072918490    0.000928058
     10        6          -0.052026208    0.058067200    0.000003429
     11        8           0.037202239    0.013365438   -0.000827776
     12        8          -0.000927087    0.016184063   -0.000128793
 -------------------------------------------------------------------
 Cartesian Forces:  Max     0.072918490 RMS     0.022568138

 GradGradGradGradGradGradGradGradGradGradGradGradGradGradGradGradGradGrad
 Berny optimization.
 Using GEDIIS/GDIIS optimizer.
 FormGI is forming the generalized inverse of G from B-inverse, IUseBI=4.
 Internal  Forces:  Max     0.082290741 RMS     0.018069908
 Search for a local minimum.
 Step number   3 out of a maximum of   61
 All quantities printed in internal units (Hartrees-Bohrs-Radians)
 Mixed Optimization -- RFO/linear search
 Update second derivatives using D2CorX and points    2    3
 ITU=  0  1  0
 Use linear search instead of GDIIS.
     Eigenvalues ---    0.00230   0.01587   0.01636   0.02306   0.02377
     Eigenvalues ---    0.02413   0.02494   0.02600   0.03752   0.14749
     Eigenvalues ---    0.16000   0.16000   0.16007   0.18238   0.21786
     Eigenvalues ---    0.22386   0.24044   0.25000   0.25119   0.36036
     Eigenvalues ---    0.36041   0.42103   0.43553   0.46637   0.49282
     Eigenvalues ---    0.56505   0.64060   0.66297   0.87001   1.08864
 RFO step:  Lambda=-1.41042472D-02 EMin= 2.30000409D-03
 Quartic linear search produced a step of -0.46744.
 Iteration  1 RMS(Cart)=  0.10613124 RMS(Int)=  0.00232818
 Iteration  2 RMS(Cart)=  0.00501921 RMS(Int)=  0.00008341
 Iteration  3 RMS(Cart)=  0.00001160 RMS(Int)=  0.00008311
 Iteration  4 RMS(Cart)=  0.00000000 RMS(Int)=  0.00008311
 Variable       Old X    -DE/DX   Delta X   Delta X   Delta X     New X
                                 (Linear)    (Quad)   (Total)
    R1        2.46171  -0.00717  -0.00209  -0.00603  -0.00828   2.45343
    R2        2.49749  -0.00728  -0.01665   0.00114  -0.01545   2.48204
    R3        2.55126   0.00559  -0.00385   0.01365   0.00964   2.56091
    R4        1.92327   0.00282   0.00432   0.00028   0.00459   1.92786
    R5        2.55500   0.01853   0.02168   0.00764   0.02937   2.58437
    R6        2.03770  -0.00034   0.00076  -0.00138  -0.00062   2.03707
    R7        2.58795  -0.01576  -0.01806  -0.00591  -0.02378   2.56417
    R8        2.03845   0.00058   0.00055   0.00066   0.00121   2.03966
    R9        3.13420  -0.05524  -0.01406  -0.18369  -0.19775   2.93645
   R10        1.72099   0.08229   0.15061  -0.00763   0.14298   1.86397
   R11        2.36544   0.04972  -0.00435   0.04379   0.03944   2.40488
   R12        2.22974   0.01465   0.00744   0.00188   0.00932   2.23905
    A1        1.79349   0.01051   0.02940  -0.01274   0.01654   1.81003
    A2        2.02613  -0.01654  -0.03244  -0.00996  -0.04264   1.98348
    A3        2.04550   0.00887   0.01874   0.00439   0.02325   2.06875
    A4        2.21156   0.00767   0.01370   0.00557   0.01939   2.23095
    A5        1.79102   0.01023   0.01650   0.02311   0.03954   1.83056
    A6        2.17538  -0.00691  -0.01337  -0.01296  -0.02629   2.14908
    A7        2.31679  -0.00332  -0.00313  -0.01016  -0.01325   2.30354
    A8        1.86981  -0.01441  -0.01093  -0.03633  -0.04703   1.82278
    A9        2.27610   0.00929   0.00737   0.02418   0.03143   2.30754
   A10        2.13728   0.00512   0.00356   0.01215   0.01559   2.15287
   A11        1.94434   0.01020  -0.00253   0.03591   0.03359   1.97793
   A12        2.16089  -0.00381  -0.09095   0.05312  -0.03793   2.12296
   A13        2.17795  -0.00639   0.09347  -0.08903   0.00434   2.18230
   A14        2.11167  -0.03467  -0.09236  -0.02399  -0.11635   1.99532
   A15        1.96103   0.00956   0.01567   0.02746   0.04313   2.00416
   A16        2.21048   0.02511   0.07669  -0.00348   0.07321   2.28369
   A17        1.97467   0.01787   0.11737  -0.07354   0.04383   2.01850
    D1        0.00009   0.00001  -0.00004   0.00025   0.00021   0.00030
    D2        3.14152   0.00002  -0.00001   0.00026   0.00026  -3.14140
    D3        0.00010  -0.00002  -0.00002  -0.00025  -0.00028  -0.00018
    D4        3.14153  -0.00003   0.00012  -0.00078  -0.00064   3.14089
    D5       -0.00024   0.00000   0.00008  -0.00015  -0.00007  -0.00031
    D6        3.14153  -0.00000   0.00004  -0.00012  -0.00008   3.14144
    D7        3.14153  -0.00000   0.00005  -0.00017  -0.00012   3.14141
    D8        0.00011  -0.00001   0.00000  -0.00014  -0.00014  -0.00003
    D9        0.00028  -0.00002  -0.00009  -0.00002  -0.00010   0.00017
   D10       -3.14144  -0.00000  -0.00006   0.00008   0.00003  -3.14141
   D11       -3.14151  -0.00001  -0.00004  -0.00005  -0.00009   3.14159
   D12       -0.00004   0.00000  -0.00001   0.00005   0.00005   0.00000
   D13       -0.00025   0.00003   0.00008   0.00018   0.00025  -0.00000
   D14        3.14151   0.00003  -0.00009   0.00070   0.00063  -3.14105
   D15        3.14145   0.00001   0.00005   0.00008   0.00013   3.14158
   D16        0.00003   0.00002  -0.00012   0.00060   0.00050   0.00054
   D17        0.00228   0.00002  -0.00065   0.00329   0.00261   0.00489
   D18       -3.14094  -0.00001  -0.00013   0.00061   0.00050  -3.14044
   D19       -3.13950   0.00001  -0.00048   0.00271   0.00221  -3.13730
   D20        0.00046  -0.00002   0.00005   0.00002   0.00010   0.00056
   D21       -0.01907   0.00020  -0.00101   0.00427   0.00321  -0.01586
   D22        3.12440   0.00026  -0.00158   0.00734   0.00581   3.13021
         Item               Value     Threshold  Converged?
 Maximum Force            0.082291     0.000450     NO 
 RMS     Force            0.018070     0.000300     NO 
 Maximum Displacement     0.507089     0.001800     NO 
 RMS     Displacement     0.109552     0.001200     NO 
 Predicted change in Energy=-1.941890D-02
 GradGradGradGradGradGradGradGradGradGradGradGradGradGradGradGradGradGrad

                          Input orientation:                          
 ---------------------------------------------------------------------
 Center     Atomic      Atomic             Coordinates (Angstroms)
 Number     Number       Type             X           Y           Z
 ---------------------------------------------------------------------
      1          7           0       -0.757494   -1.112609    0.002347
      2          7           0       -1.995583   -0.721820    0.000974
      3          6           0       -2.140237    0.625609   -0.001254
      4          6           0       -0.863573    1.115950   -0.000850
      5          7           0       -0.076614    0.010567    0.001358
      6          1           0       -3.100667    1.115096   -0.002748
      7          1           0       -0.473232    2.122239   -0.001911
      8          1           0       -2.730036   -1.429879    0.001552
      9          1           0        1.380935   -1.893959    0.011172
     10          6           0        1.477246    0.021744    0.003359
     11          8           0        2.009752   -1.134090    0.000310
     12          8           0        1.967049    1.100622    0.003433
 ---------------------------------------------------------------------
                    Distance matrix (angstroms):
                    1          2          3          4          5
     1  N    0.000000
     2  N    1.298300   0.000000
     3  C    2.221124   1.355173   0.000000
     4  C    2.231085   2.158437   1.367591   0.000000
     5  N    1.313439   2.053980   2.153328   1.356901   0.000000
     6  H    3.233134   2.143709   1.077973   2.237095   3.219456
     7  H    3.247316   3.225869   2.240269   1.079344   2.148598
     8  H    1.997895   1.020181   2.138435   3.156729   3.019195
     9  H    2.276722   3.574197   4.329784   3.754666   2.398284
    10  C    2.506156   3.551539   3.667540   2.583938   1.553901
    11  O    2.767330   4.026496   4.507654   3.649477   2.379740
    12  O    3.510203   4.361623   4.134665   2.830667   2.316199
                    6          7          8          9         10
     6  H    0.000000
     7  H    2.813850   0.000000
     8  H    2.571825   4.208410   0.000000
     9  H    5.398089   4.423568   4.137094   0.000000
    10  C    4.706670   2.866439   4.450666   1.918138   0.000000
    11  O    5.583478   4.094984   4.749009   0.986372   1.272606
    12  O    5.067741   2.645506   5.335358   3.051410   1.184857
                   11         12
    11  O    0.000000
    12  O    2.235122   0.000000
 Stoichiometry    C3H4N3O2(1+)
 Framework group  C1[X(C3H4N3O2)]
 Deg. of freedom    30
 Full point group                 C1      NOp   1
 Largest Abelian subgroup         C1      NOp   1
 Largest concise Abelian subgroup C1      NOp   1
                         Standard orientation:                         
 ---------------------------------------------------------------------
 Center     Atomic      Atomic             Coordinates (Angstroms)
 Number     Number       Type             X           Y           Z
 ---------------------------------------------------------------------
      1          7           0       -0.703812   -1.081796    0.000862
      2          7           0       -1.948438   -0.712354    0.000534
      3          6           0       -2.116242    0.632389   -0.000801
      4          6           0       -0.848198    1.144611   -0.000947
      5          7           0       -0.042347    0.052923    0.000090
      6          1           0       -3.084948    1.105290   -0.001375
      7          1           0       -0.475220    2.157463   -0.001670
      8          1           0       -2.670607   -1.432938    0.001177
      9          1           0        1.447741   -1.826264    0.007819
     10          6           0        1.511092    0.090816    0.001075
     11          8           0        2.063392   -1.055689   -0.003007
     12          8           0        1.982271    1.177957    0.001466
 ---------------------------------------------------------------------
 Rotational constants (GHZ):           5.2933358           1.6855825           1.2784743
 Standard basis: 6-31+G(d,p) (6D, 7F)
 There are   172 symmetry adapted cartesian basis functions of A   symmetry.
 There are   172 symmetry adapted basis functions of A   symmetry.
   172 basis functions,   284 primitive gaussians,   172 cartesian basis functions
    29 alpha electrons       29 beta electrons
       nuclear repulsion energy       372.8012883267 Hartrees.
 NAtoms=   12 NActive=   12 NUniq=   12 SFac= 1.00D+00 NAtFMM=   60 NAOKFM=F Big=F
 Integral buffers will be    131072 words long.
 Raffenetti 2 integral format.
 Two-electron integral symmetry is turned on.
 ------------------------------------------------------------------------------
 Polarizable Continuum Model (PCM)
 =================================
 Model                : PCM.
 Atomic radii         : SMD-Coulomb.
 Polarization charges : Total charges.
 Charge compensation  : None.
 Solution method      : On-the-fly selection.
 Cavity type          : VdW (van der Waals Surface) (Alpha=1.000).
 Cavity algorithm     : GePol (No added spheres)
                        Default sphere list used, NSphG=   12.
                        Lebedev-Laikov grids with approx.  5.0 points / Ang**2.
                        Smoothing algorithm: York/Karplus (Gamma=1.0000).
                        Polarization charges: spherical gaussians, with
                                              point-specific exponents (IZeta= 3).
                        Self-potential: point-specific (ISelfS= 7).
                        Self-field    : sphere-specific E.n sum rule (ISelfD= 2).
 1st derivatives      : Analytical E(r).r(x)/FMM algorithm (CHGder, D1EAlg=3).
                        Cavity 1st derivative terms included.
 Solvent              : Water, Eps=  78.355300 Eps(inf)=   1.777849
 ------------------------------------------------------------------------------
 Spheres list:
 ISph  on   Nord     Re0    Alpha      Xe            Ye            Ze
    1   N      1    1.8900  1.000     -0.703812     -1.081796      0.000862
    2   N      2    1.8900  1.000     -1.948438     -0.712354      0.000534
    3   C      3    1.8500  1.000     -2.116242      0.632389     -0.000801
    4   C      4    1.8500  1.000     -0.848198      1.144611     -0.000947
    5   N      5    1.8900  1.000     -0.042347      0.052923      0.000090
    6   H      6    1.2000  1.000     -3.084948      1.105290     -0.001375
    7   H      7    1.2000  1.000     -0.475220      2.157463     -0.001670
    8   H      8    1.2000  1.000     -2.670607     -1.432938      0.001177
    9   H      9    1.2000  1.000      1.447741     -1.826264      0.007819
   10   C     10    1.8500  1.000      1.511092      0.090816      0.001075
   11   O     11    1.5200  1.000      2.063392     -1.055689     -0.003007
   12   O     12    1.5200  1.000      1.982271      1.177957      0.001466
 ------------------------------------------------------------------------------
 ------------------------------------------------------------------------------
 Atomic radii for non-electrostatic terms: SMD-CDS.
 ------------------------------------------------------------------------------
 Nuclear repulsion after PCM non-electrostatic terms =      372.8101815724 Hartrees.
 One-electron integrals computed using PRISM.
 NBasis=   172 RedAO= T EigKep=  2.53D-05  NBF=   172
 NBsUse=   172 1.00D-06 EigRej= -1.00D+00 NBFU=   172
 Initial guess from the checkpoint file:  "/scratch/gongke2021/2-H-1-H-Tz-PC/Gau-504.chk"
 B after Tr=     0.000000   -0.000000   -0.000000
         Rot=    0.999947    0.000014   -0.000004    0.010336 Ang=   1.18 deg.
 ExpMin= 4.38D-02 ExpMax= 5.48D+03 ExpMxC= 8.25D+02 IAcc=2 IRadAn=         4 AccDes= 0.00D+00
 Harris functional with IExCor= 1009 and IRadAn=       4 diagonalized for initial guess.
 HarFok:  IExCor= 1009 AccDes= 0.00D+00 IRadAn=         4 IDoV= 1 UseB2=F ITyADJ=14
 ICtDFT=  3500011 ScaDFX=  1.000000  1.000000  1.000000  1.000000
 FoFCou: FMM=F IPFlag=           0 FMFlag=      100000 FMFlg1=           0
         NFxFlg=           0 DoJE=T BraDBF=F KetDBF=T FulRan=T
         wScrn=  0.000000 ICntrl=       500 IOpCl=  0 I1Cent=   200000004 NGrid=           0
         NMat0=    1 NMatS0=      1 NMatT0=    0 NMatD0=    1 NMtDS0=    0 NMtDT0=    0
 Petite list used in FoFCou.
 Keep R1 ints in memory in canonical form, NReq=134699993.
 Requested convergence on RMS density matrix=1.00D-08 within 128 cycles.
 Requested convergence on MAX density matrix=1.00D-06.
 Requested convergence on             energy=1.00D-06.
 No special actions if energy rises.
 Inv3:  Mode=1 IEnd=     3307500.
 Iteration    1 A*A^-1 deviation from unit magnitude is 3.77D-15 for    622.
 Iteration    1 A*A^-1 deviation from orthogonality  is 2.55D-15 for    800     84.
 Iteration    1 A^-1*A deviation from unit magnitude is 3.11D-15 for    601.
 Iteration    1 A^-1*A deviation from orthogonality  is 1.68D-15 for    606     43.
 Error on total polarization charges =  0.02590
 SCF Done:  E(RM062X) =  -431.089293620     A.U. after   13 cycles
            NFock= 13  Conv=0.25D-08     -V/T= 2.0086
 SMD-CDS (non-electrostatic) energy       (kcal/mol) =       5.58
 (included in total energy above)
 D1PCM: PCM CHGder 1st derivatives, ID1Alg=3 FixD1E=F DoIter=F DoCFld=F I1PDM=0.
 Calling FoFJK, ICntrl=      2127 FMM=F ISym2X=0 I1Cent= 0 IOpClX= 0 NMat=1 NMatS=1 NMatT=0.
 ***** Axes restored to original set *****
 -------------------------------------------------------------------
 Center     Atomic                   Forces (Hartrees/Bohr)
 Number     Number              X              Y              Z
 -------------------------------------------------------------------
      1        7           0.004142117    0.007623302    0.000094435
      2        7           0.000420715   -0.000459020   -0.000036462
      3        6          -0.001177592   -0.000929741    0.000020660
      4        6           0.001145727   -0.000547356    0.000027315
      5        7           0.025637490   -0.007024733    0.000141342
      6        1          -0.000641839   -0.000631440   -0.000002080
      7        1           0.000656606   -0.000539701    0.000000987
      8        1          -0.001083027   -0.000286915   -0.000007606
      9        1           0.004366921    0.005508498   -0.000259141
     10        6          -0.048306302    0.018320487   -0.000378199
     11        8           0.005021844   -0.025396422    0.000346728
     12        8           0.009817339    0.004363041    0.000052021
 -------------------------------------------------------------------
 Cartesian Forces:  Max     0.048306302 RMS     0.010920762

 GradGradGradGradGradGradGradGradGradGradGradGradGradGradGradGradGradGrad
 Berny optimization.
 Using GEDIIS/GDIIS optimizer.
 FormGI is forming the generalized inverse of G from B-inverse, IUseBI=4.
 Internal  Forces:  Max     0.029059724 RMS     0.005769662
 Search for a local minimum.
 Step number   4 out of a maximum of   61
 All quantities printed in internal units (Hartrees-Bohrs-Radians)
 Mixed Optimization -- RFO/linear search
 Update second derivatives using D2CorX and points    2    3    4
 DE= -2.15D-02 DEPred=-1.94D-02 R= 1.11D+00
 TightC=F SS=  1.41D+00  RLast= 3.12D-01 DXNew= 8.4853D-01 9.3552D-01
 Trust test= 1.11D+00 RLast= 3.12D-01 DXMaxT set to 8.49D-01
 ITU=  1  0  1  0
 Use linear search instead of GDIIS.
     Eigenvalues ---    0.00230   0.01616   0.01704   0.02305   0.02375
     Eigenvalues ---    0.02411   0.02494   0.02603   0.03751   0.10497
     Eigenvalues ---    0.15945   0.16000   0.16005   0.16062   0.18400
     Eigenvalues ---    0.22555   0.24364   0.24674   0.26729   0.36036
     Eigenvalues ---    0.36043   0.43471   0.43769   0.48429   0.52968
     Eigenvalues ---    0.56585   0.63855   0.67330   0.81427   1.08613
 RFO step:  Lambda=-9.10955111D-03 EMin= 2.30002263D-03
 Quartic linear search produced a step of  0.23182.
 Iteration  1 RMS(Cart)=  0.05784165 RMS(Int)=  0.00905774
 Iteration  2 RMS(Cart)=  0.01462905 RMS(Int)=  0.00005755
 Iteration  3 RMS(Cart)=  0.00000627 RMS(Int)=  0.00005739
 Iteration  4 RMS(Cart)=  0.00000000 RMS(Int)=  0.00005739
 Variable       Old X    -DE/DX   Delta X   Delta X   Delta X     New X
                                 (Linear)    (Quad)   (Total)
    R1        2.45343  -0.00037  -0.00192  -0.00181  -0.00375   2.44968
    R2        2.48204  -0.00683  -0.00358  -0.01286  -0.01640   2.46564
    R3        2.56091  -0.00125   0.00224   0.00038   0.00257   2.56347
    R4        1.92786   0.00098   0.00106   0.00266   0.00373   1.93159
    R5        2.58437   0.00223   0.00681   0.00574   0.01253   2.59690
    R6        2.03707   0.00028  -0.00014   0.00082   0.00067   2.03775
    R7        2.56417  -0.00094  -0.00551  -0.00067  -0.00615   2.55802
    R8        2.03966  -0.00027   0.00028  -0.00113  -0.00085   2.03881
[...]
   D13        0.00015  -0.00001   0.00000  -0.00015  -0.00015   0.00000
   D14       -3.14152  -0.00001   0.00000  -0.00008  -0.00008  -3.14159
   D15       -3.14153  -0.00000   0.00000  -0.00007  -0.00007  -3.14159
   D16       -0.00000  -0.00000   0.00000   0.00000   0.00000  -0.00000
   D17       -0.00016   0.00000   0.00000   0.00016   0.00016   0.00000
   D18        3.14140   0.00000   0.00000   0.00019   0.00019  -3.14159
   D19        3.14151  -0.00000   0.00000   0.00009   0.00009  -3.14159
   D20       -0.00011   0.00000   0.00000   0.00011   0.00011   0.00000
   D21       -0.00003   0.00000   0.00000   0.00003   0.00003  -0.00000
   D22       -3.14159   0.00000   0.00000   0.00000   0.00000  -3.14159
         Item               Value     Threshold  Converged?
 Maximum Force            0.000089     0.000450     YES
 RMS     Force            0.000017     0.000300     YES
 Maximum Displacement     0.000400     0.001800     YES
 RMS     Displacement     0.000144     0.001200     YES
 Predicted change in Energy=-1.886531D-08
 Optimization completed.
    -- Stationary point found.
                           ----------------------------
                           !   Optimized Parameters   !
                           ! (Angstroms and Degrees)  !
 --------------------------                            --------------------------
 ! Name  Definition              Value          Derivative Info.                !
 --------------------------------------------------------------------------------
 ! R1    R(1,2)                  1.2931         -DE/DX =    0.0                 !
 ! R2    R(1,5)                  1.3119         -DE/DX =    0.0                 !
 ! R3    R(2,3)                  1.3565         -DE/DX =    0.0                 !
 ! R4    R(2,8)                  1.0222         -DE/DX =    0.0                 !
 ! R5    R(3,4)                  1.3673         -DE/DX =    0.0                 !
 ! R6    R(3,6)                  1.0785         -DE/DX =    0.0                 !
 ! R7    R(4,5)                  1.3611         -DE/DX =    0.0                 !
 ! R8    R(4,7)                  1.0792         -DE/DX =    0.0                 !
 ! R9    R(5,10)                 1.4591         -DE/DX =    0.0                 !
 ! R10   R(9,11)                 0.9766         -DE/DX =    0.0                 !
 ! R11   R(10,11)                1.3054         -DE/DX =   -0.0001              !
 ! R12   R(10,12)                1.1942         -DE/DX =    0.0001              !
 ! A1    A(2,1,5)              103.9521         -DE/DX =    0.0                 !
 ! A2    A(1,2,3)              113.7284         -DE/DX =    0.0                 !
 ! A3    A(1,2,8)              118.7114         -DE/DX =    0.0                 !
 ! A4    A(3,2,8)              127.5602         -DE/DX =    0.0                 !
 ! A5    A(2,3,4)              104.8157         -DE/DX =    0.0                 !
 ! A6    A(2,3,6)              122.7364         -DE/DX =    0.0                 !
 ! A7    A(4,3,6)              132.448          -DE/DX =    0.0                 !
 ! A8    A(3,4,5)              104.3743         -DE/DX =    0.0                 !
 ! A9    A(3,4,7)              132.8578         -DE/DX =    0.0                 !
 ! A10   A(5,4,7)              122.7678         -DE/DX =    0.0                 !
 ! A11   A(1,5,4)              113.1295         -DE/DX =    0.0                 !
 ! A12   A(1,5,10)             120.9414         -DE/DX =    0.0                 !
 ! A13   A(4,5,10)             125.9291         -DE/DX =    0.0                 !
 ! A14   A(5,10,11)            115.1023         -DE/DX =    0.0                 !
 ! A15   A(5,10,12)            118.5976         -DE/DX =    0.0                 !
 ! A16   A(11,10,12)           126.3001         -DE/DX =    0.0                 !
 ! A17   A(9,11,10)            115.1121         -DE/DX =    0.0                 !
 ! D1    D(5,1,2,3)             -0.0016         -DE/DX =    0.0                 !
 ! D2    D(5,1,2,8)            180.0022         -DE/DX =    0.0                 !
 ! D3    D(2,1,5,4)             -0.0045         -DE/DX =    0.0                 !
 ! D4    D(2,1,5,10)           179.9994         -DE/DX =    0.0                 !
 ! D5    D(1,2,3,4)              0.0067         -DE/DX =    0.0                 !
 ! D6    D(1,2,3,6)           -179.9982         -DE/DX =    0.0                 !
 ! D7    D(8,2,3,4)           -179.9974         -DE/DX =    0.0                 !
 ! D8    D(8,2,3,6)             -0.0024         -DE/DX =    0.0                 !
 ! D9    D(2,3,4,5)             -0.0086         -DE/DX =    0.0                 !
 ! D10   D(2,3,4,7)           -180.0033         -DE/DX =    0.0                 !
 ! D11   D(6,3,4,5)            179.997          -DE/DX =    0.0                 !
 ! D12   D(6,3,4,7)              0.0023         -DE/DX =    0.0                 !
 ! D13   D(3,4,5,1)              0.0085         -DE/DX =    0.0                 !
 ! D14   D(3,4,5,10)          -179.9956         -DE/DX =    0.0                 !
 ! D15   D(7,4,5,1)           -179.9961         -DE/DX =    0.0                 !
 ! D16   D(7,4,5,10)            -0.0003         -DE/DX =    0.0                 !
 ! D17   D(1,5,10,11)           -0.0094         -DE/DX =    0.0                 !
 ! D18   D(1,5,10,12)         -180.011          -DE/DX =    0.0                 !
 ! D19   D(4,5,10,11)         -180.005          -DE/DX =    0.0                 !
 ! D20   D(4,5,10,12)           -0.0065         -DE/DX =    0.0                 !
 ! D21   D(5,10,11,9)           -0.0017         -DE/DX =    0.0                 !
 ! D22   D(12,10,11,9)        -180.0            -DE/DX =    0.0                 !
 --------------------------------------------------------------------------------
 GradGradGradGradGradGradGradGradGradGradGradGradGradGradGradGradGradGrad


 ----------------------------------------------------------------------

 Electric dipole moment (input orientation):
 (Debye = 10**-18 statcoulomb cm , SI units = C m)
                  (au)            (Debye)         (10**-30 SI)
   Tot        0.410649D+01      0.104377D+02      0.348163D+02
   x         -0.400464D+01     -0.101788D+02     -0.339528D+02
   y         -0.908898D+00     -0.231019D+01     -0.770596D+01
   z         -0.197814D-02     -0.502793D-02     -0.167714D-01

 Dipole polarizability, Alpha (input orientation).
 (esu units = cm**3 , SI units = C**2 m**2 J**-1)
 Alpha(0;0):
               (au)            (10**-24 esu)      (10**-40 SI)
   iso        0.730629D+02      0.108268D+02      0.120465D+02
   aniso      0.499499D+02      0.740181D+01      0.823562D+01
   xx         0.906338D+02      0.134305D+02      0.149435D+02
   yx         0.316489D+01      0.468989D+00      0.521820D+00
   yy         0.885692D+02      0.131246D+02      0.146031D+02
   zx         0.401771D-01      0.595363D-02      0.662431D-02
   zy        -0.772822D-01     -0.114520D-01     -0.127421D-01
   zz         0.399858D+02      0.592528D+01      0.659277D+01

 ----------------------------------------------------------------------

 Dipole orientation:
     7          0.38692431         -1.67627505          1.79507813
     7          0.11777349         -0.50046247          3.92026637
     6         -0.45084092          1.98538323          3.65898413
     6         -0.54070828          2.37789737          1.10666327
     7         -0.01378551          0.07581414          0.08764571
     1         -0.73436560          3.22447471          5.25204915
     1         -0.91829175          4.02807888         -0.03054419
     1          0.34415770         -1.49024441          5.56359989
     1          0.90939015         -3.95582990         -1.67608252
     6          0.12044953         -0.50997742         -2.60331032
     8          0.65795259         -2.85755831         -3.13779421
     8         -0.25856672          1.14551134         -4.08939398

 Electric dipole moment (dipole orientation):
 (Debye = 10**-18 statcoulomb cm , SI units = C m)
                  (au)            (Debye)         (10**-30 SI)
   Tot        0.410649D+01      0.104377D+02      0.348163D+02
   x          0.000000D+00      0.000000D+00      0.000000D+00
   y          0.000000D+00      0.000000D+00      0.000000D+00
   z          0.410649D+01      0.104377D+02      0.348163D+02

 Dipole polarizability, Alpha (dipole orientation).
 (esu units = cm**3 , SI units = C**2 m**2 J**-1)
 Alpha(0;0):
               (au)            (10**-24 esu)      (10**-40 SI)
   iso        0.730629D+02      0.108268D+02      0.120465D+02
   aniso      0.499499D+02      0.740181D+01      0.823562D+01
   xx         0.423407D+02      0.627424D+01      0.698104D+01
   yx        -0.102904D+02     -0.152487D+01     -0.169665D+01
   yy         0.849492D+02      0.125882D+02      0.140062D+02
   zx         0.536078D+00      0.794385D-01      0.883873D-01
   zy        -0.234874D+01     -0.348047D+00     -0.387255D+00
   zz         0.918989D+02      0.136180D+02      0.151521D+02

 ----------------------------------------------------------------------
 1\1\GINC-NODE5\Freq\RM062X\6-31+G(d,p)\C3H4N3O2(1+)\GONGKE2021\13-May-
 2023\0\\#N Geom=AllCheck Guess=TCheck SCRF=Check GenChk RM062X/6-31+G(
 d,p) Freq\\2-H-1-H-Tz\\1,1\N,-0.7248638319,-1.0980329339,0.0028840381\
 N,-1.9628499603,-0.7244685072,0.0011619408\C,-2.126684587,0.6220923711
 ,-0.0010547435\C,-0.8567143623,1.1288288497,-0.0008076756\N,-0.0542474
 227,0.0294627412,0.0017432508\H,-3.0976673148,1.0914682288,-0.00264739
 61\H,-0.4681248168,2.1356106887,-0.0020952198\H,-2.6919766924,-1.44091
 11671,0.0016421918\H,1.3403494837,-1.8983481382,0.0063986385\C,1.40481
 5922,0.0345036197,0.0030914216\O,1.9627088306,-1.1457182801,0.00564995
 89\O,1.9728007219,1.0849817273,0.0017750245\\Version=ES64L-G16RevA.03\
 State=1-A\HF=-431.0936549\RMSD=4.348e-09\RMSF=3.051e-05\ZeroPoint=0.08
 83443\Thermal=0.0944537\Dipole=-4.0046436,-0.9088977,-0.0019781\Dipole
 Deriv=0.3174509,0.5125664,-0.0004661,0.5819562,-0.5789092,0.0014291,-0
 .0006219,0.0012932,-0.0261495,-0.6578806,-0.5926074,0.0004042,-0.29591
 15,0.2772729,-0.0008376,-0.0000806,-0.0011362,-0.0905674,0.0988344,-0.
 2862649,0.0005257,0.1174119,-0.2070517,0.000447,-0.0000941,0.0000983,-
 0.0011558,0.1632609,0.4095016,-0.0005204,-0.24168,-0.0088013,-0.000198
 9,0.0005663,0.0004014,0.0174335,-1.4836781,-0.1923466,-0.0010887,-0.33
 1255,0.1348485,-0.0004651,-0.0009209,-0.0003094,0.0212759,0.2684075,-0
 .0360245,0.0000671,-0.0585077,0.210232,0.0000202,0.0000974,0.0000429,0
 .2559186,0.2048753,0.0311923,-0.0001,0.0352806,0.3078355,-0.0000514,-0
 .0001105,-0.0000621,0.2584883,0.539866,0.1895788,-0.000175,0.2015803,0
 .4946794,0.0000369,-0.0001748,0.0000367,0.4030865,0.5067989,-0.0021123
 ,0.0000266,-0.0445188,0.6702147,-0.0003798,0.0001215,-0.0003098,0.4787
 358,3.1269282,-0.0227694,0.0023583,0.2706917,2.9877862,-0.0038506,0.00
 18748,-0.0041026,0.6373289,-0.8625671,0.4157008,-0.0010882,0.2778847,-
 1.8182354,0.0026088,-0.0008539,0.0027135,-0.4705747,-1.2222964,-0.4264
 148,0.0000566,-0.5129325,-1.4698715,0.0012414,0.0001965,0.0013341,-0.4
 838202\Polar=90.6338206,3.1648917,88.5692061,0.0401771,-0.0772822,39.9
 858001\Quadrupole=5.437423,1.5237055,-6.9611285,-2.4755957,0.0158178,-
 0.0162314\PG=C01 [X(C3H4N3O2)]\NImag=0\\0.66675573,-0.03058243,0.60360
 836,0.00055675,-0.00078944,0.12363216,-0.39468238,0.05786683,-0.000381
 18,0.92728284,0.11961116,-0.14993538,0.00022757,0.17835580,0.86410852,
 -0.00047563,0.00016975,-0.07708332,0.00043333,-0.00098474,0.13529193,-
 0.03719488,0.01435111,-0.00007521,-0.14957009,0.03392485,-0.00012819,0
 .95549217,0.09556204,-0.06739587,0.00022509,0.00116651,-0.32750029,0.0
 0040188,-0.11477090,0.64462532,-0.00020353,0.00015681,0.02236460,-0.00
 007551,0.00042987,-0.06893881,0.00089329,-0.00090513,0.13690233,-0.018
 58933,0.04040225,-0.00009779,0.01730385,-0.10515971,0.00017202,-0.3807
 0822,-0.08493384,-0.00012180,0.69425005,-0.02139422,-0.09917824,0.0001
 7126,-0.02101063,-0.05021053,0.00008206,-0.11571636,-0.16495029,0.0000
 5116,0.16924134,0.89199658,0.00000101,0.00022272,0.01919856,0.00003713
 ,-0.00000159,0.01091367,-0.00007603,0.00008688,-0.07049716,0.00021796,
 -0.00107835,0.13601083,-0.14547065,-0.04464605,0.00000656,-0.17207912,
 -0.03709864,-0.00011314,-0.08216459,-0.01786519,-0.00005859,-0.1821445
 4,0.08447590,-0.00024244,0.82288322,-0.13741771,-0.31228633,0.00023795
 ,-0.05052958,-0.05401033,0.00005791,0.07372490,0.03562988,0.00002650,0
 .07569710,-0.25976034,0.00038542,0.00048551,0.74345953,0.00015426,0.00
 032611,-0.08056585,-0.00009374,0.00007622,0.01448446,-0.00019721,-0.00
 006214,0.00920993,-0.00023132,0.00039125,-0.06785888,0.00064174,-0.000
 98453,0.13535047,0.00318581,-0.00334671,0.00000184,0.00782793,-0.00291
 911,0.00001380,-0.32680339,0.13070861,-0.00046303,-0.00587255,0.010384
 04,-0.00002393,-0.00248510,-0.00158991,-0.00000464,0.32416063,-0.00092
 742,-0.00487712,0.00001795,0.03098606,-0.00936096,0.00003853,0.1202807
 7,-0.11501350,0.00023371,-0.01056388,0.01328827,-0.00002863,-0.0058604
 2,-0.00141655,0.00000683,-0.13410660,0.11553006,-0.00000338,0.00001619
 ,0.00727370,-0.00003766,0.00000705,-0.00283472,-0.00044863,0.00024391,
 -0.03400384,0.00001062,-0.00001028,0.00156025,0.00000193,0.00001099,0.
 00605098,0.00047400,-0.00025946,0.02576568,-0.00324718,0.00510260,-0.0
 0001742,-0.00541878,-0.00292479,-0.00000475,0.00334179,-0.01940666,0.0
 0003122,-0.10007413,-0.11786956,0.00013082,0.01333576,0.02252435,-0.00
 002166,0.00024996,0.00063727,0.00000144,0.09137686,0.00273459,0.001278
 14,0.00001210,0.00188701,0.00183794,0.00000784,0.00073053,0.00470026,-
 0.00000356,-0.10851646,-0.33854180,0.00040005,-0.00811448,-0.01590079,
 0.00001368,-0.00025997,-0.00013865,-0.00000408,0.11283899,0.34650774,-
 0.00001451,0.00001228,0.00683167,-0.00001224,0.00000307,0.00560869,-0.
 00000017,-0.00002048,0.00210827,0.00011501,0.00039050,-0.03231727,0.00
 002836,0.00004336,-0.00239131,0.00000286,-0.00000321,-0.00251378,-0.00
 012236,-0.00042298,0.02359508,-0.02320309,-0.02533528,0.00002787,-0.24
 990639,-0.17901629,0.00008103,0.01376630,0.00362736,0.00000734,0.00150
 422,0.00466487,-0.00001030,-0.00148404,0.00630786,-0.00001869,0.000021
 52,-0.00057734,0.00000269,0.00085279,-0.00040410,0.00000077,0.26002689
 ,0.00828053,0.01743970,-0.00003587,-0.19212986,-0.26484151,0.00021144,
 -0.01816080,-0.00531435,-0.00000890,0.00049962,-0.00505792,0.00001592,
 0.01281193,0.00328577,0.00002005,0.00051168,0.00063610,-0.00000380,-0.
 00075302,0.00033083,-0.00000004,0.19134769,0.25174236,-0.00002701,-0.0
 0006654,-0.00991308,0.00010403,0.00022452,-0.02145998,0.00004125,0.000
 00965,-0.00134768,-0.00000392,0.00001982,0.00488835,-0.00002820,0.0000
 1405,0.00824686,0.00000099,-0.00000473,-0.00201921,0.00000130,0.000000
 32,0.00070088,-0.00008896,-0.00019575,0.01954147,-0.00407027,0.0056920
 2,-0.00001974,-0.00187460,-0.00130204,0.00000150,-0.00009899,-0.002233
 52,0.00000299,0.00206150,-0.00154128,0.00000445,-0.00404775,0.00502421
 ,-0.00001359,-0.00019143,-0.00018353,-0.00000006,0.00013036,0.00002722
 ,0.00000010,-0.00040441,-0.00026547,0.00000020,0.22654670,0.00137892,0
 .00011420,-0.00000549,-0.00154826,0.00055719,-0.00000405,-0.00110490,0
 .00065144,-0.00000140,-0.00045776,-0.00181033,0.00000178,-0.00238008,0
 .00004161,-0.00000044,0.00000793,-0.00008985,0.00000048,-0.00007256,-0
 .00013336,0.00000007,0.00027124,0.00038502,-0.00000048,0.21533664,0.32
 930186,-0.00000949,0.00000490,-0.00324641,0.00000165,-0.00000386,-0.00
 085528,0.00000162,-0.00000281,0.00032394,0.00000312,0.00000104,-0.0003
 3462,-0.00000091,0.00000578,0.00038630,-0.00000033,0.00000019,0.000151
 29,0.00000030,0.00000016,-0.00005247,-0.00000080,-0.00000104,-0.000078
 71,-0.00016234,-0.00036358,0.01071910,-0.04197862,-0.03892988,0.000035
 00,0.03806509,-0.00077970,0.00003189,0.00867325,0.00846703,-0.00000901
 ,-0.02915816,0.02341647,-0.00006094,-0.14153861,0.02168010,-0.00011420
 ,-0.00013725,0.00117219,-0.00000301,0.00091978,0.00034085,0.00000156,-
 0.00240205,-0.00517812,0.00000293,0.02014131,-0.01865531,0.00005223,0.
 56397549,-0.03114458,0.01012358,-0.00005964,-0.00433307,-0.01154459,0.
 00002222,0.00710287,-0.00589869,0.00002320,0.02300941,0.01430798,-0.00
 001092,0.03501005,-0.11341599,0.00012865,0.00047434,0.00116175,0.00000
 026,-0.00031109,-0.00127973,-0.00000101,-0.00101571,0.00088404,0.00000
 177,0.01511719,-0.04418440,0.00006925,0.17874713,1.06034532,0.00001748
 ,-0.00007522,-0.01297267,0.00003867,0.00002550,0.00511251,-0.00000701,
 0.00002501,0.00445754,-0.00006051,-0.00000994,-0.00468976,-0.00013719,
 0.00011587,-0.05516410,-0.00000183,0.00000098,0.00111512,0.00000290,-0
 .00000033,-0.00177481,-0.00000299,-0.00000216,0.00255256,-0.00000660,0
 .00005037,-0.00729529,0.00002149,-0.00132297,0.20429778,0.00019952,0.0
 0572267,-0.00001024,-0.00457642,0.00222036,-0.00000835,-0.00429303,0.0
 0160820,-0.00000591,-0.00183306,-0.00908076,0.00001005,-0.04539886,0.0
 4585467,-0.00013521,-0.00009225,-0.00063798,0.00000155,-0.00004841,-0.
 00024888,0.00000035,0.00073287,0.00092956,-0.00000045,-0.23762882,-0.1
 9731660,0.00013003,-0.16343347,0.06716732,-0.00021361,0.42569049,-0.00
 742733,-0.00630940,0.00000187,0.00647788,0.00069972,0.00000576,0.00189
 051,0.00141937,-0.00000125,-0.00285177,0.00588397,-0.00000689,0.028035
 12,-0.01109352,0.00007046,0.00008979,0.00046038,-0.00000149,-0.0001132
 9,0.00054609,-0.00000094,-0.00026462,-0.00076200,0.00000037,-0.2459357
 2,-0.28908819,0.00027432,0.12287476,-0.29502722,0.00052803,0.09955897,
 0.71789459,0.00001081,0.00001526,-0.00018671,-0.00001574,0.00000190,0.
 00056492,-0.00000705,-0.00000129,-0.00049784,0.00000006,-0.00001369,0.
 00306048,-0.00010368,0.00008719,0.01453513,0.00000017,-0.00000218,-0.0
 0049303,0.00000014,-0.00000113,0.00002963,0.00000143,0.00000173,-0.000
 28033,0.00021833,0.00031325,-0.00709324,-0.00031295,0.00048200,-0.0547
 6239,0.00019194,-0.00111501,0.02817740,-0.00170467,0.01370287,-0.00002
 645,-0.01237192,-0.00491190,-0.00000353,-0.00044033,-0.00192963,0.0000
 0254,0.00326035,-0.00556982,0.00001222,-0.05940572,-0.06176151,0.00003
 427,0.00013612,-0.00021911,0.00000052,-0.00141881,-0.00101530,0.000000
 26,0.00049539,0.00210626,-0.00000217,-0.00056359,0.00454073,-0.0000150
 8,-0.25312675,-0.28982386,0.00034922,0.03068142,-0.00233430,0.00001654
 ,0.29445851,0.00132646,0.00741834,-0.00000336,-0.00718868,0.00020023,-
 0.00000861,-0.00225258,-0.00095328,-0.00000101,0.00363369,-0.00596736,
 0.00001359,-0.04485364,-0.01453294,0.00001386,0.00004590,-0.00017992,0
 .00000024,0.00034775,0.00079335,-0.00000061,0.00039429,0.00127197,-0.0
 0000299,0.01026429,0.00425480,0.00001566,-0.29315552,-0.61547204,0.000
 66486,-0.01577753,-0.12462378,0.00023198,0.34721558,0.74779061,-0.0000
 0677,0.00000717,0.00466735,0.00000125,-0.00000552,-0.00080409,0.000003
 34,-0.00000057,-0.00008129,-0.00000344,0.00000517,0.00006555,0.0000055
 7,-0.00000049,0.01771598,0.00000008,0.00000002,-0.00005244,-0.00000192
 ,-0.00000207,0.00017542,0.00000060,-0.00000157,-0.00083114,-0.00002525
 ,0.00000950,0.00737538,0.00035501,0.00066719,-0.08087651,0.00003985,0.
 00024479,0.01694598,-0.00036833,-0.00092362,0.03569980\\-0.00002321,0.
 00000847,-0.00000812,-0.00000892,0.00000413,-0.00001056,0.00001786,0.0
 0000459,0.00001699,-0.00000072,0.00000999,-0.00001744,0.00001746,-0.00
 001217,0.00001390,0.00000817,0.00002113,0.00000155,0.00001695,-0.00000
 068,-0.00000200,-0.00000586,0.00001150,0.00000033,-0.00000022,0.000000
 91,0.00000168,0.00000834,0.00011749,0.00000735,0.00001569,-0.00007837,
 -0.00000105,-0.00004555,-0.00008699,-0.00000263\\\@


 K N O W I N G  IS A BARRIER WHICH PREVENTS LEARNING

                     -- TEACHING OF THE BENE GESSERIT
 Job cpu time:       0 days  0 hours 17 minutes 14.2 seconds.
 Elapsed time:       0 days  0 hours  0 minutes 44.0 seconds.
 File lengths (MBytes):  RWF=     64 Int=      0 D2E=      0 Chk=      7 Scr=      1
 Normal termination of Gaussian 16 at Sat May 13 22:14:03 2023.
