 Entering Gaussian System, Link 0=g16
 Input=sidanzuo-RC.gjf
 Output=sidanzuo-RC.log
 Initial command:
 /home/Tinker/g16/l1.exe "/home/Tinker/g16/scratch/Gau-3260452.inp" -scrdir="/home/Tinker/g16/scratch/"
 Entering Link 1 = /home/Tinker/g16/l1.exe PID=   3260453.
  
 Copyright (c) 1988-2019, Gaussian, Inc.  All Rights Reserved.
  
 This is part of the Gaussian(R) 16 program.  It is based on
 the Gaussian(R) 09 system (copyright 2009, Gaussian, Inc.),
 the Gaussian(R) 03 system (copyright 2003, Gaussian, Inc.),
 the Gaussian(R) 98 system (copyright 1998, Gaussian, Inc.),
 the Gaussian(R) 94 system (copyright 1995, Gaussian, Inc.),
 the Gaussian 92(TM) system (copyright 1992, Gaussian, Inc.),
 the Gaussian 90(TM) system (copyright 1990, Gaussian, Inc.),
 the Gaussian 88(TM) system (copyright 1988, Gaussian, Inc.),
 the Gaussian 86(TM) system (copyright 1986, Carnegie Mellon
 University), and the Gaussian 82(TM) system (copyright 1983,
 Carnegie Mellon University). Gaussian is a federally registered
 trademark of Gaussian, Inc.
  
 This software contains proprietary and confidential information,
 including trade secrets, belonging to Gaussian, Inc.
  
 This software is provided under written license and may be
 used, copied, transmitted, or stored only in accord with that
 written license.
  
 The following legend is applicable only to US Government
 contracts under FAR:
  
                    RESTRICTED RIGHTS LEGEND
  
 Use, reproduction and disclosure by the US Government is
 subject to restrictions as set forth in subparagraphs (a)
 and (c) of the Commercial Computer Software - Restricted
 Rights clause in FAR 52.227-19.
  
 Gaussian, Inc.
 340 Quinnipiac St., Bldg. 40, Wallingford CT 06492
  
  
 ---------------------------------------------------------------
 Warning -- This program may not be used in any manner that
 competes with the business of Gaussian, Inc. or will provide
 assistance to any competitor of Gaussian, Inc.  The licensee
 of this program is prohibited from giving any competitor of
 Gaussian, Inc. access to this program.  By using this program,
 the user acknowledges that Gaussian, Inc. is engaged in the
 business of creating and licensing software in the field of
 computational chemistry and represents and warrants to the
 licensee that it is not a competitor of Gaussian, Inc. and that
 it will not use this program in any manner prohibited above.
 ---------------------------------------------------------------
  

 Cite this work as:
 Gaussian 16, Revision C.01,
 M. J. Frisch, G. W. Trucks, H. B. Schlegel, G. E. Scuseria, 
 M. A. Robb, J. R. Cheeseman, G. Scalmani, V. Barone, 
 G. A. Petersson, H. Nakatsuji, X. Li, M. Caricato, A. V. Marenich, 
 J. Bloino, B. G. Janesko, R. Gomperts, B. Mennucci, H. P. Hratchian, 
 J. V. Ortiz, A. F. Izmaylov, J. L. Sonnenberg, D. Williams-Young, 
 F. Ding, F. Lipparini, F. Egidi, J. Goings, B. Peng, A. Petrone, 
 T. Henderson, D. Ranasinghe, V. G. Zakrzewski, J. Gao, N. Rega, 
 G. Zheng, W. Liang, M. Hada, M. Ehara, K. Toyota, R. Fukuda, 
 J. Hasegawa, M. Ishida, T. Nakajima, Y. Honda, O. Kitao, H. Nakai, 
 T. Vreven, K. Throssell, J. A. Montgomery, Jr., J. E. Peralta, 
 F. Ogliaro, M. J. Bearpark, J. J. Heyd, E. N. Brothers, K. N. Kudin, 
 V. N. Staroverov, T. A. Keith, R. Kobayashi, J. Normand, 
 K. Raghavachari, A. P. Rendell, J. C. Burant, S. S. Iyengar, 
 J. Tomasi, M. Cossi, J. M. Millam, M. Klene, C. Adamo, R. Cammi, 
 J. W. Ochterski, R. L. Martin, K. Morokuma, O. Farkas, 
 J. B. Foresman, and D. J. Fox, Gaussian, Inc., Wallingford CT, 2019.
 
 ******************************************
 Gaussian 16:  ES64L-G16RevC.01  3-Jul-2019
                 8-Nov-2023 
 ******************************************
 %mem=10GB
 %nprocshared=30
 Will use up to   30 processors via shared memory.
 -----------------------------------------------------
 # opt 6-31+g(d,p) scrf=(smd,solvent=water) m062x freq
 -----------------------------------------------------
 1/18=20,19=15,26=3,38=1/1,3;
 2/9=110,12=2,17=6,18=5,40=1/2;
 3/5=1,6=6,7=111,11=2,25=1,30=1,70=32201,71=1,72=1,74=-55/1,2,3;
 4//1;
 5/5=2,38=5,53=1/2;
 6/7=2,8=2,9=2,10=2,28=1/1;
 7//1,2,3,16;
 1/18=20,19=15,26=3/3(2);
 2/9=110/2;
 99//99;
 2/9=110/2;
 3/5=1,6=6,7=111,11=2,25=1,30=1,70=32205,71=1,72=1,74=-55/1,2,3;
 4/5=5,16=3,69=1/1;
 5/5=2,38=5,53=1/2;
 7//1,2,3,16;
 1/18=20,19=15,26=3/3(-5);
 2/9=110/2;
 6/7=2,8=2,9=2,10=2,19=2,28=1/1;
 99/9=1/99;
 -------------------
 Title Card Required
 -------------------
 Symbolic Z-matrix:
 Charge = -1 Multiplicity = 2
 N                    -0.80873   1.06032  -0.23364 
 N                     0.00006  -0.06558  -0.24987 
 N                    -0.76925  -1.18475  -0.02828 
 N                    -2.03072  -0.73552   0.15516 
 C                    -2.04412   0.5663    0.07996 
 C                     1.40489   0.03527   0.02133 
 O                     2.01274  -1.04878   0.14297 
 O                     1.83456   1.21222   0.07034 
 H                    -0.39795   1.90538   0.16078 
 H                    -2.9106    1.19756   0.2029 
 

 GradGradGradGradGradGradGradGradGradGradGradGradGradGradGradGradGradGrad
 Berny optimization.
 Initialization pass.
                           ----------------------------
                           !    Initial Parameters    !
                           ! (Angstroms and Degrees)  !
 --------------------------                            --------------------------
 ! Name  Definition              Value          Derivative Info.                !
 --------------------------------------------------------------------------------
 ! R1    R(1,2)                  1.3864         estimate D2E/DX2                !
 ! R2    R(1,5)                  1.367          estimate D2E/DX2                !
 ! R3    R(1,9)                  1.019          estimate D2E/DX2                !
 ! R4    R(2,3)                  1.376          estimate D2E/DX2                !
 ! R5    R(2,6)                  1.4343         estimate D2E/DX2                !
 ! R6    R(3,4)                  1.3516         estimate D2E/DX2                !
 ! R7    R(4,5)                  1.3041         estimate D2E/DX2                !
 ! R8    R(5,10)                 1.0791         estimate D2E/DX2                !
 ! R9    R(6,7)                  1.2488         estimate D2E/DX2                !
 ! R10   R(6,8)                  1.2539         estimate D2E/DX2                !
 ! A1    A(2,1,5)              103.6753         estimate D2E/DX2                !
 ! A2    A(2,1,9)              116.2855         estimate D2E/DX2                !
 ! A3    A(5,1,9)              125.1142         estimate D2E/DX2                !
 ! A4    A(1,2,3)              109.4191         estimate D2E/DX2                !
 ! A5    A(1,2,6)              120.8017         estimate D2E/DX2                !
 ! A6    A(3,2,6)              125.0521         estimate D2E/DX2                !
 ! A7    A(2,3,4)              105.8626         estimate D2E/DX2                !
 ! A8    A(3,4,5)              109.4853         estimate D2E/DX2                !
 ! A9    A(1,5,4)              111.3904         estimate D2E/DX2                !
 ! A10   A(1,5,10)             122.712          estimate D2E/DX2                !
 ! A11   A(4,5,10)             125.8511         estimate D2E/DX2                !
 ! A12   A(2,6,7)              115.7298         estimate D2E/DX2                !
 ! A13   A(2,6,8)              114.1432         estimate D2E/DX2                !
 ! A14   A(7,6,8)              130.1071         estimate D2E/DX2                !
 ! D1    D(5,1,2,3)              3.4172         estimate D2E/DX2                !
 ! D2    D(5,1,2,6)           -153.3825         estimate D2E/DX2                !
 ! D3    D(9,1,2,3)            144.7181         estimate D2E/DX2                !
 ! D4    D(9,1,2,6)            -12.0816         estimate D2E/DX2                !
 ! D5    D(2,1,5,4)             -4.2214         estimate D2E/DX2                !
 ! D6    D(2,1,5,10)           178.126          estimate D2E/DX2                !
 ! D7    D(9,1,5,4)           -140.9622         estimate D2E/DX2                !
 ! D8    D(9,1,5,10)            41.3853         estimate D2E/DX2                !
 ! D9    D(1,2,3,4)             -1.5232         estimate D2E/DX2                !
 ! D10   D(6,2,3,4)            154.0615         estimate D2E/DX2                !
 ! D11   D(1,2,6,7)            171.6143         estimate D2E/DX2                !
 ! D12   D(1,2,6,8)             -9.8392         estimate D2E/DX2                !
 ! D13   D(3,2,6,7)             18.6053         estimate D2E/DX2                !
 ! D14   D(3,2,6,8)           -162.8481         estimate D2E/DX2                !
 ! D15   D(2,3,4,5)             -1.145          estimate D2E/DX2                !
 ! D16   D(3,4,5,1)              3.4773         estimate D2E/DX2                !
 ! D17   D(3,4,5,10)          -178.9596         estimate D2E/DX2                !
 --------------------------------------------------------------------------------
 Trust Radius=3.00D-01 FncErr=1.00D-07 GrdErr=1.00D-06 EigMax=2.50D+02 EigMin=1.00D-04
 Number of steps in this run=     51 maximum allowed number of steps=    100.
 GradGradGradGradGradGradGradGradGradGradGradGradGradGradGradGradGradGrad

                          Input orientation:                          
 ---------------------------------------------------------------------
 Center     Atomic      Atomic             Coordinates (Angstroms)
 Number     Number       Type             X           Y           Z
 ---------------------------------------------------------------------
      1          7           0       -0.808725    1.060317   -0.233635
      2          7           0        0.000060   -0.065583   -0.249872
      3          7           0       -0.769247   -1.184747   -0.028278
      4          7           0       -2.030724   -0.735516    0.155161
      5          6           0       -2.044121    0.566299    0.079961
      6          6           0        1.404890    0.035269    0.021325
      7          8           0        2.012736   -1.048777    0.142965
      8          8           0        1.834563    1.212217    0.070344
      9          1           0       -0.397952    1.905384    0.160781
     10          1           0       -2.910601    1.197560    0.202895
 ---------------------------------------------------------------------
                    Distance matrix (angstroms):
                    1          2          3          4          5
     1  N    0.000000
     2  N    1.386379   0.000000
     3  N    2.254782   1.376032   0.000000
     4  N    2.206685   2.176453   1.351585   0.000000
     5  C    1.366967   2.164888   2.168682   1.304054   0.000000
     6  C    2.452717   1.434317   2.493546   3.523559   3.490144
     7  O    3.542703   2.274172   2.790563   4.055595   4.366982
     8  O    2.665042   2.258476   3.540479   4.329122   3.932110
     9  H    1.019037   2.052257   3.118094   3.104888   2.123571
    10  H    2.151111   3.205070   3.211577   2.124440   1.079069
                    6          7          8          9         10
     6  C    0.000000
     7  O    1.248771   0.000000
     8  O    1.253885   2.269166   0.000000
     9  H    2.601349   3.812978   2.339398   0.000000
    10  H    4.472958   5.411919   4.747038   2.610784   0.000000
 Stoichiometry    C2H2N4O2(1-,2)
 Framework group  C1[X(C2H2N4O2)]
 Deg. of freedom    24
 Full point group                 C1      NOp   1
 Largest Abelian subgroup         C1      NOp   1
 Largest concise Abelian subgroup C1      NOp   1
                         Standard orientation:                         
 ---------------------------------------------------------------------
 Center     Atomic      Atomic             Coordinates (Angstroms)
 Number     Number       Type             X           Y           Z
 ---------------------------------------------------------------------
      1          7           0        0.772885    1.049290    0.189216
      2          7           0       -0.025196   -0.082330    0.256668
      3          7           0        0.752718   -1.202402    0.072947
      4          7           0        2.008429   -0.749425   -0.138676
      5          6           0        2.010276    0.554413   -0.115019
      6          6           0       -1.433043   -0.004942   -0.006475
      7          8           0       -2.031701   -1.098383   -0.080129
      8          8           0       -1.874066    1.165228   -0.098283
      9          1           0        0.351080    1.874368   -0.234771
     10          1           0        2.869808    1.188103   -0.270048
 ---------------------------------------------------------------------
 Rotational constants (GHZ):           5.2961954           1.8122746           1.3670548
 Standard basis: 6-31+G(d,p) (6D, 7F)
 There are   162 symmetry adapted cartesian basis functions of A   symmetry.
 There are   162 symmetry adapted basis functions of A   symmetry.
   162 basis functions,   270 primitive gaussians,   162 cartesian basis functions
    30 alpha electrons       29 beta electrons
       nuclear repulsion energy       362.2860913427 Hartrees.
 NAtoms=   10 NActive=   10 NUniq=   10 SFac= 1.00D+00 NAtFMM=   60 NAOKFM=F Big=F
 Integral buffers will be    131072 words long.
 Raffenetti 2 integral format.
 Two-electron integral symmetry is turned on.
 ------------------------------------------------------------------------------
 Polarizable Continuum Model (PCM)
 =================================
 Model                : PCM.
 Atomic radii         : SMD-Coulomb.
 Polarization charges : Total charges.
 Charge compensation  : None.
 Solution method      : On-the-fly selection.
 Cavity type          : VdW (van der Waals Surface) (Alpha=1.000).
 Cavity algorithm     : GePol (No added spheres)
                        Default sphere list used, NSphG=   10.
                        Lebedev-Laikov grids with approx.  5.0 points / Ang**2.
                        Smoothing algorithm: York/Karplus (Gamma=1.0000).
                        Polarization charges: spherical gaussians, with
                                              point-specific exponents (IZeta= 3).
                        Self-potential: point-specific (ISelfS= 7).
                        Self-field    : sphere-specific E.n sum rule (ISelfD= 2).
 1st derivatives      : Analytical E(r).r(x)/FMM algorithm (CHGder, D1EAlg=3).
                        Cavity 1st derivative terms included.
 Solvent              : Water, Eps=  78.355300 Eps(inf)=   1.777849
 ------------------------------------------------------------------------------
 Spheres list:
 ISph  on   Nord     Re0    Alpha      Xe            Ye            Ze
    1   N      1    1.8900  1.000      0.772885      1.049290      0.189216
    2   N      2    1.8900  1.000     -0.025196     -0.082330      0.256668
    3   N      3    1.8900  1.000      0.752718     -1.202402      0.072947
    4   N      4    1.8900  1.000      2.008429     -0.749425     -0.138676
    5   C      5    1.8500  1.000      2.010276      0.554413     -0.115019
    6   C      6    1.8500  1.000     -1.433043     -0.004942     -0.006475
    7   O      7    1.5200  1.000     -2.031701     -1.098383     -0.080129
    8   O      8    1.5200  1.000     -1.874066      1.165228     -0.098283
    9   H      9    1.2000  1.000      0.351080      1.874368     -0.234771
   10   H     10    1.2000  1.000      2.869808      1.188103     -0.270048
 ------------------------------------------------------------------------------
 ------------------------------------------------------------------------------
 Atomic radii for non-electrostatic terms: SMD-CDS.
 ------------------------------------------------------------------------------
 Nuclear repulsion after PCM non-electrostatic terms =      362.2921378458 Hartrees.
 One-electron integrals computed using PRISM.
 NBasis=   162 RedAO= T EigKep=  5.85D-05  NBF=   162
 NBsUse=   162 1.00D-06 EigRej= -1.00D+00 NBFU=   162
 ExpMin= 4.38D-02 ExpMax= 5.48D+03 ExpMxC= 8.25D+02 IAcc=3 IRadAn=         5 AccDes= 0.00D+00
 Harris functional with IExCor= 1009 and IRadAn=       5 diagonalized for initial guess.
 HarFok:  IExCor= 1009 AccDes= 0.00D+00 IRadAn=         5 IDoV= 1 UseB2=F ITyADJ=14
 ICtDFT=  3500011 ScaDFX=  1.000000  1.000000  1.000000  1.000000
 FoFCou: FMM=F IPFlag=           0 FMFlag=      100000 FMFlg1=           0
         NFxFlg=           0 DoJE=T BraDBF=F KetDBF=T FulRan=T
         wScrn=  0.000000 ICntrl=       500 IOpCl=  0 I1Cent=   200000004 NGrid=           0
         NMat0=    1 NMatS0=      1 NMatT0=    0 NMatD0=    1 NMtDS0=    0 NMtDT0=    0
 Petite list used in FoFCou.
 Initial guess <Sx>= 0.0000 <Sy>= 0.0000 <Sz>= 0.5000 <S**2>= 0.7500 S= 0.5000
 Keep R1 and R2 ints in memory in canonical form, NReq=204019066.
 Requested convergence on RMS density matrix=1.00D-08 within 128 cycles.
 Requested convergence on MAX density matrix=1.00D-06.
 Requested convergence on             energy=1.00D-06.
 No special actions if energy rises.
 Inv3:  Mode=1 IEnd=     2904768.
 Iteration    1 A*A^-1 deviation from unit magnitude is 4.11D-15 for    980.
 Iteration    1 A*A^-1 deviation from orthogonality  is 2.24D-15 for    260    118.
 Iteration    1 A^-1*A deviation from unit magnitude is 4.33D-15 for    980.
 Iteration    1 A^-1*A deviation from orthogonality  is 1.73D-15 for    647    379.
 Error on total polarization charges =  0.04478
 SCF Done:  E(UM062X) =  -446.799823331     A.U. after   19 cycles
            NFock= 19  Conv=0.45D-08     -V/T= 2.0083
 <Sx>= 0.0000 <Sy>= 0.0000 <Sz>= 0.5000 <S**2>= 0.7632 S= 0.5066
 <L.S>=  0.00000000000    
 SMD-CDS (non-electrostatic) energy       (kcal/mol) =       3.79
 (included in total energy above)
 Annihilation of the first spin contaminant:
 S**2 before annihilation     0.7632,   after     0.7501

 **********************************************************************

            Population analysis using the SCF Density.

 **********************************************************************

 Orbital symmetries:
 Alpha Orbitals:
       Occupied  (A) (A) (A) (A) (A) (A) (A) (A) (A) (A) (A) (A)
                 (A) (A) (A) (A) (A) (A) (A) (A) (A) (A) (A) (A)
                 (A) (A) (A) (A) (A) (A)
       Virtual   (A) (A) (A) (A) (A) (A) (A) (A) (A) (A) (A) (A)
                 (A) (A) (A) (A) (A) (A) (A) (A) (A) (A) (A) (A)
                 (A) (A) (A) (A) (A) (A) (A) (A) (A) (A) (A) (A)
                 (A) (A) (A) (A) (A) (A) (A) (A) (A) (A) (A) (A)
                 (A) (A) (A) (A) (A) (A) (A) (A) (A) (A) (A) (A)
                 (A) (A) (A) (A) (A) (A) (A) (A) (A) (A) (A) (A)
                 (A) (A) (A) (A) (A) (A) (A) (A) (A) (A) (A) (A)
                 (A) (A) (A) (A) (A) (A) (A) (A) (A) (A) (A) (A)
                 (A) (A) (A) (A) (A) (A) (A) (A) (A) (A) (A) (A)
                 (A) (A) (A) (A) (A) (A) (A) (A) (A) (A) (A) (A)
                 (A) (A) (A) (A) (A) (A) (A) (A) (A) (A) (A) (A)
 Beta  Orbitals:
       Occupied  (A) (A) (A) (A) (A) (A) (A) (A) (A) (A) (A) (A)
                 (A) (A) (A) (A) (A) (A) (A) (A) (A) (A) (A) (A)
                 (A) (A) (A) (A) (A)
       Virtual   (A) (A) (A) (A) (A) (A) (A) (A) (A) (A) (A) (A)
                 (A) (A) (A) (A) (A) (A) (A) (A) (A) (A) (A) (A)
                 (A) (A) (A) (A) (A) (A) (A) (A) (A) (A) (A) (A)
                 (A) (A) (A) (A) (A) (A) (A) (A) (A) (A) (A) (A)
                 (A) (A) (A) (A) (A) (A) (A) (A) (A) (A) (A) (A)
                 (A) (A) (A) (A) (A) (A) (A) (A) (A) (A) (A) (A)
                 (A) (A) (A) (A) (A) (A) (A) (A) (A) (A) (A) (A)
                 (A) (A) (A) (A) (A) (A) (A) (A) (A) (A) (A) (A)
                 (A) (A) (A) (A) (A) (A) (A) (A) (A) (A) (A) (A)
                 (A) (A) (A) (A) (A) (A) (A) (A) (A) (A) (A) (A)
                 (A) (A) (A) (A) (A) (A) (A) (A) (A) (A) (A) (A)
                 (A)
 The electronic state is 2-A.
 Alpha  occ. eigenvalues --  -19.61451 -19.61272 -14.85877 -14.84140 -14.81556
 Alpha  occ. eigenvalues --  -14.79760 -10.69382 -10.62277  -1.24829  -1.18020
 Alpha  occ. eigenvalues --   -1.09371  -1.05082  -0.99285  -0.80637  -0.73518
 Alpha  occ. eigenvalues --   -0.70054  -0.60902  -0.59144  -0.55526  -0.54636
 Alpha  occ. eigenvalues --   -0.51036  -0.50137  -0.43061  -0.40785  -0.39301
 Alpha  occ. eigenvalues --   -0.38146  -0.35813  -0.35152  -0.34279  -0.20458
 Alpha virt. eigenvalues --    0.02237   0.04018   0.04460   0.04743   0.05653
 Alpha virt. eigenvalues --    0.06627   0.07055   0.08371   0.10304   0.10661
 Alpha virt. eigenvalues --    0.11476   0.14837   0.15184   0.17483   0.18726
 Alpha virt. eigenvalues --    0.18811   0.21105   0.21285   0.21832   0.22680
 Alpha virt. eigenvalues --    0.23234   0.23378   0.24169   0.25758   0.26784
 Alpha virt. eigenvalues --    0.26985   0.27815   0.28957   0.29409   0.29944
 Alpha virt. eigenvalues --    0.30512   0.31154   0.31789   0.33647   0.34351
 Alpha virt. eigenvalues --    0.35413   0.36062   0.38623   0.41531   0.43377
 Alpha virt. eigenvalues --    0.47890   0.50070   0.51570   0.63948   0.74154
 Alpha virt. eigenvalues --    0.80067   0.81527   0.82053   0.86689   0.88176
 Alpha virt. eigenvalues --    0.91452   0.93228   0.94822   0.96176   0.97354
 Alpha virt. eigenvalues --    0.98960   0.99949   1.02107   1.03244   1.09256
 Alpha virt. eigenvalues --    1.11497   1.11606   1.14700   1.17746   1.22167
 Alpha virt. eigenvalues --    1.24015   1.27201   1.28894   1.33373   1.35662
 Alpha virt. eigenvalues --    1.35979   1.36918   1.38437   1.40567   1.44313
 Alpha virt. eigenvalues --    1.45214   1.47748   1.50988   1.53003   1.54711
 Alpha virt. eigenvalues --    1.57428   1.62549   1.75319   1.77250   1.81704
 Alpha virt. eigenvalues --    1.85633   1.88065   1.90325   1.91667   1.93906
 Alpha virt. eigenvalues --    1.98547   2.02297   2.03530   2.05419   2.10044
 Alpha virt. eigenvalues --    2.12051   2.16570   2.22240   2.25295   2.27857
 Alpha virt. eigenvalues --    2.31948   2.32260   2.39191   2.43806   2.49524
 Alpha virt. eigenvalues --    2.50793   2.61887   2.63251   2.65244   2.68185
 Alpha virt. eigenvalues --    2.71885   2.73330   2.80136   2.84005   2.88617
 Alpha virt. eigenvalues --    2.94348   2.95971   3.05464   3.10284   3.11472
 Alpha virt. eigenvalues --    3.24461   3.25869   3.42379   3.62082   3.98184
 Alpha virt. eigenvalues --    4.08363   4.16966   4.25164   4.35814   4.50477
 Alpha virt. eigenvalues --    4.57255   4.58685
  Beta  occ. eigenvalues --  -19.61393 -19.61218 -14.85449 -14.83768 -14.80814
  Beta  occ. eigenvalues --  -14.79841 -10.69365 -10.62184  -1.23693  -1.17706
  Beta  occ. eigenvalues --   -1.09130  -1.03985  -0.98047  -0.79086  -0.72837
  Beta  occ. eigenvalues --   -0.69194  -0.60336  -0.56925  -0.54938  -0.54114
  Beta  occ. eigenvalues --   -0.50806  -0.49138  -0.41608  -0.38360  -0.37457
  Beta  occ. eigenvalues --   -0.35303  -0.34812  -0.34201  -0.33930
  Beta virt. eigenvalues --   -0.02066   0.02160   0.04336   0.04515   0.04685
  Beta virt. eigenvalues --    0.06457   0.06903   0.07049   0.08658   0.10363
  Beta virt. eigenvalues --    0.11383   0.12304   0.14605   0.15023   0.17350
  Beta virt. eigenvalues --    0.18870   0.19038   0.21261   0.21390   0.21968
  Beta virt. eigenvalues --    0.22694   0.23268   0.23462   0.24189   0.26177
  Beta virt. eigenvalues --    0.26654   0.27033   0.28053   0.29078   0.29434
  Beta virt. eigenvalues --    0.30025   0.30520   0.31303   0.31884   0.33671
  Beta virt. eigenvalues --    0.34365   0.35498   0.35985   0.38652   0.41536
  Beta virt. eigenvalues --    0.43973   0.48456   0.50228   0.51684   0.64316
  Beta virt. eigenvalues --    0.74890   0.80230   0.81657   0.82314   0.86842
  Beta virt. eigenvalues --    0.88317   0.91868   0.94288   0.95311   0.97557
  Beta virt. eigenvalues --    0.98404   0.99164   1.01522   1.02729   1.03433
  Beta virt. eigenvalues --    1.09314   1.11730   1.12127   1.14915   1.18192
  Beta virt. eigenvalues --    1.22602   1.24547   1.27448   1.29122   1.33695
  Beta virt. eigenvalues --    1.35987   1.36230   1.37144   1.38508   1.40632
  Beta virt. eigenvalues --    1.44678   1.45689   1.48656   1.51329   1.53666
  Beta virt. eigenvalues --    1.55133   1.58235   1.62871   1.75864   1.77455
  Beta virt. eigenvalues --    1.82068   1.85943   1.88176   1.90638   1.91926
  Beta virt. eigenvalues --    1.94201   1.98940   2.02539   2.03850   2.05766
  Beta virt. eigenvalues --    2.10443   2.12679   2.16976   2.22515   2.26010
  Beta virt. eigenvalues --    2.28353   2.32431   2.32907   2.39802   2.44261
  Beta virt. eigenvalues --    2.49803   2.51442   2.62562   2.63806   2.65881
  Beta virt. eigenvalues --    2.68645   2.72224   2.73910   2.80464   2.84801
  Beta virt. eigenvalues --    2.88895   2.94634   2.96332   3.05811   3.10363
  Beta virt. eigenvalues --    3.11655   3.24631   3.26023   3.42866   3.62765
  Beta virt. eigenvalues --    3.98352   4.08497   4.17003   4.25075   4.35970
  Beta virt. eigenvalues --    4.51276   4.57496   4.58893
          Condensed to atoms (all electrons):
               1          2          3          4          5          6
     1  N    7.675066  -0.424931  -0.177814  -0.139908   0.146576   0.023296
     2  N   -0.424931   7.961835  -0.386875   0.244338  -0.138511   0.074388
     3  N   -0.177814  -0.386875   7.789713  -0.130723   0.143584  -0.022973
     4  N   -0.139908   0.244338  -0.130723   7.017074   0.359027  -0.003768
     5  C    0.146576  -0.138511   0.143584   0.359027   5.099796  -0.025391
     6  C    0.023296   0.074388  -0.022973  -0.003768  -0.025391   4.418963
     7  O    0.009919  -0.167180   0.005565   0.002933  -0.004836   0.395721
     8  O    0.021306  -0.165366  -0.006013   0.002152  -0.006589   0.396771
     9  H    0.319674  -0.020918  -0.005831   0.003797  -0.014088   0.002925
    10  H   -0.055545   0.004299   0.002446  -0.035076   0.417431   0.000373
               7          8          9         10
     1  N    0.009919   0.021306   0.319674  -0.055545
     2  N   -0.167180  -0.165366  -0.020918   0.004299
     3  N    0.005565  -0.006013  -0.005831   0.002446
     4  N    0.002933   0.002152   0.003797  -0.035076
     5  C   -0.004836  -0.006589  -0.014088   0.417431
     6  C    0.395721   0.396771   0.002925   0.000373
     7  O    8.626824  -0.128298   0.001306   0.000005
     8  O   -0.128298   8.644310   0.010961  -0.000076
     9  H    0.001306   0.010961   0.290600   0.000585
    10  H    0.000005  -0.000076   0.000585   0.418486
          Atomic-Atomic Spin Densities.
               1          2          3          4          5          6
     1  N    0.314157  -0.096965   0.101490  -0.009335  -0.126543  -0.031520
     2  N   -0.096965   0.458784  -0.283245   0.027132   0.054092   0.071029
     3  N    0.101490  -0.283245   0.835349  -0.106587  -0.056526  -0.014543
     4  N   -0.009335   0.027132  -0.106587  -0.044493   0.069941   0.002569
     5  C   -0.126543   0.054092  -0.056526   0.069941   0.192400   0.000911
     6  C   -0.031520   0.071029  -0.014543   0.002569   0.000911   0.023372
     7  O    0.000123  -0.013272   0.011695  -0.000181  -0.000898  -0.012022
     8  O    0.011322  -0.021181   0.007979  -0.000877  -0.001882  -0.014581
     9  H    0.019833  -0.026984   0.006249  -0.001997  -0.002157  -0.001638
    10  H   -0.000312  -0.000205  -0.000410   0.001210  -0.000273   0.000010
               7          8          9         10
     1  N    0.000123   0.011322   0.019833  -0.000312
     2  N   -0.013272  -0.021181  -0.026984  -0.000205
     3  N    0.011695   0.007979   0.006249  -0.000410
     4  N   -0.000181  -0.000877  -0.001997   0.001210
     5  C   -0.000898  -0.001882  -0.002157  -0.000273
     6  C   -0.012022  -0.014581  -0.001638   0.000010
     7  O    0.038460   0.003528   0.000027   0.000001
     8  O    0.003528   0.042233   0.001754   0.000007
     9  H    0.000027   0.001754   0.012249   0.000088
    10  H    0.000001   0.000007   0.000088  -0.006219
 Mulliken charges and spin densities:
               1          2
     1  N   -0.397640   0.182250
     2  N    0.018922   0.169184
     3  N   -0.211079   0.501449
     4  N   -0.319846  -0.062618
     5  C    0.023003   0.129064
     6  C    0.739695   0.023586
     7  O   -0.741959   0.027463
     8  O   -0.769157   0.028302
     9  H    0.410989   0.007425
    10  H    0.247074  -0.006104
 Sum of Mulliken charges =  -1.00000   1.00000
 Mulliken charges and spin densities with hydrogens summed into heavy atoms:
               1          2
     1  N    0.013349   0.189675
     2  N    0.018922   0.169184
     3  N   -0.211079   0.501449
     4  N   -0.319846  -0.062618
     5  C    0.270076   0.122960
     6  C    0.739695   0.023586
     7  O   -0.741959   0.027463
     8  O   -0.769157   0.028302
 Electronic spatial extent (au):  <R**2>=            817.7327
 Charge=             -1.0000 electrons
 Dipole moment (field-independent basis, Debye):
    X=              8.7435    Y=              6.6368    Z=             -0.4568  Tot=             10.9865
 Quadrupole moment (field-independent basis, Debye-Ang):
   XX=            -69.5559   YY=            -56.7596   ZZ=            -47.7688
   XY=              8.4251   XZ=             -1.9346   YZ=             -1.9043
 Traceless Quadrupole moment (field-independent basis, Debye-Ang):
   XX=            -11.5278   YY=              1.2685   ZZ=             10.2593
   XY=              8.4251   XZ=             -1.9346   YZ=             -1.9043
 Octapole moment (field-independent basis, Debye-Ang**2):
  XXX=             47.8051  YYY=             25.6064  ZZZ=             -0.5605  XYY=             16.7452
  XXY=             23.1082  XXZ=              2.2975  XZZ=             -2.5011  YZZ=              1.7772
  YYZ=             -2.5661  XYZ=             -2.7080
 Hexadecapole moment (field-independent basis, Debye-Ang**3):
 XXXX=           -843.7524 YYYY=           -290.5137 ZZZZ=            -53.9483 XXXY=             55.6140
 XXXZ=             -9.8913 YYYX=             22.1607 YYYZ=             -6.0921 ZZZX=              0.1171
 ZZZY=             -1.5804 XXYY=           -208.5307 XXZZ=           -136.6438 YYZZ=            -59.4867
 XXYZ=             -5.7601 YYXZ=             -3.9798 ZZXY=              1.9451
 N-N= 3.622921378458D+02 E-N=-1.781273463059D+03  KE= 4.431088431202D+02
                          Isotropic Fermi Contact Couplings
        Atom                 a.u.       MegaHertz       Gauss      10(-4) cm-1
     1  N(14)              0.09875      31.90665      11.38509      10.64291
     2  N(14)              0.07663      24.75890       8.83459       8.25868
     3  N(14)              0.13237      42.77078      15.26168      14.26680
     4  N(14)             -0.02285      -7.38324      -2.63452      -2.46278
     5  C(13)              0.02082      23.40611       8.35188       7.80744
     6  C(13)              0.00785       8.82039       3.14734       2.94217
     7  O(17)              0.00561      -3.40194      -1.21390      -1.13477
     8  O(17)              0.00633      -3.83741      -1.36928      -1.28002
     9  H(1)               0.00608      27.19012       9.70211       9.06965
    10  H(1)              -0.00236     -10.54343      -3.76216      -3.51691
 --------------------------------------------------------
       Center         ----  Spin Dipole Couplings  ----
                      3XX-RR        3YY-RR        3ZZ-RR
 --------------------------------------------------------
     1   Atom       -0.248960     -0.209341      0.458301
     2   Atom       -0.304347     -0.302759      0.607106
     3   Atom       -0.523885     -0.562597      1.086482
     4   Atom        0.023289      0.038642     -0.061931
     5   Atom       -0.062824     -0.066626      0.129450
     6   Atom        0.030254     -0.027384     -0.002870
     7   Atom       -0.034022     -0.056577      0.090599
     8   Atom       -0.028363     -0.055278      0.083641
     9   Atom       -0.015576      0.023263     -0.007686
    10   Atom        0.005060     -0.001269     -0.003791
 --------------------------------------------------------
                        XY            XZ            YZ
 --------------------------------------------------------
     1   Atom        0.011377      0.039157      0.138332
     2   Atom       -0.001501      0.012142     -0.000088
     3   Atom        0.001430      0.249611     -0.002730
     4   Atom        0.004405     -0.026863     -0.014357
     5   Atom        0.006692      0.004099      0.012693
     6   Atom       -0.005452     -0.037133      0.003699
     7   Atom        0.003000     -0.056364     -0.006425
     8   Atom       -0.009785     -0.071297      0.020433
     9   Atom       -0.017180      0.006443     -0.011394
    10   Atom        0.013338     -0.003976     -0.002709
 --------------------------------------------------------


 ---------------------------------------------------------------------------------
              Anisotropic Spin Dipole Couplings in Principal Axis System
 ---------------------------------------------------------------------------------

       Atom             a.u.   MegaHertz   Gauss  10(-4) cm-1        Axes

              Baa    -0.2520    -9.720    -3.468    -3.242  0.9727 -0.2319 -0.0085
     1 N(14)  Bbb    -0.2361    -9.104    -3.249    -3.037  0.2255  0.9530 -0.2026
              Bcc     0.4881    18.824     6.717     6.279  0.0550  0.1951  0.9792
 
              Baa    -0.3054   -11.777    -4.202    -3.929  0.8671  0.4980 -0.0115
     2 N(14)  Bbb    -0.3019   -11.644    -4.155    -3.884 -0.4980  0.8672  0.0067
              Bcc     0.6073    23.421     8.357     7.812  0.0133 -0.0001  0.9999
 
              Baa    -0.5640   -21.753    -7.762    -7.256 -0.6081  0.7884  0.0933
     3 N(14)  Bbb    -0.5603   -21.608    -7.710    -7.208  0.7796  0.6152 -0.1172
              Bcc     1.1243    43.361    15.472    14.464  0.1497 -0.0015  0.9887
 
              Baa    -0.0711    -2.744    -0.979    -0.915  0.2669  0.1144  0.9569
     4 N(14)  Bbb     0.0262     1.012     0.361     0.338  0.8457 -0.5039 -0.1756
              Bcc     0.0449     1.732     0.618     0.578  0.4620  0.8562 -0.2312
 
              Baa    -0.0720    -9.660    -3.447    -3.222 -0.5778  0.8152 -0.0396
     5 C(13)  Bbb    -0.0584    -7.835    -2.796    -2.614  0.8159  0.5754 -0.0567
              Bcc     0.1304    17.495     6.243     5.836  0.0234  0.0651  0.9976
 
              Baa    -0.0279    -3.748    -1.337    -1.250 -0.0089  0.9873 -0.1588
     6 C(13)  Bbb    -0.0269    -3.616    -1.290    -1.206  0.5485  0.1376  0.8247
              Bcc     0.0549     7.364     2.628     2.456  0.8361 -0.0798 -0.5427
 
              Baa    -0.0571     4.128     1.473     1.377 -0.3382  0.9369 -0.0883
     7 O(17)  Bbb    -0.0556     4.020     1.434     1.341  0.8698  0.3471  0.3507
              Bcc     0.1126    -8.148    -2.907    -2.718 -0.3592 -0.0418  0.9323
 
              Baa    -0.0630     4.561     1.627     1.521  0.8976 -0.0270  0.4401
     8 O(17)  Bbb    -0.0582     4.210     1.502     1.404  0.0801  0.9915 -0.1026
              Bcc     0.1212    -8.771    -3.130    -2.926 -0.4336  0.1273  0.8921
 
              Baa    -0.0224   -11.966    -4.270    -3.992  0.9356  0.3095 -0.1697
     9 H(1)   Bbb    -0.0114    -6.074    -2.167    -2.026  0.0586  0.3380  0.9393
              Bcc     0.0338    18.040     6.437     6.018 -0.3481  0.8888 -0.2981
 
              Baa    -0.0118    -6.312    -2.252    -2.105 -0.6259  0.7785 -0.0472
    10 H(1)   Bbb    -0.0049    -2.613    -0.932    -0.872  0.1489  0.1787  0.9726
              Bcc     0.0167     8.925     3.185     2.977  0.7655  0.6017 -0.2278
 

 ---------------------------------------------------------------------------------

 D1PCM: PCM CHGder 1st derivatives, ID1Alg=3 FixD1E=F DoIter=F DoCFld=F I1PDM=0.
 Calling FoFJK, ICntrl=      2127 FMM=F ISym2X=0 I1Cent= 0 IOpClX= 1 NMat=1 NMatS=1 NMatT=0.
 ***** Axes restored to original set *****
 -------------------------------------------------------------------
 Center     Atomic                   Forces (Hartrees/Bohr)
 Number     Number              X              Y              Z
 -------------------------------------------------------------------
      1        7          -0.000023134   -0.000012703    0.000172979
      2        7           0.000009207    0.000049104    0.000327413
      3        7           0.000026785   -0.000091318    0.000053607
      4        7          -0.000036298   -0.000007893   -0.000210680
      5        6          -0.000022471   -0.000003386   -0.000120883
      6        6           0.000078372    0.000084314   -0.000006614
      7        8          -0.000107082    0.000036705    0.000056636
      8        8           0.000107087   -0.000066123   -0.000244916
      9        1          -0.000024957    0.000018184   -0.000017602
     10        1          -0.000007510   -0.000006883   -0.000009939
 -------------------------------------------------------------------
 Cartesian Forces:  Max     0.000327413 RMS     0.000103238

 GradGradGradGradGradGradGradGradGradGradGradGradGradGradGradGradGradGrad
 Berny optimization.
 FormGI is forming the generalized inverse of G from B-inverse, IUseBI=4.
 Internal  Forces:  Max     0.000348774 RMS     0.000102600
 Search for a local minimum.
 Step number   1 out of a maximum of   51
 All quantities printed in internal units (Hartrees-Bohrs-Radians)
 Mixed Optimization -- En-DIIS/RFO-DIIS
 Second derivative matrix not updated -- first step.
 ITU=  0
     Eigenvalues ---    0.01238   0.01244   0.01620   0.02000   0.02266
     Eigenvalues ---    0.02435   0.03324   0.11546   0.15988   0.22710
     Eigenvalues ---    0.22864   0.24333   0.25000   0.25000   0.36107
     Eigenvalues ---    0.40375   0.44492   0.44745   0.45689   0.50434
     Eigenvalues ---    0.53256   0.63139   0.81818   0.83693
 RFO step:  Lambda=-2.26449954D-05 EMin= 1.23782761D-02
 Linear search not attempted -- first point.
 Iteration  1 RMS(Cart)=  0.00890493 RMS(Int)=  0.00007773
 Iteration  2 RMS(Cart)=  0.00007301 RMS(Int)=  0.00001808
 Iteration  3 RMS(Cart)=  0.00000000 RMS(Int)=  0.00001808
 Variable       Old X    -DE/DX   Delta X   Delta X   Delta X     New X
                                 (Linear)    (Quad)   (Total)
    R1        2.61988   0.00006   0.00000   0.00003   0.00003   2.61991
    R2        2.58319   0.00000   0.00000   0.00000   0.00000   2.58320
    R3        1.92570   0.00001   0.00000   0.00002   0.00002   1.92572
    R4        2.60032   0.00007   0.00000   0.00009   0.00009   2.60041
    R5        2.71047   0.00003   0.00000   0.00008   0.00008   2.71055
    R6        2.55413  -0.00001   0.00000   0.00005   0.00005   2.55417
    R7        2.46430  -0.00002   0.00000   0.00004   0.00004   2.46434
    R8        2.03915   0.00000   0.00000   0.00001   0.00001   2.03915
    R9        2.35984  -0.00008   0.00000  -0.00009  -0.00009   2.35974
   R10        2.36950  -0.00004   0.00000  -0.00005  -0.00005   2.36945
    A1        1.80948   0.00004   0.00000   0.00007   0.00007   1.80954
    A2        2.02956  -0.00001   0.00000   0.00078   0.00078   2.03035
    A3        2.18365   0.00003   0.00000   0.00104   0.00104   2.18469
    A4        1.90972  -0.00007   0.00000   0.00017   0.00016   1.90988
    A5        2.10839   0.00011   0.00000   0.00159   0.00158   2.10997
    A6        2.18257   0.00002   0.00000   0.00120   0.00119   2.18377
    A7        1.84765   0.00003   0.00000  -0.00015  -0.00015   1.84750
    A8        1.91088   0.00001   0.00000   0.00012   0.00012   1.91100
    A9        1.94413  -0.00000   0.00000  -0.00006  -0.00006   1.94407
   A10        2.14173   0.00001   0.00000   0.00010   0.00010   2.14183
   A11        2.19652  -0.00001   0.00000  -0.00004  -0.00004   2.19647
   A12        2.01987  -0.00018   0.00000  -0.00089  -0.00095   2.01891
   A13        1.99218   0.00018   0.00000   0.00055   0.00049   1.99266
   A14        2.27080  -0.00001   0.00000  -0.00019  -0.00026   2.27054
    D1        0.05964  -0.00007   0.00000  -0.00439  -0.00440   0.05525
    D2       -2.67703  -0.00021   0.00000  -0.01151  -0.01151  -2.68854
    D3        2.52581   0.00001   0.00000  -0.00198  -0.00198   2.52383
    D4       -0.21086  -0.00012   0.00000  -0.00909  -0.00909  -0.21995
    D5       -0.07368   0.00003   0.00000   0.00166   0.00166  -0.07202
    D6        3.10889   0.00003   0.00000   0.00170   0.00170   3.11059
    D7       -2.46025  -0.00005   0.00000  -0.00086  -0.00086  -2.46111
    D8        0.72231  -0.00004   0.00000  -0.00082  -0.00082   0.72149
    D9       -0.02658   0.00009   0.00000   0.00549   0.00549  -0.02110
   D10        2.68888   0.00026   0.00000   0.01306   0.01306   2.70194
   D11        2.99523   0.00003   0.00000   0.00075   0.00075   2.99598
   D12       -0.17173  -0.00021   0.00000  -0.01845  -0.01844  -0.19017
   D13        0.32472  -0.00011   0.00000  -0.00730  -0.00731   0.31742
   D14       -2.84224  -0.00035   0.00000  -0.02650  -0.02650  -2.86873
   D15       -0.01998  -0.00007   0.00000  -0.00442  -0.00442  -0.02441
   D16        0.06069   0.00003   0.00000   0.00175   0.00175   0.06244
   D17       -3.12343   0.00002   0.00000   0.00171   0.00171  -3.12172
         Item               Value     Threshold  Converged?
 Maximum Force            0.000349     0.000450     YES
 RMS     Force            0.000103     0.000300     YES
 Maximum Displacement     0.037824     0.001800     NO 
 RMS     Displacement     0.008899     0.001200     NO 
 Predicted change in Energy=-1.133761D-05
 GradGradGradGradGradGradGradGradGradGradGradGradGradGradGradGradGradGrad

                          Input orientation:                          
 ---------------------------------------------------------------------
 Center     Atomic      Atomic             Coordinates (Angstroms)
 Number     Number       Type             X           Y           Z
 ---------------------------------------------------------------------
      1          7           0       -0.808619    1.061678   -0.225625
      2          7           0        0.000521   -0.063983   -0.242174
      3          7           0       -0.769012   -1.184058   -0.025737
      4          7           0       -2.032371   -0.736158    0.147932
      5          6           0       -2.045995    0.565928    0.077254
      6          6           0        1.406300    0.035572    0.024783
      7          8           0        2.012328   -1.049579    0.145128
      8          8           0        1.842056    1.211000    0.050328
      9          1           0       -0.400576    1.905802    0.173642
     10          1           0       -2.913752    1.196221    0.196116
 ---------------------------------------------------------------------
                    Distance matrix (angstroms):
                    1          2          3          4          5
     1  N    0.000000
     2  N    1.386396   0.000000
     3  N    2.254962   1.376079   0.000000
     4  N    2.206655   2.176385   1.351610   0.000000
     5  C    1.366968   2.164959   2.168811   1.304075   0.000000
     6  C    2.453867   1.434361   2.494400   3.526356   3.493189
     7  O    3.542966   2.273493   2.789827   4.056825   4.368576
     8  O    2.669180   2.258847   3.543976   4.337296   3.941292
     9  H    1.019048   2.052763   3.118130   3.105378   2.124137
    10  H    2.151175   3.205183   3.211675   2.124440   1.079074
                    6          7          8          9         10
     6  C    0.000000
     7  O    1.248721   0.000000
     8  O    1.253861   2.268964   0.000000
     9  H    2.604750   3.815390   2.351033   0.000000
    10  H    4.476529   5.414100   4.758065   2.611525   0.000000
 Stoichiometry    C2H2N4O2(1-,2)
 Framework group  C1[X(C2H2N4O2)]
 Deg. of freedom    24
 Full point group                 C1      NOp   1
 Largest Abelian subgroup         C1      NOp   1
 Largest concise Abelian subgroup C1      NOp   1
                         Standard orientation:                         
 ---------------------------------------------------------------------
 Center     Atomic      Atomic             Coordinates (Angstroms)
 Number     Number       Type             X           Y           Z
 ---------------------------------------------------------------------
      1          7           0        0.772715    1.051125    0.178070
      2          7           0       -0.025227   -0.080454    0.248164
      3          7           0        0.753704   -1.201333    0.073546
      4          7           0        2.011368   -0.749218   -0.128253
      5          6           0        2.012734    0.554764   -0.112756
      6          6           0       -1.433749   -0.005629   -0.012334
      7          8           0       -2.029949   -1.100603   -0.082226
      8          8           0       -1.881163    1.163477   -0.084289
      9          1           0        0.353638    1.873686   -0.253470
     10          1           0        2.873423    1.187667   -0.264572
 ---------------------------------------------------------------------
 Rotational constants (GHZ):           5.3054193           1.8092217           1.3645296
 Standard basis: 6-31+G(d,p) (6D, 7F)
 There are   162 symmetry adapted cartesian basis functions of A   symmetry.
 There are   162 symmetry adapted basis functions of A   symmetry.
   162 basis functions,   270 primitive gaussians,   162 cartesian basis functions
    30 alpha electrons       29 beta electrons
       nuclear repulsion energy       362.1989049929 Hartrees.
 NAtoms=   10 NActive=   10 NUniq=   10 SFac= 1.00D+00 NAtFMM=   60 NAOKFM=F Big=F
 Integral buffers will be    131072 words long.
 Raffenetti 2 integral format.
 Two-electron integral symmetry is turned on.
 ------------------------------------------------------------------------------
 Polarizable Continuum Model (PCM)
 =================================
 Model                : PCM.
 Atomic radii         : SMD-Coulomb.
 Polarization charges : Total charges.
 Charge compensation  : None.
 Solution method      : On-the-fly selection.
 Cavity type          : VdW (van der Waals Surface) (Alpha=1.000).
 Cavity algorithm     : GePol (No added spheres)
                        Default sphere list used, NSphG=   10.
                        Lebedev-Laikov grids with approx.  5.0 points / Ang**2.
                        Smoothing algorithm: York/Karplus (Gamma=1.0000).
                        Polarization charges: spherical gaussians, with
                                              point-specific exponents (IZeta= 3).
                        Self-potential: point-specific (ISelfS= 7).
                        Self-field    : sphere-specific E.n sum rule (ISelfD= 2).
 1st derivatives      : Analytical E(r).r(x)/FMM algorithm (CHGder, D1EAlg=3).
                        Cavity 1st derivative terms included.
 Solvent              : Water, Eps=  78.355300 Eps(inf)=   1.777849
 ------------------------------------------------------------------------------
 Spheres list:
 ISph  on   Nord     Re0    Alpha      Xe            Ye            Ze
    1   N      1    1.8900  1.000      0.772715      1.051125      0.178070
    2   N      2    1.8900  1.000     -0.025227     -0.080454      0.248164
    3   N      3    1.8900  1.000      0.753704     -1.201333      0.073546
    4   N      4    1.8900  1.000      2.011368     -0.749218     -0.128253
    5   C      5    1.8500  1.000      2.012734      0.554764     -0.112756
    6   C      6    1.8500  1.000     -1.433749     -0.005629     -0.012334
    7   O      7    1.5200  1.000     -2.029949     -1.100603     -0.082226
    8   O      8    1.5200  1.000     -1.881163      1.163477     -0.084289
    9   H      9    1.2000  1.000      0.353638      1.873686     -0.253470
   10   H     10    1.2000  1.000      2.873423      1.187667     -0.264572
 ------------------------------------------------------------------------------
 ------------------------------------------------------------------------------
 Atomic radii for non-electrostatic terms: SMD-CDS.
 ------------------------------------------------------------------------------
 Nuclear repulsion after PCM non-electrostatic terms =      362.2049630275 Hartrees.
 One-electron integrals computed using PRISM.
 NBasis=   162 RedAO= T EigKep=  5.83D-05  NBF=   162
 NBsUse=   162 1.00D-06 EigRej= -1.00D+00 NBFU=   162
 Initial guess from the checkpoint file:  "/home/Tinker/g16/scratch/Gau-3260453.chk"
 B after Tr=     0.000000    0.000000    0.000000
         Rot=    1.000000    0.000176    0.000012   -0.000465 Ang=   0.06 deg.
 Initial guess <Sx>= 0.0000 <Sy>= 0.0000 <Sz>= 0.5000 <S**2>= 0.7632 S= 0.5066
 ExpMin= 4.38D-02 ExpMax= 5.48D+03 ExpMxC= 8.25D+02 IAcc=3 IRadAn=         5 AccDes= 0.00D+00
 Harris functional with IExCor= 1009 and IRadAn=       5 diagonalized for initial guess.
 HarFok:  IExCor= 1009 AccDes= 0.00D+00 IRadAn=         5 IDoV= 1 UseB2=F ITyADJ=14
 ICtDFT=  3500011 ScaDFX=  1.000000  1.000000  1.000000  1.000000
 FoFCou: FMM=F IPFlag=           0 FMFlag=      100000 FMFlg1=           0
         NFxFlg=           0 DoJE=T BraDBF=F KetDBF=T FulRan=T
         wScrn=  0.000000 ICntrl=       500 IOpCl=  0 I1Cent=   200000004 NGrid=           0
         NMat0=    1 NMatS0=      1 NMatT0=    0 NMatD0=    1 NMtDS0=    0 NMtDT0=    0
 Petite list used in FoFCou.
 Keep R1 and R2 ints in memory in canonical form, NReq=204019066.
 Requested convergence on RMS density matrix=1.00D-08 within 128 cycles.
 Requested convergence on MAX density matrix=1.00D-06.
 Requested convergence on             energy=1.00D-06.
 No special actions if energy rises.
 Inv3:  Mode=1 IEnd=     2887083.
 Iteration    1 A*A^-1 deviation from unit magnitude is 2.66D-15 for    693.
 Iteration    1 A*A^-1 deviation from orthogonality  is 2.64D-15 for    947    482.
 Iteration    1 A^-1*A deviation from unit magnitude is 2.89D-15 for    969.
 Iteration    1 A^-1*A deviation from orthogonality  is 2.13D-15 for    650    384.
 Error on total polarization charges =  0.04480
 SCF Done:  E(UM062X) =  -446.799812843     A.U. after   12 cycles
            NFock= 12  Conv=0.82D-08     -V/T= 2.0083
 <Sx>= 0.0000 <Sy>= 0.0000 <Sz>= 0.5000 <S**2>= 0.7632 S= 0.5066
 <L.S>=  0.00000000000    
 SMD-CDS (non-electrostatic) energy       (kcal/mol) =       3.80
 (included in total energy above)
 Annihilation of the first spin contaminant:
 S**2 before annihilation     0.7632,   after     0.7501
 D1PCM: PCM CHGder 1st derivatives, ID1Alg=3 FixD1E=F DoIter=F DoCFld=F I1PDM=0.
 Calling FoFJK, ICntrl=      2127 FMM=F ISym2X=0 I1Cent= 0 IOpClX= 1 NMat=1 NMatS=1 NMatT=0.
 ***** Axes restored to original set *****
 -------------------------------------------------------------------
 Center     Atomic                   Forces (Hartrees/Bohr)
 Number     Number              X              Y              Z
 -------------------------------------------------------------------
      1        7           0.000137187   -0.000030314    0.000014289
      2        7          -0.000120476    0.000046605    0.001373904
      3        7           0.000024126    0.000075753   -0.000207645
      4        7           0.000032484    0.000017116    0.000096329
      5        6           0.000040655   -0.000021981   -0.000166643
      6        6           0.000321872   -0.000110226   -0.003321671
      7        8          -0.000093078   -0.000124891    0.001205708
      8        8          -0.000204267    0.000115072    0.001096889
      9        1          -0.000140764    0.000031220   -0.000063567
     10        1           0.000002261    0.000001646   -0.000027592
 -------------------------------------------------------------------
 Cartesian Forces:  Max     0.003321671 RMS     0.000728587

 GradGradGradGradGradGradGradGradGradGradGradGradGradGradGradGradGradGrad
 Berny optimization.
 Using GEDIIS/GDIIS optimizer.
 FormGI is forming the generalized inverse of G from B-inverse, IUseBI=4.
 Internal  Forces:  Max     0.001320093 RMS     0.000389540
 Search for a local minimum.
 Step number   2 out of a maximum of   51
 All quantities printed in internal units (Hartrees-Bohrs-Radians)
 Mixed Optimization -- En-DIIS/RFO-DIIS
 Swapping is turned off.
 Update second derivatives using D2CorX and points    1    2
 DE=  1.05D-05 DEPred=-1.13D-05 R=-9.25D-01
 Trust test=-9.25D-01 RLast= 3.97D-02 DXMaxT set to 1.50D-01
 ITU= -1  0
     Eigenvalues ---    0.00430   0.01441   0.01931   0.02245   0.02429
     Eigenvalues ---    0.03276   0.11184   0.12558   0.15988   0.22739
     Eigenvalues ---    0.22904   0.24303   0.24980   0.25036   0.36107
     Eigenvalues ---    0.40470   0.44498   0.44728   0.45700   0.50462
     Eigenvalues ---    0.53268   0.63145   0.81826   0.83783
 En-DIIS/RFO-DIIS/Sim-DIIS IScMMF=       -3 using points:     2    1
 RFO step:  Lambda=-7.65004807D-05.
 DidBck=T Rises=T En-DIIS coefs:    0.41922    0.58078
 Iteration  1 RMS(Cart)=  0.01435211 RMS(Int)=  0.00017040
 Iteration  2 RMS(Cart)=  0.00025748 RMS(Int)=  0.00002812
 Iteration  3 RMS(Cart)=  0.00000007 RMS(Int)=  0.00002812
 Variable       Old X    -DE/DX   Delta X   Delta X   Delta X     New X
                                 (Linear)    (Quad)   (Total)
    R1        2.61991   0.00001  -0.00002   0.00005   0.00004   2.61995
    R2        2.58320  -0.00006  -0.00000  -0.00003  -0.00003   2.58316
    R3        1.92572  -0.00005  -0.00001   0.00002   0.00001   1.92573
    R4        2.60041  -0.00010  -0.00005   0.00014   0.00010   2.60051
    R5        2.71055  -0.00018  -0.00005   0.00007   0.00002   2.71057
    R6        2.55417  -0.00005  -0.00003   0.00011   0.00008   2.55426
    R7        2.46434  -0.00005  -0.00002   0.00011   0.00008   2.46442
    R8        2.03915  -0.00000  -0.00000   0.00002   0.00001   2.03917
    R9        2.35974   0.00018   0.00005  -0.00018  -0.00013   2.35961
   R10        2.36945   0.00006   0.00003  -0.00010  -0.00008   2.36938
    A1        1.80954  -0.00002  -0.00004   0.00007   0.00004   1.80958
    A2        2.03035   0.00011  -0.00045   0.00258   0.00211   2.03246
    A3        2.18469  -0.00005  -0.00060   0.00281   0.00220   2.18689
    A4        1.90988  -0.00001  -0.00009   0.00056   0.00042   1.91031
    A5        2.10997   0.00008  -0.00092   0.00481   0.00383   2.11380
    A6        2.18377  -0.00002  -0.00069   0.00363   0.00288   2.18664
    A7        1.84750   0.00003   0.00009  -0.00051  -0.00041   1.84709
    A8        1.91100  -0.00002  -0.00007   0.00034   0.00026   1.91126
    A9        1.94407   0.00002   0.00004  -0.00012  -0.00009   1.94398
   A10        2.14183  -0.00001  -0.00006   0.00026   0.00020   2.14203
   A11        2.19647  -0.00001   0.00002  -0.00013  -0.00010   2.19638
   A12        2.01891   0.00011   0.00055  -0.00160  -0.00113   2.01778
   A13        1.99266  -0.00001  -0.00028   0.00216   0.00179   1.99445
   A14        2.27054   0.00001   0.00015   0.00017   0.00023   2.27077
    D1        0.05525   0.00002   0.00255  -0.01155  -0.00900   0.04625
    D2       -2.68854  -0.00011   0.00668  -0.03358  -0.02690  -2.71543
    D3        2.52383   0.00003   0.00115  -0.00463  -0.00348   2.52035
    D4       -0.21995  -0.00011   0.00528  -0.02666  -0.02138  -0.24133
    D5       -0.07202   0.00003  -0.00097   0.00484   0.00387  -0.06814
    D6        3.11059   0.00001  -0.00099   0.00452   0.00353   3.11412
    D7       -2.46111  -0.00006   0.00050  -0.00263  -0.00213  -2.46325
    D8        0.72149  -0.00008   0.00048  -0.00295  -0.00248   0.71901
    D9       -0.02110  -0.00006  -0.00319   0.01397   0.01079  -0.01031
   D10        2.70194   0.00011  -0.00759   0.03744   0.02984   2.73179
   D11        2.99598  -0.00116  -0.00043  -0.03043  -0.03086   2.96512
   D12       -0.19017   0.00129   0.01071  -0.01525  -0.00452  -0.19469
   D13        0.31742  -0.00132   0.00424  -0.05543  -0.05120   0.26622
   D14       -2.86873   0.00113   0.01539  -0.04024  -0.02486  -2.89360
   D15       -0.02441   0.00008   0.00257  -0.01089  -0.00832  -0.03273
   D16        0.06244  -0.00007  -0.00102   0.00382   0.00281   0.06525
   D17       -3.12172  -0.00005  -0.00099   0.00417   0.00318  -3.11855
         Item               Value     Threshold  Converged?
 Maximum Force            0.001320     0.000450     NO 
 RMS     Force            0.000390     0.000300     NO 
 Maximum Displacement     0.052662     0.001800     NO 
 RMS     Displacement     0.014326     0.001200     NO 
 Predicted change in Energy=-3.861406D-05
 GradGradGradGradGradGradGradGradGradGradGradGradGradGradGradGradGradGrad

                          Input orientation:                          
 ---------------------------------------------------------------------
 Center     Atomic      Atomic             Coordinates (Angstroms)
 Number     Number       Type             X           Y           Z
 ---------------------------------------------------------------------
      1          7           0       -0.808767    1.064384   -0.212517
      2          7           0        0.000978   -0.060782   -0.234210
      3          7           0       -0.767795   -1.182776   -0.024800
      4          7           0       -2.033838   -0.737522    0.135988
      5          6           0       -2.048462    0.565063    0.074522
      6          6           0        1.410624    0.035688    0.012799
      7          8           0        2.007754   -1.050528    0.163492
      8          8           0        1.853128    1.208788    0.022461
      9          1           0       -0.404554    1.906760    0.194282
     10          1           0       -2.918189    1.193348    0.189631
 ---------------------------------------------------------------------
                    Distance matrix (angstroms):
                    1          2          3          4          5
     1  N    0.000000
     2  N    1.386419   0.000000
     3  N    2.255359   1.376130   0.000000
     4  N    2.206609   2.176120   1.351654   0.000000
     5  C    1.366952   2.164995   2.169082   1.304117   0.000000
     6  C    2.456559   1.434372   2.496313   3.532329   3.499904
     7  O    3.542178   2.272645   2.785070   4.053788   4.367029
     8  O    2.676145   2.260122   3.548387   4.348507   3.954680
     9  H    1.019053   2.054089   3.118521   3.106476   2.125306
    10  H    2.151283   3.205311   3.211875   2.124433   1.079081
                    6          7          8          9         10
     6  C    0.000000
     7  O    1.248654   0.000000
     8  O    1.253821   2.268989   0.000000
     9  H    2.613181   3.816507   2.369348   0.000000
    10  H    4.484426   5.413001   4.774269   2.612918   0.000000
 Stoichiometry    C2H2N4O2(1-,2)
 Framework group  C1[X(C2H2N4O2)]
 Deg. of freedom    24
 Full point group                 C1      NOp   1
 Largest Abelian subgroup         C1      NOp   1
 Largest concise Abelian subgroup C1      NOp   1
                         Standard orientation:                         
 ---------------------------------------------------------------------
 Center     Atomic      Atomic             Coordinates (Angstroms)
 Number     Number       Type             X           Y           Z
 ---------------------------------------------------------------------
      1          7           0        0.772596    1.054676    0.158203
      2          7           0       -0.024914   -0.076513    0.239109
      3          7           0        0.754481   -1.199194    0.078286
      4          7           0        2.014651   -0.749017   -0.112193
      5          6           0        2.015728    0.555100   -0.113097
      6          6           0       -1.437041   -0.006607   -0.002624
      7          8           0       -2.023455   -1.104928   -0.097211
      8          8           0       -1.892119    1.160031   -0.065279
      9          1           0        0.356839    1.872392   -0.285595
     10          1           0        2.877941    1.186158   -0.263992
 ---------------------------------------------------------------------
 Rotational constants (GHZ):           5.3135088           1.8057426           1.3617097
 Standard basis: 6-31+G(d,p) (6D, 7F)
 There are   162 symmetry adapted cartesian basis functions of A   symmetry.
 There are   162 symmetry adapted basis functions of A   symmetry.
   162 basis functions,   270 primitive gaussians,   162 cartesian basis functions
    30 alpha electrons       29 beta electrons
       nuclear repulsion energy       362.0798124701 Hartrees.
 NAtoms=   10 NActive=   10 NUniq=   10 SFac= 1.00D+00 NAtFMM=   60 NAOKFM=F Big=F
 Integral buffers will be    131072 words long.
 Raffenetti 2 integral format.
 Two-electron integral symmetry is turned on.
 ------------------------------------------------------------------------------
 Polarizable Continuum Model (PCM)
 =================================
 Model                : PCM.
 Atomic radii         : SMD-Coulomb.
 Polarization charges : Total charges.
 Charge compensation  : None.
 Solution method      : On-the-fly selection.
 Cavity type          : VdW (van der Waals Surface) (Alpha=1.000).
 Cavity algorithm     : GePol (No added spheres)
                        Default sphere list used, NSphG=   10.
                        Lebedev-Laikov grids with approx.  5.0 points / Ang**2.
                        Smoothing algorithm: York/Karplus (Gamma=1.0000).
                        Polarization charges: spherical gaussians, with
                                              point-specific exponents (IZeta= 3).
                        Self-potential: point-specific (ISelfS= 7).
                        Self-field    : sphere-specific E.n sum rule (ISelfD= 2).
 1st derivatives      : Analytical E(r).r(x)/FMM algorithm (CHGder, D1EAlg=3).
                        Cavity 1st derivative terms included.
 Solvent              : Water, Eps=  78.355300 Eps(inf)=   1.777849
 ------------------------------------------------------------------------------
 Spheres list:
 ISph  on   Nord     Re0    Alpha      Xe            Ye            Ze
    1   N      1    1.8900  1.000      0.772596      1.054676      0.158203
    2   N      2    1.8900  1.000     -0.024914     -0.076513      0.239109
    3   N      3    1.8900  1.000      0.754481     -1.199194      0.078286
    4   N      4    1.8900  1.000      2.014651     -0.749017     -0.112193
    5   C      5    1.8500  1.000      2.015728      0.555100     -0.113097
    6   C      6    1.8500  1.000     -1.437041     -0.006607     -0.002624
    7   O      7    1.5200  1.000     -2.023455     -1.104928     -0.097211
    8   O      8    1.5200  1.000     -1.892119      1.160031     -0.065279
    9   H      9    1.2000  1.000      0.356839      1.872392     -0.285595
   10   H     10    1.2000  1.000      2.877941      1.186158     -0.263992
 ------------------------------------------------------------------------------
 ------------------------------------------------------------------------------
 Atomic radii for non-electrostatic terms: SMD-CDS.
 ------------------------------------------------------------------------------
 Nuclear repulsion after PCM non-electrostatic terms =      362.0858916493 Hartrees.
 One-electron integrals computed using PRISM.
 NBasis=   162 RedAO= T EigKep=  5.80D-05  NBF=   162
 NBsUse=   162 1.00D-06 EigRej= -1.00D+00 NBFU=   162
 Initial guess from the checkpoint file:  "/home/Tinker/g16/scratch/Gau-3260453.chk"
 B after Tr=     0.000000   -0.000000   -0.000000
         Rot=    1.000000    0.000351    0.000028   -0.000846 Ang=   0.10 deg.
 Initial guess <Sx>= 0.0000 <Sy>= 0.0000 <Sz>= 0.5000 <S**2>= 0.7632 S= 0.5066
 ExpMin= 4.38D-02 ExpMax= 5.48D+03 ExpMxC= 8.25D+02 IAcc=3 IRadAn=         5 AccDes= 0.00D+00
 Harris functional with IExCor= 1009 and IRadAn=       5 diagonalized for initial guess.
 HarFok:  IExCor= 1009 AccDes= 0.00D+00 IRadAn=         5 IDoV= 1 UseB2=F ITyADJ=14
 ICtDFT=  3500011 ScaDFX=  1.000000  1.000000  1.000000  1.000000
 FoFCou: FMM=F IPFlag=           0 FMFlag=      100000 FMFlg1=           0
         NFxFlg=           0 DoJE=T BraDBF=F KetDBF=T FulRan=T
         wScrn=  0.000000 ICntrl=       500 IOpCl=  0 I1Cent=   200000004 NGrid=           0
         NMat0=    1 NMatS0=      1 NMatT0=    0 NMatD0=    1 NMtDS0=    0 NMtDT0=    0
 Petite list used in FoFCou.
 Keep R1 and R2 ints in memory in canonical form, NReq=204019066.
 Requested convergence on RMS density matrix=1.00D-08 within 128 cycles.
 Requested convergence on MAX density matrix=1.00D-06.
 Requested convergence on             energy=1.00D-06.
 No special actions if energy rises.
 Inv3:  Mode=1 IEnd=     2869452.
 Iteration    1 A*A^-1 deviation from unit magnitude is 2.78D-15 for    974.
 Iteration    1 A*A^-1 deviation from orthogonality  is 2.07D-15 for    884    420.
 Iteration    1 A^-1*A deviation from unit magnitude is 2.78D-15 for    971.
 Iteration    1 A^-1*A deviation from orthogonality  is 2.28D-15 for    644    377.
 Error on total polarization charges =  0.04482
 SCF Done:  E(UM062X) =  -446.799819023     A.U. after   13 cycles
            NFock= 13  Conv=0.54D-08     -V/T= 2.0083
 <Sx>= 0.0000 <Sy>= 0.0000 <Sz>= 0.5000 <S**2>= 0.7631 S= 0.5065
 <L.S>=  0.00000000000    
 SMD-CDS (non-electrostatic) energy       (kcal/mol) =       3.81
 (included in total energy above)
 Annihilation of the first spin contaminant:
 S**2 before annihilation     0.7631,   after     0.7501
 D1PCM: PCM CHGder 1st derivatives, ID1Alg=3 FixD1E=F DoIter=F DoCFld=F I1PDM=0.
 Calling FoFJK, ICntrl=      2127 FMM=F ISym2X=0 I1Cent= 0 IOpClX= 1 NMat=1 NMatS=1 NMatT=0.
 ***** Axes restored to original set *****
 -------------------------------------------------------------------
 Center     Atomic                   Forces (Hartrees/Bohr)
 Number     Number              X              Y              Z
 -------------------------------------------------------------------
      1        7           0.000527052   -0.000016394   -0.000712231
      2        7           0.000145592    0.000154324    0.001203580
      3        7           0.000115887    0.000209589   -0.000808131
      4        7           0.000225089    0.000131453    0.000647678
      5        6           0.000199061   -0.000115047   -0.000274298
      6        6          -0.001215816   -0.000229302    0.000827342
      7        8           0.000500763   -0.000296261   -0.000614136
      8        8          -0.000270353    0.000139483   -0.000212522
      9        1          -0.000261490   -0.000006867   -0.000019842
     10        1           0.000034215    0.000029023   -0.000037439
 -------------------------------------------------------------------
 Cartesian Forces:  Max     0.001215816 RMS     0.000474195

 GradGradGradGradGradGradGradGradGradGradGradGradGradGradGradGradGradGrad
 Berny optimization.
 Using GEDIIS/GDIIS optimizer.
 FormGI is forming the generalized inverse of G from B-inverse, IUseBI=4.
 Internal  Forces:  Max     0.001003776 RMS     0.000337523
 Search for a local minimum.
 Step number   3 out of a maximum of   51
 All quantities printed in internal units (Hartrees-Bohrs-Radians)
 Mixed Optimization -- En-DIIS/RFO-DIIS
 Swapping is turned off.
 Update second derivatives using D2CorX and points    1    2    3
 DE= -6.18D-06 DEPred=-3.86D-05 R= 1.60D-01
 Trust test= 1.60D-01 RLast= 8.16D-02 DXMaxT set to 1.50D-01
 ITU=  0 -1  0
     Eigenvalues ---    0.00500   0.01460   0.02130   0.02408   0.03089
     Eigenvalues ---    0.03248   0.11692   0.13329   0.15992   0.22820
     Eigenvalues ---    0.23077   0.24430   0.25010   0.26053   0.36107
     Eigenvalues ---    0.41559   0.44503   0.45084   0.45728   0.50604
     Eigenvalues ---    0.53393   0.63171   0.81827   0.84019
 En-DIIS/RFO-DIIS/Sim-DIIS IScMMF=       -3 using points:     3    2    1
 RFO step:  Lambda=-4.51561784D-05.
 EnCoef did     1 forward-backward iterations
 DidBck=T Rises=T En-DIIS coefs:    0.43036    0.26875    0.30090
 Iteration  1 RMS(Cart)=  0.01054473 RMS(Int)=  0.00007211
 Iteration  2 RMS(Cart)=  0.00011280 RMS(Int)=  0.00000870
 Iteration  3 RMS(Cart)=  0.00000001 RMS(Int)=  0.00000870
 Variable       Old X    -DE/DX   Delta X   Delta X   Delta X     New X
                                 (Linear)    (Quad)   (Total)
    R1        2.61995  -0.00031  -0.00003   0.00000  -0.00004   2.61991
    R2        2.58316  -0.00024   0.00002   0.00000   0.00002   2.58318
    R3        1.92573  -0.00011  -0.00001   0.00000  -0.00001   1.92572
    R4        2.60051  -0.00044  -0.00008   0.00000  -0.00008   2.60043
    R5        2.71057  -0.00100  -0.00004   0.00000  -0.00004   2.71053
    R6        2.55426  -0.00014  -0.00006   0.00000  -0.00006   2.55420
    R7        2.46442  -0.00009  -0.00006   0.00000  -0.00005   2.46437
    R8        2.03917  -0.00001  -0.00001   0.00000  -0.00001   2.03916
    R9        2.35961   0.00042   0.00010   0.00000   0.00010   2.35972
   R10        2.36938   0.00003   0.00006   0.00000   0.00006   2.36944
    A1        1.80958  -0.00020  -0.00004   0.00000  -0.00004   1.80954
    A2        2.03246   0.00025  -0.00144   0.00000  -0.00143   2.03102
    A3        2.18689  -0.00013  -0.00157   0.00000  -0.00156   2.18533
    A4        1.91031   0.00032  -0.00029   0.00000  -0.00027   1.91004
    A5        2.11380  -0.00015  -0.00266   0.00000  -0.00264   2.11116
    A6        2.18664  -0.00005  -0.00200   0.00000  -0.00197   2.18467
    A7        1.84709  -0.00016   0.00028   0.00000   0.00028   1.84737
    A8        1.91126  -0.00002  -0.00018   0.00000  -0.00018   1.91108
    A9        1.94398   0.00006   0.00007   0.00000   0.00007   1.94405
   A10        2.14203  -0.00008  -0.00015   0.00000  -0.00015   2.14189
   A11        2.19638   0.00002   0.00007   0.00000   0.00007   2.19644
   A12        2.01778   0.00057   0.00093   0.00000   0.00095   2.01873
   A13        1.99445  -0.00069  -0.00116   0.00000  -0.00114   1.99331
   A14        2.27077   0.00010  -0.00005   0.00000  -0.00003   2.27074
    D1        0.04625   0.00026   0.00645   0.00000   0.00645   0.05270
    D2       -2.71543  -0.00004   0.01878   0.00000   0.01879  -2.69665
    D3        2.52035   0.00009   0.00258   0.00000   0.00258   2.52293
    D4       -0.24133  -0.00021   0.01491   0.00000   0.01491  -0.22642
    D5       -0.06814  -0.00001  -0.00271   0.00000  -0.00271  -0.07085
    D6        3.11412  -0.00008  -0.00252   0.00000  -0.00252   3.11159
    D7       -2.46325  -0.00001   0.00147   0.00000   0.00147  -2.46177
    D8        0.71901  -0.00008   0.00166   0.00000   0.00166   0.72067
    D9       -0.01031  -0.00040  -0.00780   0.00000  -0.00780  -0.01811
   D10        2.73179  -0.00011  -0.02093   0.00000  -0.02093   2.71086
   D11        2.96512   0.00099   0.01735   0.00000   0.01735   2.98247
   D12       -0.19469   0.00004   0.00813   0.00000   0.00812  -0.18657
   D13        0.26622   0.00056   0.03136   0.00000   0.03137   0.29759
   D14       -2.89360  -0.00039   0.02214   0.00000   0.02214  -2.87146
   D15       -0.03273   0.00039   0.00607   0.00000   0.00607  -0.02666
   D16        0.06525  -0.00024  -0.00213   0.00000  -0.00213   0.06312
   D17       -3.11855  -0.00016  -0.00232   0.00000  -0.00232  -3.12087
         Item               Value     Threshold  Converged?
 Maximum Force            0.001004     0.000450     NO 
 RMS     Force            0.000338     0.000300     NO 
 Maximum Displacement     0.041425     0.001800     NO 
 RMS     Displacement     0.010557     0.001200     NO 
 Predicted change in Energy=-1.714579D-05
 GradGradGradGradGradGradGradGradGradGradGradGradGradGradGradGradGradGrad

                          Input orientation:                          
 ---------------------------------------------------------------------
 Center     Atomic      Atomic             Coordinates (Angstroms)
 Number     Number       Type             X           Y           Z
 ---------------------------------------------------------------------
      1          7           0       -0.808728    1.062466   -0.222409
      2          7           0        0.000575   -0.063049   -0.241060
      3          7           0       -0.768535   -1.183704   -0.026085
      4          7           0       -2.032540   -0.736590    0.144983
      5          6           0       -2.046536    0.565644    0.076892
      6          6           0        1.407780    0.035555    0.018590
      7          8           0        2.010416   -1.049898    0.152354
      8          8           0        1.844751    1.210516    0.044382
      9          1           0       -0.401519    1.906147    0.178638
     10          1           0       -2.914785    1.195337    0.195363
 ---------------------------------------------------------------------
                    Distance matrix (angstroms):
                    1          2          3          4          5
     1  N    0.000000
     2  N    1.386399   0.000000
     3  N    2.255092   1.376086   0.000000
     4  N    2.206648   2.176291   1.351622   0.000000
     5  C    1.366961   2.164951   2.168896   1.304089   0.000000
     6  C    2.454696   1.434353   2.494982   3.528170   3.495239
     7  O    3.542612   2.273347   2.787888   4.055085   4.367440
     8  O    2.670964   2.259299   3.544929   4.339900   3.944494
     9  H    1.019047   2.053183   3.118300   3.105708   2.124472
    10  H    2.151201   3.205203   3.211738   2.124438   1.079076
                    6          7          8          9         10
     6  C    0.000000
     7  O    1.248707   0.000000
     8  O    1.253851   2.269046   0.000000
     9  H    2.607354   3.815275   2.355347   0.000000
    10  H    4.478941   5.412997   4.761955   2.611903   0.000000
 Stoichiometry    C2H2N4O2(1-,2)
 Framework group  C1[X(C2H2N4O2)]
 Deg. of freedom    24
 Full point group                 C1      NOp   1
 Largest Abelian subgroup         C1      NOp   1
 Largest concise Abelian subgroup C1      NOp   1
                         Standard orientation:                         
 ---------------------------------------------------------------------
 Center     Atomic      Atomic             Coordinates (Angstroms)
 Number     Number       Type             X           Y           Z
 ---------------------------------------------------------------------
      1          7           0        0.772712    1.052196    0.172878
      2          7           0       -0.025069   -0.079253    0.246832
      3          7           0        0.753755   -1.200708    0.075408
      4          7           0        2.011962   -0.749226   -0.124496
      5          6           0        2.013327    0.554816   -0.113601
      6          6           0       -1.434984   -0.005856   -0.006388
      7          8           0       -2.027588   -1.101954   -0.087994
      8          8           0       -1.883931    1.162527   -0.080348
      9          1           0        0.354226    1.873466   -0.261682
     10          1           0        2.874340    1.187140   -0.266003
 ---------------------------------------------------------------------
 Rotational constants (GHZ):           5.3061966           1.8086304           1.3639995
 Standard basis: 6-31+G(d,p) (6D, 7F)
 There are   162 symmetry adapted cartesian basis functions of A   symmetry.
 There are   162 symmetry adapted basis functions of A   symmetry.
   162 basis functions,   270 primitive gaussians,   162 cartesian basis functions
    30 alpha electrons       29 beta electrons
       nuclear repulsion energy       362.1721660249 Hartrees.
 NAtoms=   10 NActive=   10 NUniq=   10 SFac= 1.00D+00 NAtFMM=   60 NAOKFM=F Big=F
 Integral buffers will be    131072 words long.
 Raffenetti 2 integral format.
 Two-electron integral symmetry is turned on.
 ------------------------------------------------------------------------------
 Polarizable Continuum Model (PCM)
 =================================
 Model                : PCM.
 Atomic radii         : SMD-Coulomb.
 Polarization charges : Total charges.
 Charge compensation  : None.
 Solution method      : On-the-fly selection.
 Cavity type          : VdW (van der Waals Surface) (Alpha=1.000).
 Cavity algorithm     : GePol (No added spheres)
                        Default sphere list used, NSphG=   10.
                        Lebedev-Laikov grids with approx.  5.0 points / Ang**2.
                        Smoothing algorithm: York/Karplus (Gamma=1.0000).
                        Polarization charges: spherical gaussians, with
                                              point-specific exponents (IZeta= 3).
                        Self-potential: point-specific (ISelfS= 7).
                        Self-field    : sphere-specific E.n sum rule (ISelfD= 2).
 1st derivatives      : Analytical E(r).r(x)/FMM algorithm (CHGder, D1EAlg=3).
                        Cavity 1st derivative terms included.
 Solvent              : Water, Eps=  78.355300 Eps(inf)=   1.777849
 ------------------------------------------------------------------------------
 Spheres list:
 ISph  on   Nord     Re0    Alpha      Xe            Ye            Ze
    1   N      1    1.8900  1.000      0.772712      1.052196      0.172878
    2   N      2    1.8900  1.000     -0.025069     -0.079253      0.246832
    3   N      3    1.8900  1.000      0.753755     -1.200708      0.075408
    4   N      4    1.8900  1.000      2.011962     -0.749226     -0.124496
    5   C      5    1.8500  1.000      2.013327      0.554816     -0.113601
    6   C      6    1.8500  1.000     -1.434984     -0.005856     -0.006388
    7   O      7    1.5200  1.000     -2.027588     -1.101954     -0.087994
    8   O      8    1.5200  1.000     -1.883931      1.162527     -0.080348
    9   H      9    1.2000  1.000      0.354226      1.873466     -0.261682
   10   H     10    1.2000  1.000      2.874340      1.187140     -0.266003
 ------------------------------------------------------------------------------
 ------------------------------------------------------------------------------
 Atomic radii for non-electrostatic terms: SMD-CDS.
 ------------------------------------------------------------------------------
 Nuclear repulsion after PCM non-electrostatic terms =      362.1782297057 Hartrees.
 One-electron integrals computed using PRISM.
 NBasis=   162 RedAO= T EigKep=  5.82D-05  NBF=   162
 NBsUse=   162 1.00D-06 EigRej= -1.00D+00 NBFU=   162
 Initial guess from the checkpoint file:  "/home/Tinker/g16/scratch/Gau-3260453.chk"
 B after Tr=    -0.000000    0.000000    0.000000
         Rot=    1.000000   -0.000243   -0.000023    0.000606 Ang=  -0.07 deg.
 Initial guess <Sx>= 0.0000 <Sy>= 0.0000 <Sz>= 0.5000 <S**2>= 0.7631 S= 0.5065
 ExpMin= 4.38D-02 ExpMax= 5.48D+03 ExpMxC= 8.25D+02 IAcc=3 IRadAn=         5 AccDes= 0.00D+00
 Harris functional with IExCor= 1009 and IRadAn=       5 diagonalized for initial guess.
 HarFok:  IExCor= 1009 AccDes= 0.00D+00 IRadAn=         5 IDoV= 1 UseB2=F ITyADJ=14
 ICtDFT=  3500011 ScaDFX=  1.000000  1.000000  1.000000  1.000000
 FoFCou: FMM=F IPFlag=           0 FMFlag=      100000 FMFlg1=           0
         NFxFlg=           0 DoJE=T BraDBF=F KetDBF=T FulRan=T
         wScrn=  0.000000 ICntrl=       500 IOpCl=  0 I1Cent=   200000004 NGrid=           0
         NMat0=    1 NMatS0=      1 NMatT0=    0 NMatD0=    1 NMtDS0=    0 NMtDT0=    0
 Petite list used in FoFCou.
 Keep R1 and R2 ints in memory in canonical form, NReq=204019066.
 Requested convergence on RMS density matrix=1.00D-08 within 128 cycles.
 Requested convergence on MAX density matrix=1.00D-06.
 Requested convergence on             energy=1.00D-06.
 No special actions if energy rises.
 Inv3:  Mode=1 IEnd=     2881200.
 Iteration    1 A*A^-1 deviation from unit magnitude is 2.66D-15 for    967.
 Iteration    1 A*A^-1 deviation from orthogonality  is 1.84D-15 for    260    118.
[...]
 FormGI is forming the generalized inverse of G from B-inverse, IUseBI=4.

 GradGradGradGradGradGradGradGradGradGradGradGradGradGradGradGradGradGrad
 Berny optimization.
 Internal  Forces:  Max     0.000067045 RMS     0.000018324
 Search for a local minimum.
 Step number   1 out of a maximum of    2
 All quantities printed in internal units (Hartrees-Bohrs-Radians)
 Second derivative matrix not updated -- analytic derivatives used.
 ITU=  0
     Eigenvalues ---    0.00314   0.00617   0.01051   0.02142   0.02292
     Eigenvalues ---    0.05424   0.08169   0.11254   0.13638   0.17424
     Eigenvalues ---    0.18892   0.21344   0.28039   0.28876   0.29298
     Eigenvalues ---    0.34385   0.38916   0.38992   0.45059   0.45747
     Eigenvalues ---    0.51024   0.57341   0.58172   0.78439
 Angle between quadratic step and forces=  69.69 degrees.
 Linear search not attempted -- first point.
 Iteration  1 RMS(Cart)=  0.00031288 RMS(Int)=  0.00000010
 Iteration  2 RMS(Cart)=  0.00000009 RMS(Int)=  0.00000004
 Variable       Old X    -DE/DX   Delta X   Delta X   Delta X     New X
                                 (Linear)    (Quad)   (Total)
    R1        2.62608   0.00007   0.00000   0.00012   0.00012   2.62620
    R2        2.58491  -0.00003   0.00000  -0.00012  -0.00012   2.58478
    R3        1.92315  -0.00001   0.00000  -0.00004  -0.00004   1.92311
    R4        2.60113   0.00001   0.00000   0.00005   0.00005   2.60118
    R5        2.71740  -0.00003   0.00000  -0.00014  -0.00014   2.71726
    R6        2.55211   0.00001   0.00000   0.00000   0.00000   2.55212
    R7        2.46362   0.00002   0.00000   0.00004   0.00004   2.46366
    R8        2.03946   0.00001   0.00000   0.00002   0.00002   2.03948
    R9        2.36041  -0.00002   0.00000  -0.00004  -0.00004   2.36038
   R10        2.36655   0.00000   0.00000   0.00005   0.00005   2.36660
    A1        1.80386   0.00001   0.00000   0.00008   0.00008   1.80394
    A2        2.03410  -0.00001   0.00000   0.00003   0.00003   2.03413
    A3        2.14847   0.00001   0.00000   0.00045   0.00045   2.14892
    A4        1.90226   0.00000   0.00000  -0.00003  -0.00003   1.90222
    A5        2.10657   0.00001   0.00000   0.00005   0.00005   2.10662
    A6        2.16172  -0.00001   0.00000  -0.00001  -0.00001   2.16171
    A7        1.84908  -0.00003   0.00000  -0.00006  -0.00006   1.84902
    A8        1.90818   0.00005   0.00000   0.00010   0.00010   1.90828
    A9        1.94501  -0.00002   0.00000  -0.00006  -0.00006   1.94495
   A10        2.14025   0.00001   0.00000   0.00002   0.00002   2.14026
   A11        2.19676   0.00002   0.00000   0.00004   0.00004   2.19680
   A12        2.01625   0.00003   0.00000   0.00013   0.00013   2.01637
   A13        1.99801  -0.00003   0.00000  -0.00010  -0.00010   1.99790
   A14        2.26790   0.00000   0.00000  -0.00002  -0.00002   2.26788
    D1        0.17117  -0.00000   0.00000  -0.00015  -0.00015   0.17102
    D2        2.83830  -0.00001   0.00000  -0.00014  -0.00014   2.83816
    D3        2.58397   0.00001   0.00000   0.00060   0.00060   2.58457
    D4       -1.03209   0.00001   0.00000   0.00062   0.00062  -1.03147
    D5       -0.13932   0.00001   0.00000   0.00023   0.00023  -0.13910
    D6        3.05139   0.00001   0.00000   0.00024   0.00024   3.05163
    D7       -2.48977   0.00001   0.00000  -0.00035  -0.00035  -2.49012
    D8        0.70095  -0.00000   0.00000  -0.00034  -0.00034   0.70061
    D9       -0.14443   0.00000   0.00000   0.00005   0.00005  -0.14438
   D10       -2.79326  -0.00000   0.00000   0.00002   0.00002  -2.79324
   D11       -2.90332   0.00001   0.00000   0.00057   0.00057  -2.90275
   D12        0.28213   0.00000   0.00000   0.00054   0.00054   0.28266
   D13       -0.30882   0.00001   0.00000   0.00058   0.00058  -0.30824
   D14        2.87662   0.00000   0.00000   0.00055   0.00055   2.87717
   D15        0.05628   0.00001   0.00000   0.00011   0.00011   0.05639
   D16        0.05486  -0.00001   0.00000  -0.00022  -0.00022   0.05465
   D17       -3.13778  -0.00001   0.00000  -0.00023  -0.00023  -3.13801
         Item               Value     Threshold  Converged?
 Maximum Force            0.000067     0.000450     YES
 RMS     Force            0.000018     0.000300     YES
 Maximum Displacement     0.001157     0.001800     YES
 RMS     Displacement     0.000313     0.001200     YES
 Predicted change in Energy=-3.422117D-08
 Optimization completed.
    -- Stationary point found.
                           ----------------------------
                           !   Optimized Parameters   !
                           ! (Angstroms and Degrees)  !
 --------------------------                            --------------------------
 ! Name  Definition              Value          Derivative Info.                !
 --------------------------------------------------------------------------------
 ! R1    R(1,2)                  1.3897         -DE/DX =    0.0001              !
 ! R2    R(1,5)                  1.3679         -DE/DX =    0.0                 !
 ! R3    R(1,9)                  1.0177         -DE/DX =    0.0                 !
 ! R4    R(2,3)                  1.3765         -DE/DX =    0.0                 !
 ! R5    R(2,6)                  1.438          -DE/DX =    0.0                 !
 ! R6    R(3,4)                  1.3505         -DE/DX =    0.0                 !
 ! R7    R(4,5)                  1.3037         -DE/DX =    0.0                 !
 ! R8    R(5,10)                 1.0792         -DE/DX =    0.0                 !
 ! R9    R(6,7)                  1.2491         -DE/DX =    0.0                 !
 ! R10   R(6,8)                  1.2523         -DE/DX =    0.0                 !
 ! A1    A(2,1,5)              103.3536         -DE/DX =    0.0                 !
 ! A2    A(2,1,9)              116.5452         -DE/DX =    0.0                 !
 ! A3    A(5,1,9)              123.0984         -DE/DX =    0.0                 !
 ! A4    A(1,2,3)              108.9913         -DE/DX =    0.0                 !
 ! A5    A(1,2,6)              120.6975         -DE/DX =    0.0                 !
 ! A6    A(3,2,6)              123.8572         -DE/DX =    0.0                 !
 ! A7    A(2,3,4)              105.9447         -DE/DX =    0.0                 !
 ! A8    A(3,4,5)              109.3305         -DE/DX =    0.0                 !
 ! A9    A(1,5,4)              111.4408         -DE/DX =    0.0                 !
 ! A10   A(1,5,10)             122.6272         -DE/DX =    0.0                 !
 ! A11   A(4,5,10)             125.8651         -DE/DX =    0.0                 !
 ! A12   A(2,6,7)              115.5224         -DE/DX =    0.0                 !
 ! A13   A(2,6,8)              114.4773         -DE/DX =    0.0                 !
 ! A14   A(7,6,8)              129.9412         -DE/DX =    0.0                 !
 ! D1    D(5,1,2,3)              9.8074         -DE/DX =    0.0                 !
 ! D2    D(5,1,2,6)            162.6224         -DE/DX =    0.0                 !
 ! D3    D(9,1,2,3)            148.0506         -DE/DX =    0.0                 !
 ! D4    D(9,1,2,6)            -59.1344         -DE/DX =    0.0                 !
 ! D5    D(2,1,5,4)             -7.9827         -DE/DX =    0.0                 !
 ! D6    D(2,1,5,10)           174.8317         -DE/DX =    0.0                 !
 ! D7    D(9,1,5,4)           -142.6531         -DE/DX =    0.0                 !
 ! D8    D(9,1,5,10)            40.1614         -DE/DX =    0.0                 !
 ! D9    D(1,2,3,4)             -8.2751         -DE/DX =    0.0                 !
 ! D10   D(6,2,3,4)           -160.0417         -DE/DX =    0.0                 !
 ! D11   D(1,2,6,7)           -166.3481         -DE/DX =    0.0                 !
 ! D12   D(1,2,6,8)             16.1646         -DE/DX =    0.0                 !
 ! D13   D(3,2,6,7)            -17.6943         -DE/DX =    0.0                 !
 ! D14   D(3,2,6,8)            164.8184         -DE/DX =    0.0                 !
 ! D15   D(2,3,4,5)              3.2248         -DE/DX =    0.0                 !
 ! D16   D(3,4,5,1)              3.1434         -DE/DX =    0.0                 !
 ! D17   D(3,4,5,10)          -179.7816         -DE/DX =    0.0                 !
 --------------------------------------------------------------------------------
 GradGradGradGradGradGradGradGradGradGradGradGradGradGradGradGradGradGrad


 ----------------------------------------------------------------------

 Electric dipole moment (input orientation):
 (Debye = 10**-18 statcoulomb cm , SI units = C m)
                  (au)            (Debye)         (10**-30 SI)
   Tot        0.455301D+01      0.115726D+02      0.386020D+02
   x         -0.365343D+01     -0.928610D+01     -0.309751D+02
   y          0.266507D+01      0.677392D+01      0.225954D+02
   z          0.528897D+00      0.134432D+01      0.448418D+01

 Dipole polarizability, Alpha (input orientation).
 (esu units = cm**3 , SI units = C**2 m**2 J**-1)
 Alpha(0;0):
               (au)            (10**-24 esu)      (10**-40 SI)
   iso        0.887831D+02      0.131563D+02      0.146383D+02
   aniso      0.560455D+02      0.830508D+01      0.924065D+01
   xx         0.109933D+03      0.162905D+02      0.181256D+02
   yx        -0.168074D+01     -0.249061D+00     -0.277117D+00
   yy         0.104567D+03      0.154953D+02      0.172408D+02
   zx        -0.886802D+00     -0.131410D+00     -0.146214D+00
   zy        -0.361980D+01     -0.536398D+00     -0.596824D+00
   zz         0.518486D+02      0.768316D+01      0.854867D+01

 ----------------------------------------------------------------------

 Dipole orientation:
     7          0.18207142          0.84024984          2.37601850
     7          0.33870636         -0.25820885         -0.00414046
     7         -1.29596689         -2.27856449         -0.11323927
     7         -2.15856994         -2.61170989          2.26546149
     6         -1.24052322         -0.84818677          3.72031799
     6          1.07057311          1.21554644         -2.16670559
     8          0.67506470          0.20869972         -4.26465187
     8          2.09685563          3.28262602         -1.64281198
     1          1.79189499          1.63791735          3.06209423
     1         -1.59834290         -0.64016959          5.71733730

 Electric dipole moment (dipole orientation):
 (Debye = 10**-18 statcoulomb cm , SI units = C m)
                  (au)            (Debye)         (10**-30 SI)
   Tot        0.455301D+01      0.115726D+02      0.386020D+02
   x          0.000000D+00      0.000000D+00      0.000000D+00
   y          0.000000D+00      0.000000D+00      0.000000D+00
   z          0.455301D+01      0.115726D+02      0.386020D+02

 Dipole polarizability, Alpha (dipole orientation).
 (esu units = cm**3 , SI units = C**2 m**2 J**-1)
 Alpha(0;0):
               (au)            (10**-24 esu)      (10**-40 SI)
   iso        0.887831D+02      0.131563D+02      0.146383D+02
   aniso      0.560455D+02      0.830508D+01      0.924065D+01
   xx         0.679382D+02      0.100674D+02      0.112015D+02
   yx         0.237253D+02      0.351573D+01      0.391177D+01
   yy         0.898481D+02      0.133141D+02      0.148139D+02
   zx        -0.793453D+01     -0.117578D+01     -0.130823D+01
   zy         0.278226D+01      0.412289D+00      0.458733D+00
   zz         0.108563D+03      0.160874D+02      0.178996D+02

 ----------------------------------------------------------------------
 Unable to Open any file for archive entry.
 1\1\GINC-XIELAB72C\Freq\UM062X\6-31+G(d,p)\C2H2N4O2(1-,2)\TINKER\08-No
 v-2023\0\\#N Geom=AllCheck Guess=TCheck SCRF=Check GenChk UM062X/6-31+
 G(d,p) Freq\\Title Card Required\\-1,2\N,-0.7810362684,1.0846660375,-0
 .0368979353\N,0.0200998141,-0.0205534971,0.2235481859\N,-0.7494931992,
 -1.1592993555,0.1485259007\N,-2.0268769848,-0.7367607642,0.0316585404\
 C,-2.046376783,0.5650630653,-0.0353359481\C,1.4304274942,0.0130475383,
 -0.0551154766\O,2.008498728,-1.0941116405,-0.0401510124\O,1.8980680194
 ,1.1619336159,-0.2274047243\H,-0.534276011,1.948191241,0.4417674702\H,
 -2.9281558091,1.1802467594,-0.1289480005\\Version=ES64L-G16RevC.01\Sta
 te=2-A\HF=-446.8005218\S2=0.762819\S2-1=0.\S2A=0.750058\RMSD=3.098e-09
 \RMSF=3.164e-05\ZeroPoint=0.0596409\Thermal=0.0660154\ETot=-446.734506
 4\HTot=-446.7335622\GTot=-446.7726437\Dipole=-3.6534327,2.6650672,0.52
 8897\DipoleDeriv=-0.3256986,-0.6074862,0.1386012,-0.1454884,-1.0935838
 ,0.091943,0.024961,0.4339618,-0.1861732,-1.8248919,-0.1369569,0.073179
 ,-0.376078,0.0406872,-0.1140564,0.2689356,-0.1126074,-0.1592459,-0.027
 7956,0.6456163,0.1017115,0.2016518,-0.3369414,0.0950148,-0.0105108,0.0
 30219,-0.2453723,-0.2970318,-0.6477985,0.00302,-0.0157148,-0.1325544,0
 .0511638,-0.0108306,-0.0627292,-0.3218333,0.2543172,0.580324,-0.068878
 5,0.2821958,0.5232928,-0.1128372,0.0905218,-0.1514198,0.0684815,3.8205
 842,-0.0466297,-0.3337516,-0.0602914,3.3957927,-0.2416163,-0.4697255,-
 0.2143653,0.6244488,-1.5886136,0.6197049,0.0141916,0.8049146,-1.999594
 2,0.0365019,0.029327,0.0333538,-0.6925791,-1.4842961,-0.5090662,0.0975
 193,-0.7282629,-2.0931662,0.1812297,0.1559827,0.1795392,-0.7227095,0.3
 305858,0.1022268,-0.022951,0.0545309,0.5364353,0.0074239,-0.0506316,-0
 .1632204,0.4091813,0.1428403,0.0000656,-0.0026415,-0.0174575,0.1596321
 ,0.005233,-0.0280295,0.0272683,0.2258017\Polar=109.9334451,-1.6807442,
 104.5671802,-0.8868019,-3.6197958,51.8485667\Quadrupole=-8.5418041,1.0
 264887,7.5153154,-6.7158819,1.3787687,2.3952624\PG=C01 [X(C2H2N4O2)]\N
 Imag=0\\0.59488386,0.11465938,0.78069518,0.11024946,0.16847562,0.16619
 316,-0.15551460,0.06129913,-0.04393657,0.73644079,0.07466435,-0.191926
 11,0.01824384,-0.01708106,0.56834269,-0.03320303,0.02592957,-0.0367966
 0,0.01514194,-0.03239865,0.06143895,0.01333006,-0.01560418,0.00488678,
 -0.12874613,-0.07398171,-0.00400585,0.39761656,-0.00502248,-0.08670971
 ,0.00602903,-0.01430780,-0.20935759,-0.00282741,-0.04733434,0.45590987
 ,0.00022967,0.00645997,-0.00723340,-0.01176616,-0.01719829,-0.02177236
 ,0.02833338,-0.01254784,0.06047089,-0.04404916,-0.03758298,-0.00146677
 ,-0.09596737,-0.04323426,-0.00226422,-0.19799026,0.00178177,-0.0143294
 8,0.40804486,-0.06678162,-0.06134808,-0.00159125,-0.00935494,-0.006462
 45,0.00431452,0.06351522,-0.11029834,0.00623262,0.05765050,0.65203991,
 -0.00328006,0.00745739,0.03185653,-0.01012929,-0.00463146,0.01005282,-
 0.01648920,0.00133237,-0.06018383,0.02647105,-0.02575434,0.09141470,-0
 .28871152,-0.05687946,-0.02012757,-0.09643383,0.03494067,-0.00837692,-
 0.06030025,0.06917605,-0.00681685,-0.07654819,-0.03446302,-0.00081403,
 0.78401907,-0.07361484,-0.14231948,-0.02001621,0.00175867,0.00192500,-
 0.00422487,0.10299167,-0.06034114,0.01154821,-0.00574361,-0.45916928,0
 .02020000,-0.15086075,0.83277026,0.00786718,-0.00931648,-0.04659997,-0
 .01305214,0.01051793,-0.00299782,-0.00960860,0.00260515,0.02533221,-0.
 00441159,0.01514129,-0.07370398,0.05522422,-0.03777406,0.13618238,-0.0
 1946225,0.00100936,0.01126032,-0.14798758,0.01717257,-0.01215339,-0.02
 201146,-0.01936514,0.00590089,0.01457474,-0.00549188,0.00318235,0.0144
 3594,0.00389410,-0.00157232,0.48119554,0.02749521,0.00015316,-0.005188
 82,-0.00765005,-0.09583643,0.00512152,-0.01971438,0.01079748,0.0042836
 3,-0.00543082,-0.00714256,-0.00030070,0.00330897,-0.00728647,0.0012248
 8,-0.03317725,0.91210248,-0.01194662,-0.00387857,-0.00462620,0.0258447
 2,0.00341854,-0.04683259,-0.00481671,0.00558161,-0.00685312,-0.0058508
 1,-0.00229381,0.00105476,-0.00098572,0.00326419,-0.00116441,-0.0254301
 8,-0.05922983,0.22499988,-0.00799698,-0.00257282,0.00120063,-0.0595574
 5,0.05101775,0.01089889,0.00079175,0.00427996,-0.00169855,-0.00290178,
 0.00318173,0.00013415,-0.00440632,0.00310553,0.00032180,-0.17814158,0.
 16126552,0.00095491,0.22137862,0.00380200,0.00021426,0.00262120,0.0445
 6494,-0.01623605,-0.01361210,-0.00604845,0.00038019,0.00374051,0.00374
 838,-0.00028368,0.00073272,0.00161102,0.00035868,-0.00088842,0.1690703
 6,-0.40030727,0.00572157,-0.22563504,0.53675452,0.00280328,0.00303180,
 0.00290423,0.00962625,-0.00876924,0.01598078,0.00094650,0.00037587,-0.
 00031787,0.00061160,0.00003017,0.00017708,0.00015793,-0.00100771,0.000
 56824,-0.00250792,0.00476262,-0.07982121,-0.00919418,-0.01076829,0.034
 07258,0.00027050,-0.00290270,-0.00147071,-0.05776758,-0.06208805,0.019
 33572,-0.00320463,0.00990073,0.00170874,-0.00648814,-0.00315077,-0.001
 16457,-0.00131436,-0.00155149,0.00203437,-0.14576028,-0.13015162,0.023
 26182,0.03260403,0.00848009,-0.00227267,0.18155783,0.00773990,0.004857
 37,-0.00647378,-0.04592805,-0.02621069,0.02198915,-0.00362546,0.002110
 62,-0.00114378,-0.00283000,0.00172542,-0.00015385,-0.00527926,-0.00215
 933,0.00047213,-0.13835064,-0.41135223,0.04915687,0.00701641,-0.122937
 93,0.01201195,0.18364528,0.55460089,-0.00076995,-0.00043408,-0.0001401
 8,0.01776240,0.01753633,0.01266261,0.00141902,-0.00397797,0.00298242,0
 .00214012,0.00070028,-0.00004137,0.00074572,0.00042612,0.00049002,0.02
 108341,0.05065478,-0.08776578,-0.00198950,0.01214354,0.02669489,-0.040
 09856,-0.07754558,0.04566576,-0.07758776,-0.07779958,-0.05770808,0.007
 74337,0.02171166,0.01375325,-0.00285865,0.00471476,-0.00135296,-0.0068
 4049,-0.00345560,0.00131559,0.00285063,-0.02587600,-0.01406478,0.00254
 428,0.00327198,-0.00029257,-0.00112018,0.00006369,-0.00038097,0.000235
 24,-0.00238317,-0.00033406,0.07518857,-0.06904989,-0.31834981,-0.15986
 011,-0.00739396,-0.02058354,-0.00495411,0.00154868,0.00051676,-0.00205
 265,0.00346621,0.00355614,-0.00159230,-0.00833526,-0.00527151,0.000706
 60,0.00378946,-0.00203510,-0.00115392,-0.00096766,0.00144709,0.0001860
 8,-0.00192999,-0.00046253,0.00044817,0.07905488,0.34139631,-0.07460786
 ,-0.19800541,-0.10526543,0.01201061,0.01413509,0.00378545,-0.00056577,
 0.00170639,-0.00092491,-0.00144436,0.00231945,0.00301910,0.00860122,0.
 01137381,-0.00446960,-0.00066642,-0.00141480,0.00054915,-0.00026616,0.
 00012708,-0.00007699,-0.00111899,0.00188970,-0.00050469,0.05807391,0.1
 6780806,0.10430644,-0.01516215,0.01637385,-0.00288749,-0.00220962,-0.0
 0312190,0.00087361,0.00337302,-0.00382351,-0.00020868,0.00816578,-0.00
 164963,0.00077401,-0.27359118,0.14589671,-0.02273815,0.00061265,0.0007
 8244,-0.00073883,-0.00065012,0.00034300,0.00021019,-0.00013260,-0.0000
 0503,0.00004140,-0.00015501,-0.00018246,-0.00001618,0.27974921,-0.0138
 9202,0.01473322,-0.00223952,-0.00590688,-0.00365484,0.00066239,-0.0017
 4704,-0.00300815,0.00067761,0.02817481,-0.01261707,0.00271017,0.146781
 04,-0.15850671,0.01731099,0.00144906,0.00090695,-0.00058665,-0.0006913
 8,0.00061020,0.00014673,-0.00025149,-0.00017159,0.00004842,0.00069737,
 -0.00021382,0.00006063,-0.15461348,0.16192182,0.00265793,0.00028020,-0
 .00029215,-0.00150177,-0.00085408,0.00447877,-0.00009954,0.00172280,0.
 00849998,0.00054447,0.00090105,-0.00364582,-0.02760799,0.01621053,-0.0
 3363708,0.00090325,0.00008673,0.00045953,-0.00036199,0.00018219,-0.000
 18173,-0.00021516,-0.00020282,-0.00004368,0.00099068,0.00046418,-0.000
 41852,0.02469012,-0.01879077,0.02478071\\0.00008519,-0.00003447,-0.000
 03074,-0.00006701,0.00000233,0.00000914,-0.00002165,0.00005315,0.00002
 760,-0.00003722,-0.00001074,-0.00002326,0.00001212,-0.00002259,0.00000
 156,0.00001761,0.00004895,0.00001062,-0.00000311,-0.00003066,0.0000549
 4,0.00001592,-0.00002003,0.00000380,-0.00000993,0.00001393,-0.00002121
 ,0.00000808,0.00000013,-0.00003245\\\@
 The archive entry for this job was punched.


 WE ARE REACHING THE STAGE WHERE THE PROBLEMS WE MUST SOLVE ARE 
 GOING TO BECOME INSOLUBLE WITHOUT COMPUTERS.
 I DO NOT FEAR COMPUTERS.  I FEAR THE LACK OF THEM.

                                   -- ISSAC ASIMOV
 Job cpu time:       0 days  0 hours 39 minutes 12.8 seconds.
 Elapsed time:       0 days  0 hours  1 minutes 20.5 seconds.
 File lengths (MBytes):  RWF=     83 Int=      0 D2E=      0 Chk=      7 Scr=      1
 Normal termination of Gaussian 16 at Wed Nov  8 20:27:57 2023.
