 Entering Gaussian System, Link 0=/opt/soft/g16/g16
 Initial command:
 /opt/soft/g16/l1.exe "/scratch/gongke2021/sidanzuo-2/Gau-22500.inp" -scrdir="/scratch/gongke2021/sidanzuo-2/"
 Entering Link 1 = /opt/soft/g16/l1.exe PID=     22501.
  
 Copyright (c) 1988,1990,1992,1993,1995,1998,2003,2009,2016,
            Gaussian, Inc.  All Rights Reserved.
  
 This is part of the Gaussian(R) 16 program.  It is based on
 the Gaussian(R) 09 system (copyright 2009, Gaussian, Inc.),
 the Gaussian(R) 03 system (copyright 2003, Gaussian, Inc.),
 the Gaussian(R) 98 system (copyright 1998, Gaussian, Inc.),
 the Gaussian(R) 94 system (copyright 1995, Gaussian, Inc.),
 the Gaussian 92(TM) system (copyright 1992, Gaussian, Inc.),
 the Gaussian 90(TM) system (copyright 1990, Gaussian, Inc.),
 the Gaussian 88(TM) system (copyright 1988, Gaussian, Inc.),
 the Gaussian 86(TM) system (copyright 1986, Carnegie Mellon
 University), and the Gaussian 82(TM) system (copyright 1983,
 Carnegie Mellon University). Gaussian is a federally registered
 trademark of Gaussian, Inc.
  
 This software contains proprietary and confidential information,
 including trade secrets, belonging to Gaussian, Inc.
  
 This software is provided under written license and may be
 used, copied, transmitted, or stored only in accord with that
 written license.
  
 The following legend is applicable only to US Government
 contracts under FAR:
  
                    RESTRICTED RIGHTS LEGEND
  
 Use, reproduction and disclosure by the US Government is
 subject to restrictions as set forth in subparagraphs (a)
 and (c) of the Commercial Computer Software - Restricted
 Rights clause in FAR 52.227-19.
  
 Gaussian, Inc.
 340 Quinnipiac St., Bldg. 40, Wallingford CT 06492
  
  
 ---------------------------------------------------------------
 Warning -- This program may not be used in any manner that
 competes with the business of Gaussian, Inc. or will provide
 assistance to any competitor of Gaussian, Inc.  The licensee
 of this program is prohibited from giving any competitor of
 Gaussian, Inc. access to this program.  By using this program,
 the user acknowledges that Gaussian, Inc. is engaged in the
 business of creating and licensing software in the field of
 computational chemistry and represents and warrants to the
 licensee that it is not a competitor of Gaussian, Inc. and that
 it will not use this program in any manner prohibited above.
 ---------------------------------------------------------------
  

 Cite this work as:
 Gaussian 16, Revision A.03,
 M. J. Frisch, G. W. Trucks, H. B. Schlegel, G. E. Scuseria, 
 M. A. Robb, J. R. Cheeseman, G. Scalmani, V. Barone, 
 G. A. Petersson, H. Nakatsuji, X. Li, M. Caricato, A. V. Marenich, 
 J. Bloino, B. G. Janesko, R. Gomperts, B. Mennucci, H. P. Hratchian, 
 J. V. Ortiz, A. F. Izmaylov, J. L. Sonnenberg, D. Williams-Young, 
 F. Ding, F. Lipparini, F. Egidi, J. Goings, B. Peng, A. Petrone, 
 T. Henderson, D. Ranasinghe, V. G. Zakrzewski, J. Gao, N. Rega, 
 G. Zheng, W. Liang, M. Hada, M. Ehara, K. Toyota, R. Fukuda, 
 J. Hasegawa, M. Ishida, T. Nakajima, Y. Honda, O. Kitao, H. Nakai, 
 T. Vreven, K. Throssell, J. A. Montgomery, Jr., J. E. Peralta, 
 F. Ogliaro, M. J. Bearpark, J. J. Heyd, E. N. Brothers, K. N. Kudin, 
 V. N. Staroverov, T. A. Keith, R. Kobayashi, J. Normand, 
 K. Raghavachari, A. P. Rendell, J. C. Burant, S. S. Iyengar, 
 J. Tomasi, M. Cossi, J. M. Millam, M. Klene, C. Adamo, R. Cammi, 
 J. W. Ochterski, R. L. Martin, K. Morokuma, O. Farkas, 
 J. B. Foresman, and D. J. Fox, Gaussian, Inc., Wallingford CT, 2016.
 
 ******************************************
 Gaussian 16:  ES64L-G16RevA.03 25-Dec-2016
                 6-Nov-2023 
 ******************************************
 %mem=10GB
 %nprocshared=24
 Will use up to   24 processors via shared memory.
 -----------------------------------------------------
 # opt freq 6-31+g(d,p) scrf=(smd,solvent=water) m062x
 -----------------------------------------------------
 1/18=20,19=15,26=3,38=1/1,3;
 2/9=110,12=2,17=6,18=5,40=1/2;
 3/5=1,6=6,7=111,11=2,25=1,30=1,70=32201,71=1,72=1,74=-55/1,2,3;
 4//1;
 5/5=2,38=5,53=1/2;
 6/7=2,8=2,9=2,10=2,28=1/1;
 7//1,2,3,16;
 1/18=20,19=15,26=3/3(2);
 2/9=110/2;
 99//99;
 2/9=110/2;
 3/5=1,6=6,7=111,11=2,25=1,30=1,70=32205,71=1,72=1,74=-55/1,2,3;
 4/5=5,16=3,69=1/1;
 5/5=2,38=5,53=1/2;
 7//1,2,3,16;
 1/18=20,19=15,26=3/3(-5);
 2/9=110/2;
 6/7=2,8=2,9=2,10=2,19=2,28=1/1;
 99/9=1/99;
 -------------------
 Title Card Required
 -------------------
 Symbolic Z-matrix:
 Charge = -1 Multiplicity = 2
 N                     1.04272   0.53776   0.01366 
 N                     0.46941  -0.66347  -0.03084 
 N                     1.4221   -1.53127  -0.03619 
 N                     2.62317  -0.92345   0.00338 
 C                     2.36657   0.37129   0.03397 
 C                    -0.99556  -0.66022   0.10822 
 O                    -1.75768  -1.81145   0.04844 
 O                    -1.69884   0.51382   0.06021 
 H                     0.4726    1.41072   0.02249 
 H                     3.08607   1.17423   0.06972 
 O                    -0.48738   2.83358   0.07463 
 H                    -0.25809   3.46195  -0.62372 
 H                    -1.40295   2.57591  -0.10227 
 
 Add virtual bond connecting atoms O11        and H9         Dist= 3.25D+00.

 GradGradGradGradGradGradGradGradGradGradGradGradGradGradGradGradGradGrad
 Berny optimization.
 Initialization pass.
                           ----------------------------
                           !    Initial Parameters    !
                           ! (Angstroms and Degrees)  !
 --------------------------                            --------------------------
 ! Name  Definition              Value          Derivative Info.                !
 --------------------------------------------------------------------------------
 ! R1    R(1,2)                  1.3318         estimate D2E/DX2                !
 ! R2    R(1,5)                  1.3344         estimate D2E/DX2                !
 ! R3    R(1,9)                  1.0427         estimate D2E/DX2                !
 ! R4    R(2,3)                  1.2887         estimate D2E/DX2                !
 ! R5    R(2,6)                  1.4716         estimate D2E/DX2                !
 ! R6    R(3,4)                  1.3467         estimate D2E/DX2                !
 ! R7    R(4,5)                  1.3203         estimate D2E/DX2                !
 ! R8    R(5,10)                 1.0787         estimate D2E/DX2                !
 ! R9    R(6,7)                  1.3819         estimate D2E/DX2                !
 ! R10   R(6,8)                  1.3694         estimate D2E/DX2                !
 ! R11   R(9,11)                 1.7172         estimate D2E/DX2                !
 ! R12   R(11,12)                0.967          estimate D2E/DX2                !
 ! R13   R(11,13)                0.9675         estimate D2E/DX2                !
 ! A1    A(2,1,5)              108.3647         estimate D2E/DX2                !
 ! A2    A(2,1,9)              121.3363         estimate D2E/DX2                !
 ! A3    A(5,1,9)              130.298          estimate D2E/DX2                !
 ! A4    A(1,2,3)              106.8148         estimate D2E/DX2                !
 ! A5    A(1,2,6)              115.0501         estimate D2E/DX2                !
 ! A6    A(3,2,6)              137.5478         estimate D2E/DX2                !
 ! A7    A(2,3,4)              110.8105         estimate D2E/DX2                !
 ! A8    A(3,4,5)              105.6618         estimate D2E/DX2                !
 ! A9    A(1,5,4)              108.3482         estimate D2E/DX2                !
 ! A10   A(1,5,10)             124.7051         estimate D2E/DX2                !
 ! A11   A(4,5,10)             126.9467         estimate D2E/DX2                !
 ! A12   A(2,6,7)              122.8944         estimate D2E/DX2                !
 ! A13   A(2,6,8)              120.6533         estimate D2E/DX2                !
 ! A14   A(7,6,8)              115.4341         estimate D2E/DX2                !
 ! A15   A(9,11,12)            112.5782         estimate D2E/DX2                !
 ! A16   A(9,11,13)            107.6265         estimate D2E/DX2                !
 ! A17   A(12,11,13)           105.392          estimate D2E/DX2                !
 ! A18   L(1,9,11,6,-1)        179.0878         estimate D2E/DX2                !
 ! A19   L(1,9,11,6,-2)        178.6966         estimate D2E/DX2                !
 ! D1    D(5,1,2,3)              0.047          estimate D2E/DX2                !
 ! D2    D(5,1,2,6)            172.825          estimate D2E/DX2                !
 ! D3    D(9,1,2,3)            179.7321         estimate D2E/DX2                !
 ! D4    D(9,1,2,6)             -7.4899         estimate D2E/DX2                !
 ! D5    D(2,1,5,4)             -0.04           estimate D2E/DX2                !
 ! D6    D(2,1,5,10)           179.9777         estimate D2E/DX2                !
 ! D7    D(9,1,5,4)           -179.6873         estimate D2E/DX2                !
 ! D8    D(9,1,5,10)             0.3304         estimate D2E/DX2                !
 ! D9    D(2,1,11,12)         -125.8639         estimate D2E/DX2                !
 ! D10   D(2,1,11,13)           -9.9798         estimate D2E/DX2                !
 ! D11   D(5,1,11,12)           54.9075         estimate D2E/DX2                !
 ! D12   D(5,1,11,13)          170.7915         estimate D2E/DX2                !
 ! D13   D(1,2,3,4)             -0.037          estimate D2E/DX2                !
 ! D14   D(6,2,3,4)           -170.3229         estimate D2E/DX2                !
 ! D15   D(1,2,6,7)            178.1733         estimate D2E/DX2                !
 ! D16   D(1,2,6,8)             10.2472         estimate D2E/DX2                !
 ! D17   D(3,2,6,7)            -12.0967         estimate D2E/DX2                !
 ! D18   D(3,2,6,8)            179.9771         estimate D2E/DX2                !
 ! D19   D(2,3,4,5)              0.0126         estimate D2E/DX2                !
 ! D20   D(3,4,5,1)              0.0172         estimate D2E/DX2                !
 ! D21   D(3,4,5,10)           179.9989         estimate D2E/DX2                !
 --------------------------------------------------------------------------------
 Trust Radius=3.00D-01 FncErr=1.00D-07 GrdErr=1.00D-06 EigMax=2.50D+02 EigMin=1.00D-04
 Number of steps in this run=     63 maximum allowed number of steps=    100.
 GradGradGradGradGradGradGradGradGradGradGradGradGradGradGradGradGradGrad

                          Input orientation:                          
 ---------------------------------------------------------------------
 Center     Atomic      Atomic             Coordinates (Angstroms)
 Number     Number       Type             X           Y           Z
 ---------------------------------------------------------------------
      1          7           0        1.042717    0.537759    0.013661
      2          7           0        0.469406   -0.663471   -0.030840
      3          7           0        1.422097   -1.531268   -0.036186
      4          7           0        2.623168   -0.923448    0.003382
      5          6           0        2.366570    0.371294    0.033971
      6          6           0       -0.995564   -0.660222    0.108216
      7          8           0       -1.757684   -1.811454    0.048437
      8          8           0       -1.698838    0.513820    0.060208
      9          1           0        0.472596    1.410718    0.022485
     10          1           0        3.086074    1.174231    0.069717
     11          8           0       -0.487376    2.833581    0.074628
     12          1           0       -0.258091    3.461946   -0.623715
     13          1           0       -1.402950    2.575906   -0.102265
 ---------------------------------------------------------------------
                    Distance matrix (angstroms):
                    1          2          3          4          5
     1  N    0.000000
     2  N    1.331773   0.000000
     3  N    2.104112   1.288689   0.000000
     4  N    2.152454   2.169666   1.346693   0.000000
     5  C    1.334432   2.161983   2.125251   1.320278   0.000000
     6  C    2.366154   1.471558   2.573841   3.629807   3.517596
     7  O    3.655442   2.506807   3.193223   4.470173   4.666269
     8  O    2.742055   2.468924   3.732548   4.555075   4.067990
     9  H    1.042676   2.074877   3.091970   3.173902   2.160480
    10  H    2.140922   3.199095   3.178012   2.149172   1.078736
    11  O    2.759656   3.627110   4.765530   4.878097   3.769551
    12  H    3.263314   4.230818   5.300982   5.284561   4.107740
    13  H    3.185713   3.742243   4.985392   5.335379   4.368999
                    6          7          8          9         10
     6  C    0.000000
     7  O    1.381932   0.000000
     8  O    1.369406   2.326048   0.000000
     9  H    2.540007   3.918828   2.349676   0.000000
    10  H    4.475094   5.690058   4.830281   2.624581   0.000000
    11  O    3.530728   4.815674   2.617086   1.717208   3.939925
    12  H    4.251100   5.523524   3.351858   2.271346   4.110709
    13  H    3.268454   4.404257   2.089533   2.211538   4.705912
                   11         12         13
    11  O    0.000000
    12  H    0.967004   0.000000
    13  H    0.967452   1.538726   0.000000
 Stoichiometry    C2H4N4O3(1-,2)
 Framework group  C1[X(C2H4N4O3)]
 Deg. of freedom    33
 Full point group                 C1      NOp   1
 Largest Abelian subgroup         C1      NOp   1
 Largest concise Abelian subgroup C1      NOp   1
                         Standard orientation:                         
 ---------------------------------------------------------------------
 Center     Atomic      Atomic             Coordinates (Angstroms)
 Number     Number       Type             X           Y           Z
 ---------------------------------------------------------------------
      1          7           0        0.479582   -0.811912   -0.008066
      2          7           0        0.488166    0.518444    0.052746
      3          7           0        1.724014    0.883686    0.052147
      4          7           0        2.539201   -0.186592   -0.007489
      5          6           0        1.743206   -1.239289   -0.044315
      6          6           0       -0.832571    1.156191   -0.067316
      7          8           0       -1.015557    2.523723    0.010851
      8          8           0       -1.977154    0.405953   -0.018869
      9          1           0       -0.414319   -1.348616   -0.015945
     10          1           0        2.040000   -2.275138   -0.095325
     11          8           0       -1.899271   -2.209547   -0.066147
     12          1           0       -1.961203   -2.883541    0.624500
     13          1           0       -2.609173   -1.580537    0.124507
 ---------------------------------------------------------------------
 Rotational constants (GHZ):           1.9501833           1.5037240           0.8508433
 Standard basis: 6-31+G(d,p) (6D, 7F)
 There are   191 symmetry adapted cartesian basis functions of A   symmetry.
 There are   191 symmetry adapted basis functions of A   symmetry.
   191 basis functions,   316 primitive gaussians,   191 cartesian basis functions
    35 alpha electrons       34 beta electrons
       nuclear repulsion energy       448.5831456935 Hartrees.
 NAtoms=   13 NActive=   13 NUniq=   13 SFac= 1.00D+00 NAtFMM=   60 NAOKFM=F Big=F
 Integral buffers will be    131072 words long.
 Raffenetti 2 integral format.
 Two-electron integral symmetry is turned on.
 ------------------------------------------------------------------------------
 Polarizable Continuum Model (PCM)
 =================================
 Model                : PCM.
 Atomic radii         : SMD-Coulomb.
 Polarization charges : Total charges.
 Charge compensation  : None.
 Solution method      : On-the-fly selection.
 Cavity type          : VdW (van der Waals Surface) (Alpha=1.000).
 Cavity algorithm     : GePol (No added spheres)
                        Default sphere list used, NSphG=   13.
                        Lebedev-Laikov grids with approx.  5.0 points / Ang**2.
                        Smoothing algorithm: York/Karplus (Gamma=1.0000).
                        Polarization charges: spherical gaussians, with
                                              point-specific exponents (IZeta= 3).
                        Self-potential: point-specific (ISelfS= 7).
                        Self-field    : sphere-specific E.n sum rule (ISelfD= 2).
 1st derivatives      : Analytical E(r).r(x)/FMM algorithm (CHGder, D1EAlg=3).
                        Cavity 1st derivative terms included.
 Solvent              : Water, Eps=  78.355300 Eps(inf)=   1.777849
 ------------------------------------------------------------------------------
 Spheres list:
 ISph  on   Nord     Re0    Alpha      Xe            Ye            Ze
    1   N      1    1.8900  1.000      0.479582     -0.811912     -0.008066
    2   N      2    1.8900  1.000      0.488166      0.518444      0.052746
    3   N      3    1.8900  1.000      1.724014      0.883686      0.052147
    4   N      4    1.8900  1.000      2.539201     -0.186592     -0.007489
    5   C      5    1.8500  1.000      1.743206     -1.239289     -0.044315
    6   C      6    1.8500  1.000     -0.832571      1.156191     -0.067316
    7   O      7    1.5200  1.000     -1.015557      2.523723      0.010851
    8   O      8    1.5200  1.000     -1.977154      0.405953     -0.018869
    9   H      9    1.2000  1.000     -0.414319     -1.348616     -0.015945
   10   H     10    1.2000  1.000      2.040000     -2.275138     -0.095325
   11   O     11    1.5200  1.000     -1.899271     -2.209547     -0.066147
   12   H     12    1.2000  1.000     -1.961203     -2.883541      0.624500
   13   H     13    1.2000  1.000     -2.609173     -1.580537      0.124507
 ------------------------------------------------------------------------------
 ------------------------------------------------------------------------------
 Atomic radii for non-electrostatic terms: SMD-CDS.
 ------------------------------------------------------------------------------
 Nuclear repulsion after PCM non-electrostatic terms =      448.5884784303 Hartrees.
 One-electron integrals computed using PRISM.
 NBasis=   191 RedAO= T EigKep=  1.85D-05  NBF=   191
 NBsUse=   191 1.00D-06 EigRej= -1.00D+00 NBFU=   191
 ExpMin= 4.38D-02 ExpMax= 5.48D+03 ExpMxC= 8.25D+02 IAcc=3 IRadAn=         5 AccDes= 0.00D+00
 Harris functional with IExCor= 1009 and IRadAn=       5 diagonalized for initial guess.
 HarFok:  IExCor= 1009 AccDes= 0.00D+00 IRadAn=         5 IDoV= 1 UseB2=F ITyADJ=14
 ICtDFT=  3500011 ScaDFX=  1.000000  1.000000  1.000000  1.000000
 FoFCou: FMM=F IPFlag=           0 FMFlag=      100000 FMFlg1=           0
         NFxFlg=           0 DoJE=T BraDBF=F KetDBF=T FulRan=T
         wScrn=  0.000000 ICntrl=       500 IOpCl=  0 I1Cent=   200000004 NGrid=           0
         NMat0=    1 NMatS0=      1 NMatT0=    0 NMatD0=    1 NMtDS0=    0 NMtDT0=    0
 Petite list used in FoFCou.
 Initial guess <Sx>= 0.0000 <Sy>= 0.0000 <Sz>= 0.5000 <S**2>= 0.7500 S= 0.5000
 Requested convergence on RMS density matrix=1.00D-08 within 128 cycles.
 Requested convergence on MAX density matrix=1.00D-06.
 Requested convergence on             energy=1.00D-06.
 No special actions if energy rises.
 Inv3:  Mode=1 IEnd=     4057707.
 Iteration    1 A*A^-1 deviation from unit magnitude is 2.89D-15 for    363.
 Iteration    1 A*A^-1 deviation from orthogonality  is 1.68D-15 for    438    356.
 Iteration    1 A^-1*A deviation from unit magnitude is 2.89D-15 for    363.
 Iteration    1 A^-1*A deviation from orthogonality  is 2.68D-15 for    556    476.
 Error on total polarization charges =  0.05299
 SCF Done:  E(UM062X) =  -523.155456589     A.U. after   19 cycles
            NFock= 19  Conv=0.41D-08     -V/T= 2.0091
 <Sx>= 0.0000 <Sy>= 0.0000 <Sz>= 0.5000 <S**2>= 0.7603 S= 0.5051
 <L.S>=  0.00000000000    
 SMD-CDS (non-electrostatic) energy       (kcal/mol) =       3.35
 (included in total energy above)
 Annihilation of the first spin contaminant:
 S**2 before annihilation     0.7603,   after     0.7501

 **********************************************************************

            Population analysis using the SCF density.

 **********************************************************************

 Orbital symmetries:
 Alpha Orbitals:
       Occupied  (A) (A) (A) (A) (A) (A) (A) (A) (A) (A) (A) (A)
                 (A) (A) (A) (A) (A) (A) (A) (A) (A) (A) (A) (A)
                 (A) (A) (A) (A) (A) (A) (A) (A) (A) (A) (A)
       Virtual   (A) (A) (A) (A) (A) (A) (A) (A) (A) (A) (A) (A)
                 (A) (A) (A) (A) (A) (A) (A) (A) (A) (A) (A) (A)
                 (A) (A) (A) (A) (A) (A) (A) (A) (A) (A) (A) (A)
                 (A) (A) (A) (A) (A) (A) (A) (A) (A) (A) (A) (A)
                 (A) (A) (A) (A) (A) (A) (A) (A) (A) (A) (A) (A)
                 (A) (A) (A) (A) (A) (A) (A) (A) (A) (A) (A) (A)
                 (A) (A) (A) (A) (A) (A) (A) (A) (A) (A) (A) (A)
                 (A) (A) (A) (A) (A) (A) (A) (A) (A) (A) (A) (A)
                 (A) (A) (A) (A) (A) (A) (A) (A) (A) (A) (A) (A)
                 (A) (A) (A) (A) (A) (A) (A) (A) (A) (A) (A) (A)
                 (A) (A) (A) (A) (A) (A) (A) (A) (A) (A) (A) (A)
                 (A) (A) (A) (A) (A) (A) (A) (A) (A) (A) (A) (A)
                 (A) (A) (A) (A) (A) (A) (A) (A) (A) (A) (A) (A)
 Beta  Orbitals:
       Occupied  (A) (A) (A) (A) (A) (A) (A) (A) (A) (A) (A) (A)
                 (A) (A) (A) (A) (A) (A) (A) (A) (A) (A) (A) (A)
                 (A) (A) (A) (A) (A) (A) (A) (A) (A) (A)
       Virtual   (A) (A) (A) (A) (A) (A) (A) (A) (A) (A) (A) (A)
                 (A) (A) (A) (A) (A) (A) (A) (A) (A) (A) (A) (A)
                 (A) (A) (A) (A) (A) (A) (A) (A) (A) (A) (A) (A)
                 (A) (A) (A) (A) (A) (A) (A) (A) (A) (A) (A) (A)
                 (A) (A) (A) (A) (A) (A) (A) (A) (A) (A) (A) (A)
                 (A) (A) (A) (A) (A) (A) (A) (A) (A) (A) (A) (A)
                 (A) (A) (A) (A) (A) (A) (A) (A) (A) (A) (A) (A)
                 (A) (A) (A) (A) (A) (A) (A) (A) (A) (A) (A) (A)
                 (A) (A) (A) (A) (A) (A) (A) (A) (A) (A) (A) (A)
                 (A) (A) (A) (A) (A) (A) (A) (A) (A) (A) (A) (A)
                 (A) (A) (A) (A) (A) (A) (A) (A) (A) (A) (A) (A)
                 (A) (A) (A) (A) (A) (A) (A) (A) (A) (A) (A) (A)
                 (A) (A) (A) (A) (A) (A) (A) (A) (A) (A) (A) (A)
                 (A)
 The electronic state is 2-A.
 Alpha  occ. eigenvalues --  -19.65209 -19.61631 -19.61380 -14.90296 -14.84359
 Alpha  occ. eigenvalues --  -14.81655 -14.80166 -10.71295 -10.62954  -1.29276
 Alpha  occ. eigenvalues --   -1.13770  -1.12423  -1.06441  -1.03084  -1.01799
 Alpha  occ. eigenvalues --   -0.81922  -0.76280  -0.72017  -0.62775  -0.61354
 Alpha  occ. eigenvalues --   -0.60619  -0.56117  -0.53878  -0.48577  -0.47698
 Alpha  occ. eigenvalues --   -0.47292  -0.43307  -0.41252  -0.40201  -0.39266
 Alpha  occ. eigenvalues --   -0.38175  -0.36665  -0.34150  -0.32047  -0.18392
 Alpha virt. eigenvalues --    0.02048   0.03911   0.04227   0.04637   0.05236
 Alpha virt. eigenvalues --    0.06501   0.06733   0.06979   0.09332   0.09852
 Alpha virt. eigenvalues --    0.11121   0.13106   0.14842   0.15435   0.16623
 Alpha virt. eigenvalues --    0.18480   0.18953   0.19760   0.20704   0.20860
 Alpha virt. eigenvalues --    0.21357   0.21978   0.22711   0.23723   0.24145
 Alpha virt. eigenvalues --    0.25494   0.26011   0.26509   0.26964   0.28066
 Alpha virt. eigenvalues --    0.28363   0.29041   0.29321   0.30990   0.31580
 Alpha virt. eigenvalues --    0.33017   0.33733   0.34056   0.35688   0.36193
 Alpha virt. eigenvalues --    0.38022   0.39360   0.42099   0.43447   0.43896
 Alpha virt. eigenvalues --    0.44995   0.46517   0.49418   0.53723   0.56627
 Alpha virt. eigenvalues --    0.71754   0.78946   0.79870   0.83341   0.87115
 Alpha virt. eigenvalues --    0.88701   0.91708   0.94491   0.94926   0.96652
 Alpha virt. eigenvalues --    0.99401   1.00044   1.01184   1.01843   1.03827
 Alpha virt. eigenvalues --    1.06804   1.09120   1.12825   1.14849   1.16960
 Alpha virt. eigenvalues --    1.18192   1.20450   1.21794   1.22940   1.24782
 Alpha virt. eigenvalues --    1.27169   1.29325   1.30716   1.33846   1.35216
 Alpha virt. eigenvalues --    1.36352   1.37858   1.38702   1.40352   1.40736
 Alpha virt. eigenvalues --    1.42531   1.45547   1.47894   1.50724   1.53883
 Alpha virt. eigenvalues --    1.57436   1.57619   1.59446   1.63460   1.66444
 Alpha virt. eigenvalues --    1.69865   1.74397   1.77420   1.80815   1.83882
 Alpha virt. eigenvalues --    1.87736   1.89598   1.91004   1.93121   1.95552
 Alpha virt. eigenvalues --    1.96710   2.02008   2.04638   2.07085   2.11074
 Alpha virt. eigenvalues --    2.13394   2.18912   2.23787   2.25640   2.26250
 Alpha virt. eigenvalues --    2.29522   2.31223   2.33464   2.34070   2.36119
 Alpha virt. eigenvalues --    2.43452   2.45977   2.49386   2.53763   2.58843
 Alpha virt. eigenvalues --    2.58931   2.60105   2.63254   2.67987   2.68590
 Alpha virt. eigenvalues --    2.71358   2.74427   2.77173   2.80484   2.80664
 Alpha virt. eigenvalues --    2.90435   2.94907   3.00181   3.04808   3.07080
 Alpha virt. eigenvalues --    3.10089   3.16036   3.26224   3.36803   3.48386
 Alpha virt. eigenvalues --    3.61045   3.78161   4.00925   4.09271   4.19971
 Alpha virt. eigenvalues --    4.27754   4.32481   4.39154   4.48278   4.53277
 Alpha virt. eigenvalues --    4.68877
  Beta  occ. eigenvalues --  -19.65209 -19.61482 -19.61204 -14.90114 -14.84043
  Beta  occ. eigenvalues --  -14.81027 -14.80159 -10.71175 -10.62923  -1.28301
  Beta  occ. eigenvalues --   -1.13727  -1.11861  -1.05441  -1.02478  -1.00888
  Beta  occ. eigenvalues --   -0.80621  -0.75674  -0.71267  -0.62253  -0.60637
  Beta  occ. eigenvalues --   -0.59033  -0.55731  -0.53416  -0.48380  -0.47348
  Beta  occ. eigenvalues --   -0.45552  -0.42844  -0.40015  -0.37805  -0.37242
  Beta  occ. eigenvalues --   -0.36693  -0.36145  -0.32146  -0.31718
  Beta virt. eigenvalues --   -0.02041   0.02100   0.04364   0.04376   0.04672
  Beta virt. eigenvalues --    0.06206   0.06572   0.07005   0.09336   0.09663
  Beta virt. eigenvalues --    0.10025   0.11340   0.13109   0.14636   0.15526
  Beta virt. eigenvalues --    0.16926   0.18828   0.19096   0.19871   0.20569
  Beta virt. eigenvalues --    0.20741   0.21375   0.21929   0.22833   0.23914
  Beta virt. eigenvalues --    0.24348   0.25580   0.25921   0.26422   0.27049
  Beta virt. eigenvalues --    0.28101   0.28234   0.29071   0.29325   0.31115
  Beta virt. eigenvalues --    0.31708   0.33012   0.33868   0.34194   0.35601
  Beta virt. eigenvalues --    0.36223   0.37661   0.39268   0.42326   0.43427
  Beta virt. eigenvalues --    0.44144   0.44979   0.46560   0.49864   0.54155
  Beta virt. eigenvalues --    0.57045   0.72185   0.79290   0.80632   0.83533
  Beta virt. eigenvalues --    0.87445   0.88780   0.91902   0.95697   0.96350
  Beta virt. eigenvalues --    0.97205   0.99984   1.00720   1.01783   1.02633
  Beta virt. eigenvalues --    1.03919   1.07005   1.09303   1.12949   1.14921
  Beta virt. eigenvalues --    1.17062   1.18620   1.20652   1.22147   1.23211
  Beta virt. eigenvalues --    1.25659   1.27292   1.29807   1.30991   1.34009
  Beta virt. eigenvalues --    1.35689   1.37091   1.38588   1.38830   1.40734
  Beta virt. eigenvalues --    1.40970   1.42912   1.45772   1.48446   1.51135
  Beta virt. eigenvalues --    1.54335   1.57852   1.58306   1.60289   1.63542
  Beta virt. eigenvalues --    1.66599   1.70137   1.74703   1.77628   1.81345
  Beta virt. eigenvalues --    1.83962   1.87943   1.89916   1.91263   1.93536
  Beta virt. eigenvalues --    1.95801   1.97217   2.02337   2.04983   2.07381
  Beta virt. eigenvalues --    2.11425   2.13820   2.19251   2.24215   2.25814
  Beta virt. eigenvalues --    2.26628   2.30138   2.31299   2.33716   2.34656
  Beta virt. eigenvalues --    2.36548   2.43903   2.46425   2.50068   2.54273
  Beta virt. eigenvalues --    2.59304   2.59512   2.60346   2.63560   2.68126
  Beta virt. eigenvalues --    2.69299   2.71501   2.74883   2.77501   2.80840
  Beta virt. eigenvalues --    2.81202   2.90676   2.95299   3.00517   3.05005
  Beta virt. eigenvalues --    3.07333   3.10185   3.16525   3.26557   3.37096
  Beta virt. eigenvalues --    3.48453   3.61056   3.78590   4.01156   4.09316
  Beta virt. eigenvalues --    4.20056   4.27732   4.32571   4.39354   4.48286
  Beta virt. eigenvalues --    4.54209   4.69639
          Condensed to atoms (all electrons):
               1          2          3          4          5          6
     1  N    7.849374  -0.785173   0.378959  -0.264505   0.192929  -0.016867
     2  N   -0.785173   8.849522  -1.760098   0.473109  -0.159758   0.164567
     3  N    0.378959  -1.760098   9.135830  -0.290937   0.143942  -0.109107
     4  N   -0.264505   0.473109  -0.290937   7.056093   0.334166   0.002905
     5  C    0.192929  -0.159758   0.143942   0.334166   5.041975  -0.024457
     6  C   -0.016867   0.164567  -0.109107   0.002905  -0.024457   4.691915
     7  O    0.022141  -0.058556  -0.047469   0.006015  -0.004226   0.317407
     8  O   -0.007766  -0.069374   0.014666  -0.000754  -0.001294   0.304653
     9  H    0.265424  -0.012087   0.007711   0.001206  -0.002159  -0.002864
    10  H   -0.070021   0.017914  -0.003860  -0.022397   0.414205  -0.000006
    11  O   -0.020352  -0.017413   0.012907  -0.006440   0.003705  -0.004156
    12  H    0.002558  -0.001426   0.000180  -0.000005   0.000690  -0.000127
    13  H   -0.002355   0.002993   0.000696  -0.000030  -0.000791   0.000746
               7          8          9         10         11         12
     1  N    0.022141  -0.007766   0.265424  -0.070021  -0.020352   0.002558
     2  N   -0.058556  -0.069374  -0.012087   0.017914  -0.017413  -0.001426
     3  N   -0.047469   0.014666   0.007711  -0.003860   0.012907   0.000180
     4  N    0.006015  -0.000754   0.001206  -0.022397  -0.006440  -0.000005
     5  C   -0.004226  -0.001294  -0.002159   0.414205   0.003705   0.000690
     6  C    0.317407   0.304653  -0.002864  -0.000006  -0.004156  -0.000127
     7  O    8.686279  -0.131338   0.000119   0.000008  -0.001413   0.000018
     8  O   -0.131338   8.709316   0.000161  -0.000065  -0.039240   0.001853
     9  H    0.000119   0.000161   0.250044   0.001270   0.016313  -0.002420
    10  H    0.000008  -0.000065   0.001270   0.401217  -0.000339   0.000003
    11  O   -0.001413  -0.039240   0.016313  -0.000339   8.313491   0.289295
    12  H    0.000018   0.001853  -0.002420   0.000003   0.289295   0.291566
    13  H    0.000003  -0.001377  -0.001956   0.000002   0.288092  -0.017126
              13
     1  N   -0.002355
     2  N    0.002993
     3  N    0.000696
     4  N   -0.000030
     5  C   -0.000791
     6  C    0.000746
     7  O    0.000003
     8  O   -0.001377
     9  H   -0.001956
    10  H    0.000002
    11  O    0.288092
    12  H   -0.017126
    13  H    0.280526
          Atomic-Atomic Spin Densities.
               1          2          3          4          5          6
     1  N    0.427221  -0.219210   0.150903  -0.036612  -0.120452  -0.057693
     2  N   -0.219210   0.461903  -0.345916   0.047270   0.052941   0.139469
     3  N    0.150903  -0.345916   0.863048  -0.143323  -0.048646  -0.070532
     4  N   -0.036612   0.047270  -0.143323   0.063622   0.074233   0.005513
     5  C   -0.120452   0.052941  -0.048646   0.074233   0.097478   0.001809
     6  C   -0.057693   0.139469  -0.070532   0.005513   0.001809   0.221125
     7  O    0.003072  -0.024805   0.010335  -0.000483  -0.000993  -0.047602
     8  O    0.015376  -0.025940   0.002326  -0.000780  -0.001924  -0.045585
     9  H    0.000920  -0.004634   0.001149  -0.000442   0.000497  -0.000261
    10  H   -0.001200   0.000995  -0.000595   0.001059   0.000114  -0.000031
    11  O   -0.002854   0.001995   0.000007  -0.000025   0.000156   0.000175
    12  H   -0.000169  -0.000024   0.000071   0.000002   0.000091  -0.000215
    13  H    0.000221  -0.000136  -0.000013  -0.000001   0.000004   0.000005
               7          8          9         10         11         12
     1  N    0.003072   0.015376   0.000920  -0.001200  -0.002854  -0.000169
     2  N   -0.024805  -0.025940  -0.004634   0.000995   0.001995  -0.000024
     3  N    0.010335   0.002326   0.001149  -0.000595   0.000007   0.000071
     4  N   -0.000483  -0.000780  -0.000442   0.001059  -0.000025   0.000002
     5  C   -0.000993  -0.001924   0.000497   0.000114   0.000156   0.000091
     6  C   -0.047602  -0.045585  -0.000261  -0.000031   0.000175  -0.000215
     7  O    0.118548   0.014217  -0.000026   0.000000   0.000026  -0.000004
     8  O    0.014217   0.105750   0.000152  -0.000001   0.000438  -0.000108
     9  H   -0.000026   0.000152  -0.006826   0.000011   0.002233  -0.000062
    10  H    0.000000  -0.000001   0.000011  -0.003357  -0.000015   0.000000
    11  O    0.000026   0.000438   0.002233  -0.000015  -0.001305  -0.000272
    12  H   -0.000004  -0.000108  -0.000062   0.000000  -0.000272   0.000733
    13  H   -0.000002  -0.000180  -0.000069   0.000000   0.000031  -0.000009
              13
     1  N    0.000221
     2  N   -0.000136
     3  N   -0.000013
     4  N   -0.000001
     5  C    0.000004
     6  C    0.000005
     7  O   -0.000002
     8  O   -0.000180
     9  H   -0.000069
    10  H    0.000000
    11  O    0.000031
    12  H   -0.000009
    13  H    0.000120
 Mulliken charges and spin densities:
               1          2
     1  N   -0.544347   0.159523
     2  N    0.355780   0.083907
     3  N   -0.483419   0.418814
     4  N   -0.288426   0.010032
     5  C    0.061072   0.055307
     6  C    0.675391   0.146177
     7  O   -0.788987   0.072282
     8  O   -0.779442   0.063741
     9  H    0.479239  -0.007359
    10  H    0.262071  -0.003020
    11  O   -0.834449   0.000590
    12  H    0.434942   0.000034
    13  H    0.450576  -0.000028
 Sum of Mulliken charges =  -1.00000   1.00000
 Mulliken charges and spin densities with hydrogens summed into heavy atoms:
               1          2
     1  N   -0.065108   0.152164
     2  N    0.355780   0.083907
     3  N   -0.483419   0.418814
     4  N   -0.288426   0.010032
     5  C    0.323143   0.052287
     6  C    0.675391   0.146177
     7  O   -0.788987   0.072282
     8  O   -0.779442   0.063741
    11  O    0.051069   0.000596
 Electronic spatial extent (au):  <R**2>=           1270.4913
 Charge=             -1.0000 electrons
 Dipole moment (field-independent basis, Debye):
    X=              2.2067    Y=            -14.8105    Z=              1.6866  Tot=             15.0687
 Quadrupole moment (field-independent basis, Debye-Ang):
   XX=            -76.3335   YY=            -69.2777   ZZ=            -54.6172
   XY=              6.8923   XZ=             -4.5664   YZ=             -5.4770
 Traceless Quadrupole moment (field-independent basis, Debye-Ang):
   XX=             -9.5907   YY=             -2.5349   ZZ=             12.1256
   XY=              6.8923   XZ=             -4.5664   YZ=             -5.4770
 Octapole moment (field-independent basis, Debye-Ang**2):
  XXX=            -43.8372  YYY=           -113.6696  ZZZ=              1.8551  XYY=             15.7380
  XXY=            -48.2369  XXZ=              8.9883  XZZ=             -4.8976  YZZ=             -6.3392
  YYZ=             14.5440  XYZ=             11.4400
 Hexadecapole moment (field-independent basis, Debye-Ang**3):
 XXXX=          -1024.4771 YYYY=           -770.9872 ZZZZ=            -56.1487 XXXY=             53.4288
 XXXZ=            -23.7275 YYYX=             74.1457 YYYZ=            -44.6526 ZZZX=             -3.9602
 ZZZY=             -5.3503 XXYY=           -255.6652 XXZZ=           -162.5402 YYZZ=           -124.4704
 XXYZ=            -23.7065 YYXZ=            -33.4000 ZZXY=              9.6293
 N-N= 4.485884784303D+02 E-N=-2.134641552500D+03  KE= 5.184561739667D+02
                          Isotropic Fermi Contact Couplings
        Atom                 a.u.       MegaHertz       Gauss      10(-4) cm-1
     1  N(14)              0.04345      14.03932       5.00958       4.68301
     2  N(14)              0.01474       4.76192       1.69917       1.58841
     3  N(14)              0.11235      36.29952      12.95257      12.10822
     4  N(14)             -0.00315      -1.01658      -0.36274      -0.33909
     5  C(13)              0.00449       5.04507       1.80020       1.68285
     6  C(13)              0.03776      42.45369      15.14853      14.16103
     7  O(17)              0.02127     -12.89199      -4.60018      -4.30030
     8  O(17)              0.01790     -10.85195      -3.87224      -3.61982
     9  H(1)              -0.00391     -17.45794      -6.22943      -5.82334
    10  H(1)              -0.00121      -5.42399      -1.93541      -1.80925
    11  O(17)             -0.00151       0.91640       0.32699       0.30568
    12  H(1)               0.00006       0.26496       0.09454       0.08838
    13  H(1)               0.00000       0.00971       0.00346       0.00324
 --------------------------------------------------------
       Center         ----  Spin Dipole Couplings  ----
                      3XX-RR        3YY-RR        3ZZ-RR
 --------------------------------------------------------
     1   Atom       -0.228379     -0.221473      0.449852
     2   Atom       -0.136443     -0.166795      0.303238
     3   Atom       -0.478795     -0.468286      0.947081
     4   Atom       -0.032896     -0.026030      0.058926
     5   Atom       -0.028632     -0.022393      0.051024
     6   Atom       -0.071159     -0.088965      0.160124
     7   Atom       -0.156112     -0.181539      0.337651
     8   Atom       -0.153910     -0.143991      0.297901
     9   Atom        0.011442     -0.003255     -0.008187
    10   Atom       -0.005960      0.010147     -0.004187
    11   Atom       -0.003334      0.000375      0.002959
    12   Atom        0.000124      0.001668     -0.001792
    13   Atom        0.001365      0.001557     -0.002922
 --------------------------------------------------------
                        XY            XZ            YZ
 --------------------------------------------------------
     1   Atom        0.006009      0.012393     -0.022677
     2   Atom       -0.003537     -0.072327      0.037977
     3   Atom        0.000391     -0.003951     -0.058266
     4   Atom        0.002873     -0.011941      0.007220
     5   Atom       -0.002021     -0.002734     -0.002131
     6   Atom       -0.010285     -0.054240      0.021903
     7   Atom        0.004553     -0.039546      0.017461
     8   Atom       -0.008310     -0.041734      0.008930
     9   Atom        0.021875      0.001388     -0.000141
    10   Atom       -0.003607     -0.000409      0.000727
    11   Atom        0.001383      0.000298      0.001725
    12   Atom        0.002155     -0.000462     -0.000721
    13   Atom        0.003234     -0.000219     -0.000257
 --------------------------------------------------------


 ---------------------------------------------------------------------------------
              Anisotropic Spin Dipole Couplings in Principal Axis System
 ---------------------------------------------------------------------------------

       Atom             a.u.   MegaHertz   Gauss  10(-4) cm-1        Axes

              Baa    -0.2326    -8.970    -3.201    -2.992  0.8495 -0.5266 -0.0329
     1 N(14)  Bbb    -0.2183    -8.417    -3.004    -2.808  0.5273  0.8495  0.0191
              Bcc     0.4508    17.388     6.204     5.800  0.0179 -0.0335  0.9993
 
              Baa    -0.1701    -6.559    -2.340    -2.188 -0.0994  0.9905 -0.0947
     2 N(14)  Bbb    -0.1477    -5.698    -2.033    -1.901  0.9825  0.1128  0.1481
              Bcc     0.3178    12.258     4.374     4.089 -0.1574  0.0783  0.9844
 
              Baa    -0.4788   -18.467    -6.589    -6.160  0.9996 -0.0282  0.0016
     3 N(14)  Bbb    -0.4707   -18.153    -6.477    -6.055  0.0281  0.9988  0.0411
              Bcc     0.9495    36.620    13.067    12.215 -0.0028 -0.0411  0.9992
 
              Baa    -0.0359    -1.386    -0.494    -0.462  0.9174 -0.3711  0.1437
     4 N(14)  Bbb    -0.0251    -0.966    -0.345    -0.322  0.3784  0.9253 -0.0258
              Bcc     0.0610     2.352     0.839     0.785 -0.1234  0.0780  0.9893
 
              Baa    -0.0294    -3.940    -1.406    -1.314  0.9563  0.2897  0.0402
     5 C(13)  Bbb    -0.0218    -2.928    -1.045    -0.977 -0.2905  0.9567  0.0171
              Bcc     0.0512     6.867     2.450     2.291 -0.0335 -0.0280  0.9990
 
              Baa    -0.0937   -12.576    -4.487    -4.195  0.4549  0.8903  0.0204
     6 C(13)  Bbb    -0.0806   -10.817    -3.860    -3.608  0.8633 -0.4465  0.2351
              Bcc     0.1743    23.394     8.347     7.803 -0.2184  0.0894  0.9717
 
              Baa    -0.1835    13.281     4.739     4.430 -0.2337  0.9710 -0.0503
     7 O(17)  Bbb    -0.1578    11.419     4.075     3.809  0.9691  0.2368  0.0690
              Bcc     0.3414   -24.700    -8.814    -8.239 -0.0789  0.0326  0.9963
 
              Baa    -0.1610    11.653     4.158     3.887  0.9113  0.4050  0.0750
     8 O(17)  Bbb    -0.1409    10.195     3.638     3.401 -0.4015  0.9141 -0.0568
              Bcc     0.3019   -21.848    -7.796    -7.288 -0.0915  0.0216  0.9956
 
              Baa    -0.0191   -10.170    -3.629    -3.392 -0.5832  0.8079  0.0849
     9 H(1)   Bbb    -0.0081    -4.343    -1.550    -1.449  0.0256 -0.0861  0.9960
              Bcc     0.0272    14.513     5.179     4.841  0.8119  0.5830  0.0295
 
              Baa    -0.0068    -3.604    -1.286    -1.202  0.9742  0.2037  0.0975
    10 H(1)   Bbb    -0.0042    -2.243    -0.801    -0.748 -0.0846 -0.0716  0.9938
              Bcc     0.0110     5.848     2.087     1.951 -0.2094  0.9764  0.0525
 
              Baa    -0.0038     0.275     0.098     0.092  0.9431 -0.3297  0.0425
    11 O(17)  Bbb    -0.0001     0.009     0.003     0.003  0.3078  0.8178 -0.4863
              Bcc     0.0039    -0.285    -0.102    -0.095  0.1256  0.4717  0.8728
 
              Baa    -0.0019    -1.034    -0.369    -0.345  0.0402  0.1727  0.9842
    12 H(1)   Bbb    -0.0014    -0.742    -0.265    -0.247  0.8230 -0.5643  0.0654
              Bcc     0.0033     1.776     0.634     0.592  0.5667  0.8073 -0.1648
 
              Baa    -0.0029    -1.567    -0.559    -0.523  0.0171  0.0449  0.9988
    13 H(1)   Bbb    -0.0018    -0.947    -0.338    -0.316  0.7181 -0.6957  0.0190
              Bcc     0.0047     2.514     0.897     0.839  0.6957  0.7169 -0.0441
 

 ---------------------------------------------------------------------------------

 D1PCM: PCM CHGder 1st derivatives, ID1Alg=3 FixD1E=F DoIter=F DoCFld=F I1PDM=0.
 Calling FoFJK, ICntrl=      2127 FMM=F ISym2X=0 I1Cent= 0 IOpClX= 1 NMat=1 NMatS=1 NMatT=0.
 ***** Axes restored to original set *****
 -------------------------------------------------------------------
 Center     Atomic                   Forces (Hartrees/Bohr)
 Number     Number              X              Y              Z
 -------------------------------------------------------------------
      1        7           0.001025415    0.065583624    0.000690231
      2        7          -0.090444047    0.046750269    0.005923807
      3        7           0.025005070   -0.092724869   -0.000227136
      4        7          -0.005310860    0.016665933    0.001011371
      5        6           0.003891715   -0.015378199   -0.000117264
      6        6          -0.091930858   -0.018198644   -0.022430855
      7        8           0.079337493    0.060447276    0.007891897
      8        8           0.073308183   -0.071000420    0.007777186
      9        1          -0.000912559   -0.000815703   -0.000307429
     10        1          -0.001124760    0.000522473   -0.000098260
     11        8           0.004459495    0.012189600   -0.001983671
     12        1           0.000388431    0.001242056    0.001182039
     13        1           0.002307282   -0.005283398    0.000688085
 -------------------------------------------------------------------
 Cartesian Forces:  Max     0.092724869 RMS     0.037371858

 GradGradGradGradGradGradGradGradGradGradGradGradGradGradGradGradGradGrad
 Berny optimization.
 FormGI is forming the generalized inverse of G from B-inverse, IUseBI=4.
 Internal  Forces:  Max     0.098789396 RMS     0.028398176
 Search for a local minimum.
 Step number   1 out of a maximum of   63
 All quantities printed in internal units (Hartrees-Bohrs-Radians)
 Mixed Optimization -- RFO/linear search
 Second derivative matrix not updated -- first step.
 ITU=  0
     Eigenvalues ---    0.00230   0.00230   0.00230   0.00745   0.00975
     Eigenvalues ---    0.01690   0.01873   0.02393   0.02502   0.02626
     Eigenvalues ---    0.05324   0.07161   0.15999   0.16000   0.16000
     Eigenvalues ---    0.16000   0.22676   0.24553   0.24724   0.25000
     Eigenvalues ---    0.25000   0.35554   0.36147   0.40908   0.48751
     Eigenvalues ---    0.50029   0.51091   0.53629   0.53901   0.53994
     Eigenvalues ---    0.57264   0.60356   0.67886
 RFO step:  Lambda=-9.40045111D-02 EMin= 2.30000000D-03
 Linear search not attempted -- first point.
 Maximum step size (   0.300) exceeded in Quadratic search.
    -- Step size scaled by   0.590
 Iteration  1 RMS(Cart)=  0.19802928 RMS(Int)=  0.00924490
 Iteration  2 RMS(Cart)=  0.01382563 RMS(Int)=  0.00017404
 Iteration  3 RMS(Cart)=  0.00001967 RMS(Int)=  0.00017333
 Iteration  4 RMS(Cart)=  0.00000000 RMS(Int)=  0.00017333
 Variable       Old X    -DE/DX   Delta X   Delta X   Delta X     New X
                                 (Linear)    (Quad)   (Total)
    R1        2.51669   0.05359   0.00000   0.04947   0.04939   2.56608
    R2        2.52171   0.00685   0.00000   0.00455   0.00456   2.52627
    R3        1.97037   0.00271   0.00000   0.00318   0.00318   1.97355
    R4        2.43527   0.06162   0.00000   0.04848   0.04842   2.48369
    R5        2.78084  -0.06113   0.00000  -0.08025  -0.08025   2.70059
    R6        2.54488   0.00318   0.00000   0.00179   0.00183   2.54671
    R7        2.49496   0.00452   0.00000  -0.00027  -0.00019   2.49477
    R8        2.03852  -0.00037   0.00000  -0.00047  -0.00047   2.03804
    R9        2.61147  -0.09445   0.00000  -0.09586  -0.09586   2.51561
   R10        2.58780  -0.09879   0.00000  -0.09638  -0.09638   2.49142
   R11        3.24505   0.00274   0.00000   0.00977   0.00977   3.25483
   R12        1.82737   0.00006   0.00000   0.00006   0.00006   1.82743
   R13        1.82822  -0.00090   0.00000  -0.00084  -0.00084   1.82738
    A1        1.89132  -0.02546   0.00000  -0.04351  -0.04359   1.84773
    A2        2.11772   0.03364   0.00000   0.07035   0.07039   2.18810
    A3        2.27413  -0.00817   0.00000  -0.02683  -0.02679   2.24734
    A4        1.86427   0.01339   0.00000   0.03601   0.03595   1.90022
    A5        2.00800   0.04082   0.00000   0.06458   0.06473   2.07274
    A6        2.40066  -0.05439   0.00000  -0.10078  -0.10078   2.29988
    A7        1.93401  -0.03111   0.00000  -0.04621  -0.04627   1.88774
    A8        1.84415   0.02454   0.00000   0.02876   0.02890   1.87304
    A9        1.89103   0.01863   0.00000   0.02494   0.02501   1.91604
   A10        2.17651  -0.01052   0.00000  -0.01527  -0.01531   2.16121
   A11        2.21564  -0.00811   0.00000  -0.00967  -0.00970   2.20594
   A12        2.14491  -0.03364   0.00000  -0.05563  -0.05578   2.08913
   A13        2.10580  -0.01652   0.00000  -0.02626  -0.02641   2.07939
   A14        2.01470   0.05073   0.00000   0.08916   0.08901   2.10371
   A15        1.96486   0.00256   0.00000   0.00508   0.00521   1.97007
   A16        1.87844  -0.00926   0.00000  -0.02250  -0.02237   1.85607
   A17        1.83944   0.00208   0.00000   0.00291   0.00317   1.84261
   A18        3.12567   0.02357   0.00000   0.14391   0.14389   3.26957
   A19        3.11884  -0.00087   0.00000  -0.00605  -0.00643   3.11241
    D1        0.00082   0.00037   0.00000  -0.00189  -0.00213  -0.00131
    D2        3.01637  -0.00600   0.00000  -0.01264  -0.01227   3.00409
    D3        3.13692   0.00092   0.00000  -0.00045  -0.00047   3.13645
    D4       -0.13072  -0.00544   0.00000  -0.01121  -0.01060  -0.14133
    D5       -0.00070  -0.00094   0.00000  -0.00013   0.00009  -0.00061
    D6        3.14120   0.00025   0.00000   0.00103   0.00112  -3.14086
    D7       -3.13614  -0.00173   0.00000  -0.00215  -0.00206  -3.13820
    D8        0.00577  -0.00054   0.00000  -0.00098  -0.00103   0.00474
    D9       -2.19674  -0.00026   0.00000  -0.00273  -0.00240  -2.19914
   D10       -0.17418   0.00019   0.00000   0.00419   0.00431  -0.16987
   D11        0.95832  -0.00055   0.00000  -0.00637  -0.00649   0.95183
   D12        2.98087  -0.00010   0.00000   0.00055   0.00022   2.98110
   D13       -0.00065   0.00033   0.00000   0.00322   0.00335   0.00270
   D14       -2.97269  -0.00452   0.00000  -0.00628  -0.00592  -2.97862
   D15        3.10971   0.00377   0.00000   0.02503   0.02526   3.13497
   D16        0.17885  -0.00557   0.00000  -0.02805  -0.02785   0.15100
   D17       -0.21113   0.00617   0.00000   0.03159   0.03138  -0.17974
   D18        3.14119  -0.00316   0.00000  -0.02150  -0.02172   3.11947
   D19        0.00022  -0.00090   0.00000  -0.00331  -0.00327  -0.00305
   D20        0.00030   0.00111   0.00000   0.00202   0.00195   0.00225
   D21        3.14157  -0.00012   0.00000   0.00083   0.00088  -3.14074
         Item               Value     Threshold  Converged?
 Maximum Force            0.098789     0.000450     NO 
 RMS     Force            0.028398     0.000300     NO 
 Maximum Displacement     0.588544     0.001800     NO 
 RMS     Displacement     0.192822     0.001200     NO 
 Predicted change in Energy=-4.349050D-02
 GradGradGradGradGradGradGradGradGradGradGradGradGradGradGradGradGradGrad

                          Input orientation:                          
 ---------------------------------------------------------------------
 Center     Atomic      Atomic             Coordinates (Angstroms)
 Number     Number       Type             X           Y           Z
 ---------------------------------------------------------------------
      1          7           0        0.928083    0.561623    0.008136
      2          7           0        0.404482   -0.690636   -0.032018
      3          7           0        1.387824   -1.562654   -0.037880
      4          7           0        2.551383   -0.883868    0.001769
      5          6           0        2.255273    0.402414    0.027571
      6          6           0       -1.008477   -0.850011    0.110964
      7          8           0       -1.542543   -2.068590    0.066861
      8          8           0       -1.779117    0.219689    0.104445
      9          1           0        0.375632    1.447853    0.017039
     10          1           0        2.957645    1.220155    0.060798
     11          8           0       -0.339470    3.014080    0.063479
     12          1           0       -0.025219    3.591988   -0.645340
     13          1           0       -1.283372    2.887350   -0.104125
 ---------------------------------------------------------------------
                    Distance matrix (angstroms):
                    1          2          3          4          5
     1  N    0.000000
     2  N    1.357911   0.000000
     3  N    2.173943   1.314311   0.000000
     4  N    2.173612   2.155845   1.347661   0.000000
     5  C    1.336846   2.150288   2.149010   1.320178   0.000000
     6  C    2.398656   1.429090   2.504451   3.561696   3.496797
     7  O    3.609081   2.387350   2.975566   4.262398   4.531094
     8  O    2.730408   2.369687   3.636828   4.470080   4.039258
     9  H    1.044359   2.139246   3.176586   3.189209   2.150838
    10  H    2.134375   3.190357   3.196576   2.143699   1.078485
    11  O    2.761213   3.779881   4.892884   4.853333   3.681681
    12  H    3.243290   4.347605   5.379222   5.204894   3.978295
    13  H    3.211252   3.956770   5.190588   5.379465   4.325998
                    6          7          8          9         10
     6  C    0.000000
     7  O    1.331205   0.000000
     8  O    1.318403   2.300783   0.000000
     9  H    2.684168   4.005902   2.481728   0.000000
    10  H    4.474174   5.573829   4.841462   2.592403   0.000000
    11  O    3.921865   5.223116   3.143706   1.722381   3.753550
    12  H    4.611957   5.903528   3.874369   2.279636   3.875783
    13  H    3.753624   4.965657   2.721338   2.199801   4.559930
                   11         12         13
    11  O    0.000000
    12  H    0.967034   0.000000
    13  H    0.967007   1.540252   0.000000
 Stoichiometry    C2H4N4O3(1-,2)
 Framework group  C1[X(C2H4N4O3)]
 Deg. of freedom    33
 Full point group                 C1      NOp   1
 Largest Abelian subgroup         C1      NOp   1
 Largest concise Abelian subgroup C1      NOp   1
                         Standard orientation:                         
 ---------------------------------------------------------------------
 Center     Atomic      Atomic             Coordinates (Angstroms)
 Number     Number       Type             X           Y           Z
 ---------------------------------------------------------------------
      1          7           0       -0.382321   -0.815525   -0.005357
      2          7           0        0.673833    0.035477    0.059899
      3          7           0        1.785609   -0.665479    0.054618
      4          7           0        1.458742   -1.970919   -0.017318
      5          6           0        0.141068   -2.044801   -0.051196
      6          6           0        0.433207    1.439771   -0.051251
      7          8           0        1.454081    2.291332    0.017800
      8          8           0       -0.809088    1.881098   -0.040318
      9          1           0       -1.387469   -0.532130   -0.012427
     10          1           0       -0.447979   -2.946397   -0.108469
     11          8           0       -3.090800   -0.281364   -0.061167
     12          1           0       -3.561434   -0.760908    0.634316
     13          1           0       -3.233352    0.656214    0.127853
 ---------------------------------------------------------------------
 Rotational constants (GHZ):           1.7033178           1.6368664           0.8365363
 Standard basis: 6-31+G(d,p) (6D, 7F)
 There are   191 symmetry adapted cartesian basis functions of A   symmetry.
 There are   191 symmetry adapted basis functions of A   symmetry.
   191 basis functions,   316 primitive gaussians,   191 cartesian basis functions
    35 alpha electrons       34 beta electrons
       nuclear repulsion energy       447.3520531233 Hartrees.
 NAtoms=   13 NActive=   13 NUniq=   13 SFac= 1.00D+00 NAtFMM=   60 NAOKFM=F Big=F
 Integral buffers will be    131072 words long.
 Raffenetti 2 integral format.
 Two-electron integral symmetry is turned on.
 ------------------------------------------------------------------------------
 Polarizable Continuum Model (PCM)
 =================================
 Model                : PCM.
 Atomic radii         : SMD-Coulomb.
 Polarization charges : Total charges.
 Charge compensation  : None.
 Solution method      : On-the-fly selection.
 Cavity type          : VdW (van der Waals Surface) (Alpha=1.000).
 Cavity algorithm     : GePol (No added spheres)
                        Default sphere list used, NSphG=   13.
                        Lebedev-Laikov grids with approx.  5.0 points / Ang**2.
                        Smoothing algorithm: York/Karplus (Gamma=1.0000).
                        Polarization charges: spherical gaussians, with
                                              point-specific exponents (IZeta= 3).
                        Self-potential: point-specific (ISelfS= 7).
                        Self-field    : sphere-specific E.n sum rule (ISelfD= 2).
 1st derivatives      : Analytical E(r).r(x)/FMM algorithm (CHGder, D1EAlg=3).
                        Cavity 1st derivative terms included.
 Solvent              : Water, Eps=  78.355300 Eps(inf)=   1.777849
 ------------------------------------------------------------------------------
 Spheres list:
 ISph  on   Nord     Re0    Alpha      Xe            Ye            Ze
    1   N      1    1.8900  1.000     -0.382321     -0.815525     -0.005357
    2   N      2    1.8900  1.000      0.673833      0.035477      0.059899
    3   N      3    1.8900  1.000      1.785609     -0.665479      0.054618
    4   N      4    1.8900  1.000      1.458742     -1.970919     -0.017318
    5   C      5    1.8500  1.000      0.141068     -2.044801     -0.051196
    6   C      6    1.8500  1.000      0.433207      1.439771     -0.051251
    7   O      7    1.5200  1.000      1.454081      2.291332      0.017800
    8   O      8    1.5200  1.000     -0.809088      1.881098     -0.040318
    9   H      9    1.2000  1.000     -1.387469     -0.532130     -0.012427
   10   H     10    1.2000  1.000     -0.447979     -2.946397     -0.108469
   11   O     11    1.5200  1.000     -3.090800     -0.281364     -0.061167
   12   H     12    1.2000  1.000     -3.561434     -0.760908      0.634316
   13   H     13    1.2000  1.000     -3.233352      0.656214      0.127853
 ------------------------------------------------------------------------------
 ------------------------------------------------------------------------------
 Atomic radii for non-electrostatic terms: SMD-CDS.
 ------------------------------------------------------------------------------
 Nuclear repulsion after PCM non-electrostatic terms =      447.3586810287 Hartrees.
 One-electron integrals computed using PRISM.
 NBasis=   191 RedAO= T EigKep=  1.95D-05  NBF=   191
 NBsUse=   191 1.00D-06 EigRej= -1.00D+00 NBFU=   191
 Initial guess from the checkpoint file:  "/scratch/gongke2021/sidanzuo-2/Gau-22501.chk"
 B after Tr=    -0.000000   -0.000000    0.000000
         Rot=    0.908363   -0.001226   -0.000131    0.418180 Ang= -49.44 deg.
 Initial guess <Sx>= 0.0000 <Sy>= 0.0000 <Sz>= 0.5000 <S**2>= 0.7602 S= 0.5051
 ExpMin= 4.38D-02 ExpMax= 5.48D+03 ExpMxC= 8.25D+02 IAcc=2 IRadAn=         4 AccDes= 0.00D+00
 Harris functional with IExCor= 1009 and IRadAn=       4 diagonalized for initial guess.
 HarFok:  IExCor= 1009 AccDes= 0.00D+00 IRadAn=         4 IDoV= 1 UseB2=F ITyADJ=14
 ICtDFT=  3500011 ScaDFX=  1.000000  1.000000  1.000000  1.000000
 FoFCou: FMM=F IPFlag=           0 FMFlag=      100000 FMFlg1=           0
         NFxFlg=           0 DoJE=T BraDBF=F KetDBF=T FulRan=T
         wScrn=  0.000000 ICntrl=       500 IOpCl=  0 I1Cent=   200000004 NGrid=           0
         NMat0=    1 NMatS0=      1 NMatT0=    0 NMatD0=    1 NMtDS0=    0 NMtDT0=    0
 Petite list used in FoFCou.
 Requested convergence on RMS density matrix=1.00D-08 within 128 cycles.
 Requested convergence on MAX density matrix=1.00D-06.
 Requested convergence on             energy=1.00D-06.
 No special actions if energy rises.
 Inv3:  Mode=1 IEnd=     4241163.
 Iteration    1 A*A^-1 deviation from unit magnitude is 3.33D-15 for    210.
 Iteration    1 A*A^-1 deviation from orthogonality  is 1.63D-15 for    696    109.
 Iteration    1 A^-1*A deviation from unit magnitude is 2.66D-15 for     48.
 Iteration    1 A^-1*A deviation from orthogonality  is 5.05D-15 for    636    595.
 Error on total polarization charges =  0.05223
 SCF Done:  E(UM062X) =  -523.195147106     A.U. after   18 cycles
            NFock= 18  Conv=0.27D-08     -V/T= 2.0089
 <Sx>= 0.0000 <Sy>= 0.0000 <Sz>= 0.5000 <S**2>= 0.7609 S= 0.5054
 <L.S>=  0.00000000000    
 SMD-CDS (non-electrostatic) energy       (kcal/mol) =       4.16
 (included in total energy above)
 Annihilation of the first spin contaminant:
 S**2 before annihilation     0.7609,   after     0.7501
 D1PCM: PCM CHGder 1st derivatives, ID1Alg=3 FixD1E=F DoIter=F DoCFld=F I1PDM=0.
 Calling FoFJK, ICntrl=      2127 FMM=F ISym2X=0 I1Cent= 0 IOpClX= 1 NMat=1 NMatS=1 NMatT=0.
 ***** Axes restored to original set *****
 -------------------------------------------------------------------
 Center     Atomic                   Forces (Hartrees/Bohr)
 Number     Number              X              Y              Z
 -------------------------------------------------------------------
      1        7           0.000026930    0.032021457    0.000940893
      2        7          -0.064856586    0.033238586    0.005716150
      3        7           0.021049587   -0.052150585    0.000780953
      4        7           0.001512909    0.014621823    0.000022879
      5        6           0.006911841   -0.014792100    0.000106995
      6        6          -0.065369805   -0.023412244   -0.019183576
      7        8           0.046832565    0.053461418    0.006924744
      8        8           0.055812721   -0.037357928    0.005326566
      9        1          -0.001600949   -0.006081382   -0.000587222
     10        1          -0.000128310    0.000225246   -0.000127676
     11        8           0.000666979    0.000526889    0.000495528
     12        1          -0.000485622   -0.000181387   -0.000122128
     13        1          -0.000372258   -0.000119793   -0.000294106
 -------------------------------------------------------------------
 Cartesian Forces:  Max     0.065369805 RMS     0.025260389

 GradGradGradGradGradGradGradGradGradGradGradGradGradGradGradGradGradGrad
 Berny optimization.
 Using GEDIIS/GDIIS optimizer.
 FormGI is forming the generalized inverse of G from B-inverse, IUseBI=4.
 Internal  Forces:  Max     0.067951453 RMS     0.016967677
 Search for a local minimum.
 Step number   2 out of a maximum of   63
 All quantities printed in internal units (Hartrees-Bohrs-Radians)
 Mixed Optimization -- RFO/linear search
 Update second derivatives using D2CorX and points    1    2
 DE= -3.97D-02 DEPred=-4.35D-02 R= 9.13D-01
 TightC=F SS=  1.41D+00  RLast= 3.05D-01 DXNew= 5.0454D-01 9.1617D-01
 Trust test= 9.13D-01 RLast= 3.05D-01 DXMaxT set to 5.05D-01
 ITU=  1  0
 Use linear search instead of GDIIS.
 Linear search step of   0.600 exceeds DXMaxT=   0.505 but not scaled.
 Quartic linear search produced a step of  2.00000.
 Iteration  1 RMS(Cart)=  0.32551176 RMS(Int)=  0.03022086
 Iteration  2 RMS(Cart)=  0.06308622 RMS(Int)=  0.00216599
 Iteration  3 RMS(Cart)=  0.00284890 RMS(Int)=  0.00159713
 Iteration  4 RMS(Cart)=  0.00001313 RMS(Int)=  0.00159713
 Iteration  5 RMS(Cart)=  0.00000007 RMS(Int)=  0.00159713
 Variable       Old X    -DE/DX   Delta X   Delta X   Delta X     New X
                                 (Linear)    (Quad)   (Total)
    R1        2.56608   0.01428   0.09879   0.00000   0.09836   2.66444
    R2        2.52627   0.00889   0.00912   0.00000   0.00921   2.53548
    R3        1.97355  -0.00401   0.00636   0.00000   0.00634   1.97989
    R4        2.48369   0.04233   0.09683   0.00000   0.09648   2.58017
    R5        2.70059  -0.03675  -0.16051   0.00000  -0.16050   2.54008
    R6        2.54671   0.00739   0.00366   0.00000   0.00394   2.55065
    R7        2.49477  -0.00134  -0.00038   0.00000   0.00011   2.49488
    R8        2.03804   0.00009  -0.00095   0.00000  -0.00095   2.03709
    R9        2.51561  -0.06795  -0.19172   0.00000  -0.19172   2.32389
   R10        2.49142  -0.06297  -0.19277   0.00000  -0.19277   2.29865
   R11        3.25483   0.00029   0.01955   0.00000   0.01953   3.27436
   R12        1.82743  -0.00019   0.00011   0.00000   0.00011   1.82754
   R13        1.82738   0.00044  -0.00168   0.00000  -0.00168   1.82570
    A1        1.84773  -0.00768  -0.08717   0.00000  -0.08750   1.76023
    A2        2.18810  -0.00123   0.14077   0.00000   0.14071   2.32881
    A3        2.24734   0.00891  -0.05358   0.00000  -0.05320   2.19414
    A4        1.90022   0.00428   0.07189   0.00000   0.07136   1.97158
    A5        2.07274   0.01094   0.12947   0.00000   0.13035   2.20308
    A6        2.29988  -0.01527  -0.20155   0.00000  -0.20144   2.09844
    A7        1.88774  -0.01667  -0.09254   0.00000  -0.09285   1.79489
    A8        1.87304   0.01100   0.05779   0.00000   0.05858   1.93162
    A9        1.91604   0.00906   0.05002   0.00000   0.05036   1.96640
   A10        2.16121  -0.00479  -0.03062   0.00000  -0.03079   2.13042
   A11        2.20594  -0.00427  -0.01940   0.00000  -0.01957   2.18636
   A12        2.08913  -0.01553  -0.11157   0.00000  -0.11293   1.97620
   A13        2.07939  -0.02017  -0.05282   0.00000  -0.05419   2.02520
   A14        2.10371   0.03684   0.17801   0.00000   0.17664   2.28035
   A15        1.97007   0.00016   0.01041   0.00000   0.01145   1.98151
   A16        1.85607  -0.00028  -0.04474   0.00000  -0.04380   1.81226
   A17        1.84261  -0.00021   0.00634   0.00000   0.00833   1.85093
   A18        3.26957  -0.00087   0.28779   0.00000   0.28692   3.55648
   A19        3.11241  -0.00007  -0.01287   0.00000  -0.01713   3.09528
    D1       -0.00131   0.00042  -0.00427   0.00000  -0.00641  -0.00772
    D2        3.00409  -0.00138  -0.02454   0.00000  -0.02328   2.98081
    D3        3.13645   0.00042  -0.00093   0.00000   0.00068   3.13713
    D4       -0.14133  -0.00138  -0.02121   0.00000  -0.01619  -0.15752
    D5       -0.00061  -0.00036   0.00017   0.00000   0.00209   0.00148
    D6       -3.14086  -0.00013   0.00225   0.00000   0.00344  -3.13742
    D7       -3.13820  -0.00033  -0.00413   0.00000  -0.00483   3.14016
    D8        0.00474  -0.00010  -0.00205   0.00000  -0.00348   0.00126
    D9       -2.19914   0.00025  -0.00480   0.00000  -0.00061  -2.19975
   D10       -0.16987  -0.00017   0.00862   0.00000   0.01114  -0.15874
   D11        0.95183   0.00040  -0.01297   0.00000  -0.01541   0.93642
   D12        2.98110  -0.00002   0.00045   0.00000  -0.00366   2.97744
   D13        0.00270  -0.00034   0.00669   0.00000   0.00794   0.01064
   D14       -2.97862  -0.00139  -0.01185   0.00000  -0.00950  -2.98812
   D15        3.13497   0.00546   0.05051   0.00000   0.05172  -3.09650
   D16        0.15100  -0.00602  -0.05570   0.00000  -0.05457   0.09643
   D17       -0.17974   0.00580   0.06277   0.00000   0.06164  -0.11811
   D18        3.11947  -0.00567  -0.04344   0.00000  -0.04465   3.07482
   D19       -0.00305   0.00011  -0.00653   0.00000  -0.00633  -0.00938
   D20        0.00225   0.00020   0.00389   0.00000   0.00292   0.00517
   D21       -3.14074  -0.00004   0.00175   0.00000   0.00152  -3.13922
         Item               Value     Threshold  Converged?
 Maximum Force            0.067951     0.000450     NO 
 RMS     Force            0.016968     0.000300     NO 
 Maximum Displacement     1.045707     0.001800     NO 
 RMS     Displacement     0.353424     0.001200     NO 
 Predicted change in Energy=-1.372634D-03
 GradGradGradGradGradGradGradGradGradGradGradGradGradGradGradGradGradGrad

                          Input orientation:                          
 ---------------------------------------------------------------------
 Center     Atomic      Atomic             Coordinates (Angstroms)
 Number     Number       Type             X           Y           Z
 ---------------------------------------------------------------------
      1          7           0        0.664911    0.622713    0.002074
      2          7           0        0.257511   -0.726630   -0.033823
      3          7           0        1.307124   -1.599711   -0.050205
      4          7           0        2.379217   -0.780673   -0.010111
      5          6           0        1.999315    0.483459    0.015723
      6          6           0       -0.998781   -1.181318    0.113619
      7          8           0       -1.076255   -2.408413    0.090782
      8          8           0       -1.867852   -0.333675    0.190013
      9          1           0        0.144673    1.531987    0.018726
     10          1           0        2.662983    1.332339    0.047257
     11          8           0       -0.034706    3.255178    0.045884
     12          1           0        0.422532    3.702471   -0.679467
     13          1           0       -0.978546    3.391666   -0.108774
 ---------------------------------------------------------------------
                    Distance matrix (angstroms):
                    1          2          3          4          5
     1  N    0.000000
     2  N    1.409960   0.000000
     3  N    2.313944   1.365367   0.000000
     4  N    2.215510   2.122526   1.349745   0.000000
     5  C    1.341720   2.121474   2.196149   1.320235   0.000000
     6  C    2.456591   1.344154   2.349275   3.403924   3.430692
     7  O    3.496749   2.150083   2.520789   3.820996   4.222285
     8  O    2.713833   2.172944   3.426518   4.275213   3.956396
     9  H    1.047714   2.262044   3.341194   3.215962   2.130521
    10  H    2.120826   3.167369   3.231837   2.132753   1.077983
    11  O    2.724198   3.993312   5.037825   4.703004   3.438107
    12  H    3.163567   4.478954   5.412172   4.937128   3.651243
    13  H    3.221854   4.300444   5.490133   5.356559   4.164232
                    6          7          8          9         10
     6  C    0.000000
     7  O    1.229751   0.000000
     8  O    1.216396   2.222838   0.000000
     9  H    2.945932   4.125847   2.749598   0.000000
    10  H    4.442004   5.289332   4.829539   2.526373   0.000000
    11  O    4.540542   5.758742   4.032501   1.732715   3.312829
    12  H    5.147865   6.338971   4.721476   2.296885   3.341448
    13  H    4.578434   5.804334   3.841654   2.176301   4.186396
                   11         12         13
    11  O    0.000000
    12  H    0.967095   0.000000
    13  H    0.966117   1.544445   0.000000
 Stoichiometry    C2H4N4O3(1-,2)
 Framework group  C1[X(C2H4N4O3)]
 Deg. of freedom    33
 Full point group                 C1      NOp   1
 Largest Abelian subgroup         C1      NOp   1
 Largest concise Abelian subgroup C1      NOp   1
                         Standard orientation:                         
 ---------------------------------------------------------------------
 Center     Atomic      Atomic             Coordinates (Angstroms)
 Number     Number       Type             X           Y           Z
 ---------------------------------------------------------------------
      1          7           0       -0.803284   -0.262890   -0.000351
      2          7           0        0.599359   -0.139132    0.072207
      3          7           0        1.241801   -1.343839    0.058913
      4          7           0        0.224209   -2.225388   -0.036959
      5          6           0       -0.936190   -1.596387   -0.066176
      6          6           0        1.301703    1.003437   -0.017225
      7          8           0        2.518302    0.829615    0.027045
      8          8           0        0.649068    2.028527   -0.070849
      9          1           0       -1.588096    0.431151   -0.009395
     10          1           0       -1.900691   -2.072541   -0.137332
     11          8           0       -3.238445    0.957056   -0.054937
     12          1           0       -3.785333    0.573624    0.644467
     13          1           0       -3.184951    1.902621    0.135922
 ---------------------------------------------------------------------
 Rotational constants (GHZ):           2.1137221           1.3507783           0.8261917
 Standard basis: 6-31+G(d,p) (6D, 7F)
 There are   191 symmetry adapted cartesian basis functions of A   symmetry.
 There are   191 symmetry adapted basis functions of A   symmetry.
   191 basis functions,   316 primitive gaussians,   191 cartesian basis functions
    35 alpha electrons       34 beta electrons
       nuclear repulsion energy       452.3403959877 Hartrees.
 NAtoms=   13 NActive=   13 NUniq=   13 SFac= 1.00D+00 NAtFMM=   60 NAOKFM=F Big=F
 Integral buffers will be    131072 words long.
 Raffenetti 2 integral format.
 Two-electron integral symmetry is turned on.
 ------------------------------------------------------------------------------
 Polarizable Continuum Model (PCM)
 =================================
 Model                : PCM.
 Atomic radii         : SMD-Coulomb.
 Polarization charges : Total charges.
 Charge compensation  : None.
 Solution method      : On-the-fly selection.
 Cavity type          : VdW (van der Waals Surface) (Alpha=1.000).
 Cavity algorithm     : GePol (No added spheres)
                        Default sphere list used, NSphG=   13.
                        Lebedev-Laikov grids with approx.  5.0 points / Ang**2.
                        Smoothing algorithm: York/Karplus (Gamma=1.0000).
                        Polarization charges: spherical gaussians, with
                                              point-specific exponents (IZeta= 3).
                        Self-potential: point-specific (ISelfS= 7).
                        Self-field    : sphere-specific E.n sum rule (ISelfD= 2).
 1st derivatives      : Analytical E(r).r(x)/FMM algorithm (CHGder, D1EAlg=3).
                        Cavity 1st derivative terms included.
 Solvent              : Water, Eps=  78.355300 Eps(inf)=   1.777849
 ------------------------------------------------------------------------------
 Spheres list:
 ISph  on   Nord     Re0    Alpha      Xe            Ye            Ze
    1   N      1    1.8900  1.000     -0.803284     -0.262890     -0.000351
    2   N      2    1.8900  1.000      0.599359     -0.139132      0.072207
    3   N      3    1.8900  1.000      1.241801     -1.343839      0.058913
    4   N      4    1.8900  1.000      0.224209     -2.225388     -0.036959
    5   C      5    1.8500  1.000     -0.936190     -1.596387     -0.066176
    6   C      6    1.8500  1.000      1.301703      1.003437     -0.017225
    7   O      7    1.5200  1.000      2.518302      0.829615      0.027045
    8   O      8    1.5200  1.000      0.649068      2.028527     -0.070849
    9   H      9    1.2000  1.000     -1.588096      0.431151     -0.009395
   10   H     10    1.2000  1.000     -1.900691     -2.072541     -0.137332
   11   O     11    1.5200  1.000     -3.238445      0.957056     -0.054937
   12   H     12    1.2000  1.000     -3.785333      0.573624      0.644467
   13   H     13    1.2000  1.000     -3.184951      1.902621      0.135922
 ------------------------------------------------------------------------------
 ------------------------------------------------------------------------------
 Atomic radii for non-electrostatic terms: SMD-CDS.
 ------------------------------------------------------------------------------
 Nuclear repulsion after PCM non-electrostatic terms =      452.3483630329 Hartrees.
 One-electron integrals computed using PRISM.
 NBasis=   191 RedAO= T EigKep=  2.17D-05  NBF=   191
 NBsUse=   191 1.00D-06 EigRej= -1.00D+00 NBFU=   191
 Initial guess from the checkpoint file:  "/scratch/gongke2021/sidanzuo-2/Gau-22501.chk"
 B after Tr=    -0.000000    0.000000   -0.000000
         Rot=    0.964544   -0.002758    0.000831    0.263907 Ang= -30.61 deg.
 Initial guess <Sx>= 0.0000 <Sy>= 0.0000 <Sz>= 0.5000 <S**2>= 0.7607 S= 0.5054
 ExpMin= 4.38D-02 ExpMax= 5.48D+03 ExpMxC= 8.25D+02 IAcc=2 IRadAn=         4 AccDes= 0.00D+00
 Harris functional with IExCor= 1009 and IRadAn=       4 diagonalized for initial guess.
 HarFok:  IExCor= 1009 AccDes= 0.00D+00 IRadAn=         4 IDoV= 1 UseB2=F ITyADJ=14
 ICtDFT=  3500011 ScaDFX=  1.000000  1.000000  1.000000  1.000000
 FoFCou: FMM=F IPFlag=           0 FMFlag=      100000 FMFlg1=           0
         NFxFlg=           0 DoJE=T BraDBF=F KetDBF=T FulRan=T
         wScrn=  0.000000 ICntrl=       500 IOpCl=  0 I1Cent=   200000004 NGrid=           0
         NMat0=    1 NMatS0=      1 NMatT0=    0 NMatD0=    1 NMtDS0=    0 NMtDT0=    0
 Petite list used in FoFCou.
 Requested convergence on RMS density matrix=1.00D-08 within 128 cycles.
 Requested convergence on MAX density matrix=1.00D-06.
 Requested convergence on             energy=1.00D-06.
 No special actions if energy rises.
 Inv3:  Mode=1 IEnd=     4057707.
 Iteration    1 A*A^-1 deviation from unit magnitude is 3.00D-15 for    193.
 Iteration    1 A*A^-1 deviation from orthogonality  is 1.55D-15 for    961    629.
 Iteration    1 A^-1*A deviation from unit magnitude is 3.00D-15 for    193.
 Iteration    1 A^-1*A deviation from orthogonality  is 2.78D-15 for   1128    603.
 Error on total polarization charges =  0.05244
 SCF Done:  E(UM062X) =  -523.194945473     A.U. after   18 cycles
            NFock= 18  Conv=0.90D-08     -V/T= 2.0075
 <Sx>= 0.0000 <Sy>= 0.0000 <Sz>= 0.5000 <S**2>= 0.7626 S= 0.5063
 <L.S>=  0.00000000000    
 SMD-CDS (non-electrostatic) energy       (kcal/mol) =       5.00
 (included in total energy above)
 Annihilation of the first spin contaminant:
 S**2 before annihilation     0.7626,   after     0.7501
 D1PCM: PCM CHGder 1st derivatives, ID1Alg=3 FixD1E=F DoIter=F DoCFld=F I1PDM=0.
 Calling FoFJK, ICntrl=      2127 FMM=F ISym2X=0 I1Cent= 0 IOpClX= 1 NMat=1 NMatS=1 NMatT=0.
 ***** Axes restored to original set *****
 -------------------------------------------------------------------
 Center     Atomic                   Forces (Hartrees/Bohr)
 Number     Number              X              Y              Z
 -------------------------------------------------------------------
      1        7           0.007600786   -0.028138309    0.001525929
      2        7           0.025892273    0.029378725   -0.005843976
      3        7           0.016730207    0.027738855    0.001124174
      4        7           0.018502324    0.010733938   -0.001187543
      5        6           0.011900802   -0.009743060    0.000258705
      6        6           0.000927686   -0.012732786   -0.006561017
      7        8          -0.020799721   -0.052036268    0.003421878
      8        8          -0.057231206    0.047117084    0.008137653
      9        1          -0.003665295   -0.012490369   -0.001088000
     10        1           0.002107090    0.000266994   -0.000093607
     11        8           0.000021046   -0.001622518    0.001828417
     12        1          -0.001275868   -0.000314642   -0.000542153
     13        1          -0.000710124    0.001842356   -0.000980459
 -------------------------------------------------------------------
 Cartesian Forces:  Max     0.057231206 RMS     0.018448493

 GradGradGradGradGradGradGradGradGradGradGradGradGradGradGradGradGradGrad
 Berny optimization.
 Using GEDIIS/GDIIS optimizer.
 FormGI is forming the generalized inverse of G from B-inverse, IUseBI=4.
 Internal  Forces:  Max     0.078594707 RMS     0.020243096
 Search for a local minimum.
 Step number   3 out of a maximum of   63
 All quantities printed in internal units (Hartrees-Bohrs-Radians)
 Mixed Optimization -- RFO/linear search
 Update second derivatives using D2CorX and points    1    3    2
 ITU=  0  1  0
 Use linear search instead of GDIIS.
     Eigenvalues ---    0.00230   0.00230   0.00233   0.00745   0.00776
     Eigenvalues ---    0.01624   0.01827   0.02405   0.02519   0.02628
     Eigenvalues ---    0.05357   0.07158   0.15212   0.15999   0.16000
     Eigenvalues ---    0.16002   0.22586   0.23041   0.24860   0.24998
     Eigenvalues ---    0.26461   0.36147   0.39260   0.40917   0.48566
     Eigenvalues ---    0.49929   0.51782   0.53901   0.53994   0.55961
     Eigenvalues ---    0.59816   0.63538   0.70163
 RFO step:  Lambda=-1.27936614D-02 EMin= 2.29998220D-03
 Quartic linear search produced a step of -0.48041.
 Iteration  1 RMS(Cart)=  0.11236338 RMS(Int)=  0.02001187
 Iteration  2 RMS(Cart)=  0.02253893 RMS(Int)=  0.00979867
 Iteration  3 RMS(Cart)=  0.00100404 RMS(Int)=  0.00973839
[...]
 ! R5    R(2,6)                  1.4325         -DE/DX =    0.0                 !
 ! R6    R(3,4)                  1.3502         -DE/DX =    0.0                 !
 ! R7    R(4,5)                  1.3048         -DE/DX =    0.0                 !
 ! R8    R(5,10)                 1.0794         -DE/DX =    0.0                 !
 ! R9    R(6,7)                  1.2469         -DE/DX =    0.0                 !
 ! R10   R(6,8)                  1.2586         -DE/DX =    0.0                 !
 ! R11   R(9,11)                 1.9382         -DE/DX =    0.0                 !
 ! R12   R(11,12)                0.9657         -DE/DX =    0.0                 !
 ! R13   R(11,13)                0.9792         -DE/DX =    0.0                 !
 ! A1    A(2,1,5)              103.382          -DE/DX =    0.0                 !
 ! A2    A(2,1,9)              116.7634         -DE/DX =    0.0                 !
 ! A3    A(5,1,9)              124.2321         -DE/DX =    0.0                 !
 ! A4    A(1,2,3)              109.0121         -DE/DX =    0.0                 !
 ! A5    A(1,2,6)              121.5617         -DE/DX =    0.0                 !
 ! A6    A(3,2,6)              123.1992         -DE/DX =    0.0                 !
 ! A7    A(2,3,4)              105.9021         -DE/DX =    0.0                 !
 ! A8    A(3,4,5)              109.2539         -DE/DX =    0.0                 !
 ! A9    A(1,5,4)              111.6557         -DE/DX =    0.0                 !
 ! A10   A(1,5,10)             122.5659         -DE/DX =    0.0                 !
 ! A11   A(4,5,10)             125.7335         -DE/DX =    0.0                 !
 ! A12   A(2,6,7)              115.9151         -DE/DX =    0.0                 !
 ! A13   A(2,6,8)              114.9401         -DE/DX =    0.0                 !
 ! A14   A(7,6,8)              129.0971         -DE/DX =    0.0                 !
 ! A15   A(9,11,12)            115.088          -DE/DX =    0.0                 !
 ! A16   A(9,11,13)             79.3481         -DE/DX =    0.0                 !
 ! A17   A(12,11,13)           105.8353         -DE/DX =    0.0                 !
 ! A18   L(1,9,11,6,-1)        154.3009         -DE/DX =    0.0                 !
 ! A19   L(1,9,11,6,-2)        172.6797         -DE/DX =    0.0                 !
 ! D1    D(5,1,2,3)              9.0192         -DE/DX =    0.0                 !
 ! D2    D(5,1,2,6)            162.0621         -DE/DX =    0.0                 !
 ! D3    D(9,1,2,3)            149.1586         -DE/DX =    0.0                 !
 ! D4    D(9,1,2,6)            -57.7985         -DE/DX =    0.0                 !
 ! D5    D(2,1,5,4)             -7.2877         -DE/DX =    0.0                 !
 ! D6    D(2,1,5,10)           175.0206         -DE/DX =    0.0                 !
 ! D7    D(9,1,5,4)           -143.4857         -DE/DX =    0.0                 !
 ! D8    D(9,1,5,10)            38.8227         -DE/DX =    0.0                 !
 ! D9    D(2,1,11,12)          -64.3187         -DE/DX =    0.0                 !
 ! D10   D(2,1,11,13)           33.7659         -DE/DX =    0.0                 !
 ! D11   D(5,1,11,12)           68.3704         -DE/DX =    0.0                 !
 ! D12   D(5,1,11,13)          166.455          -DE/DX =    0.0                 !
 ! D13   D(1,2,3,4)             -7.6638         -DE/DX =    0.0                 !
 ! D14   D(6,2,3,4)           -160.1725         -DE/DX =    0.0                 !
 ! D15   D(1,2,6,7)           -166.2666         -DE/DX =    0.0                 !
 ! D16   D(1,2,6,8)             16.0142         -DE/DX =    0.0                 !
 ! D17   D(3,2,6,7)            -17.077          -DE/DX =    0.0                 !
 ! D18   D(3,2,6,8)            165.2038         -DE/DX =    0.0                 !
 ! D19   D(2,3,4,5)              3.065          -DE/DX =    0.0                 !
 ! D20   D(3,4,5,1)              2.7932         -DE/DX =    0.0                 !
 ! D21   D(3,4,5,10)          -179.6035         -DE/DX =    0.0                 !
 --------------------------------------------------------------------------------
 GradGradGradGradGradGradGradGradGradGradGradGradGradGradGradGradGradGrad


 ----------------------------------------------------------------------

 Electric dipole moment (input orientation):
 (Debye = 10**-18 statcoulomb cm , SI units = C m)
                  (au)            (Debye)         (10**-30 SI)
   Tot        0.421134D+01      0.107041D+02      0.357052D+02
   x          0.248470D+01      0.631549D+01      0.210662D+02
   y          0.334942D+01      0.851338D+01      0.283976D+02
   z         -0.585639D+00     -0.148855D+01     -0.496526D+01

 Dipole polarizability, Alpha (input orientation).
 (esu units = cm**3 , SI units = C**2 m**2 J**-1)
 Alpha(0;0):
               (au)            (10**-24 esu)      (10**-40 SI)
   iso        0.100028D+03      0.148227D+02      0.164924D+02
   aniso      0.565804D+02      0.838436D+01      0.932885D+01
   xx         0.119991D+03      0.177809D+02      0.197839D+02
   yx         0.170328D+01      0.252400D+00      0.280833D+00
   yy         0.113766D+03      0.168584D+02      0.187575D+02
   zx        -0.164962D+01     -0.244448D+00     -0.271985D+00
   zy         0.141421D+02      0.209564D+01      0.233171D+01
   zz         0.663275D+02      0.982873D+01      0.109359D+02

 ----------------------------------------------------------------------

 Dipole orientation:
     7          1.29897361         -0.21930938          2.15811412
     7          0.58471709          0.86581381         -0.12542082
     7          2.27939938          2.74695820         -0.73791015
     7          3.79506880          3.01235567          1.29748609
     6          3.17677561          1.33522067          2.99584096
     6         -0.82103608         -0.52281460         -1.97575304
     8         -0.92597137          0.43885678         -4.12438374
     8         -1.85015271         -2.50992271         -1.16991669
     1         -0.12514090         -0.91357318          3.27914647
     1          4.05737612          1.10813485          4.82156069
     8         -3.26746472         -2.70810112          3.84514352
     1         -4.70379233         -1.65060794          4.23072973
     1         -3.16659907         -2.76907540          1.99852270

 Electric dipole moment (dipole orientation):
 (Debye = 10**-18 statcoulomb cm , SI units = C m)
                  (au)            (Debye)         (10**-30 SI)
   Tot        0.421134D+01      0.107041D+02      0.357052D+02
   x          0.000000D+00      0.000000D+00      0.000000D+00
   y          0.000000D+00      0.000000D+00      0.000000D+00
   z          0.421134D+01      0.107041D+02      0.357052D+02

 Dipole polarizability, Alpha (dipole orientation).
 (esu units = cm**3 , SI units = C**2 m**2 J**-1)
 Alpha(0;0):
               (au)            (10**-24 esu)      (10**-40 SI)
   iso        0.100028D+03      0.148227D+02      0.164924D+02
   aniso      0.565804D+02      0.838436D+01      0.932885D+01
   xx         0.910533D+02      0.134927D+02      0.150127D+02
   yx         0.246598D+02      0.365421D+01      0.406585D+01
   yy         0.952749D+02      0.141183D+02      0.157087D+02
   zx         0.140007D+02      0.207470D+01      0.230841D+01
   zy        -0.108250D+02     -0.160411D+01     -0.178481D+01
   zz         0.113757D+03      0.168570D+02      0.187559D+02

 ----------------------------------------------------------------------
 1\1\GINC-NODE7\Freq\UM062X\6-31+G(d,p)\C2H4N4O3(1-,2)\GONGKE2021\06-No
 v-2023\0\\#N Geom=AllCheck Guess=TCheck SCRF=Check GenChk UM062X/6-31+
 G(d,p) Freq\\Title Card Required\\-1,2\N,1.1033067814,0.6767199838,0.3
 390494112\N,0.3644483745,-0.383988369,-0.1726097817\N,1.2060339034,-1.
 4538599459,-0.3901525889\N,2.4563191424,-0.9900840986,-0.17841654\C,2.
 3937602116,0.2541401067,0.2094231374\C,-1.0325325593,-0.5295318548,0.1
 090907829\O,-1.5322845714,-1.6372459418,-0.1702981838\O,-1.5922850406,
 0.5015545487,0.5648032572\H,0.7786598936,1.6223565373,0.10411889\H,3.2
 378583814,0.8839998123,0.4455829587\O,-0.5905055862,2.9678662503,-0.16
 33490616\H,-0.7673741922,3.1944326019,-1.0852393598\H,-1.1432796486,2.
 1830323691,0.0296958285\\Version=ES64L-G16RevA.03\State=2-A\HF=-523.21
 92622\S2=0.762706\S2-1=0.\S2A=0.750055\RMSD=2.192e-09\RMSF=3.255e-05\Z
 eroPoint=0.0841909\Thermal=0.0935042\Dipole=2.4847033,3.3494212,-0.585
 6393\DipoleDeriv=-0.4313278,0.7055998,0.297999,0.2808474,-1.0707534,-0
 .2352616,0.0613488,-0.5553297,-0.3658366,-1.840289,0.0037763,0.0936599
 ,0.1427479,-0.0092969,0.1553801,0.3680302,0.1904061,-0.0991539,0.05720
 02,-0.6222402,-0.063111,-0.1162783,-0.3404294,-0.1074368,-0.0486495,-0
 .0454784,-0.2823992,-0.3877739,0.61261,0.1638435,-0.0248905,-0.1530878
 ,0.0042763,-0.0146625,0.0883161,-0.3127641,0.3423176,-0.5867919,-0.221
 0108,-0.2835433,0.4195707,0.2021263,-0.0056938,0.2525509,0.1640748,3.7
 745762,0.1418896,-0.3826121,0.293932,3.1614938,0.8032631,-0.5065458,0.
 840228,0.8896975,-1.5033505,-0.5806931,-0.1013742,-0.8142408,-2.021555
 9,-0.3211926,-0.1592578,-0.3672253,-0.7669039,-1.5340168,0.4913223,0.2
 525407,0.6644866,-2.0983524,-0.4159906,0.3798552,-0.4008581,-0.9002703
 ,0.4731222,-0.3430782,-0.0104853,-0.2519485,0.8342619,-0.0275717,-0.02
 27968,0.0866102,0.4555568,0.1379659,-0.0042819,-0.0018037,0.0196451,0.
 1710255,-0.0187782,-0.0209166,-0.0415991,0.2122928,-0.9367415,0.117537
 5,0.1068527,0.1292299,-1.2828119,0.0758522,0.0676264,0.1516649,-0.7498
 581,0.4167178,-0.0174539,-0.0614122,-0.0334359,0.4226636,-0.0274724,-0
 .0341769,-0.0154809,0.333808,0.4315995,0.0818037,-0.0730867,-0.0065515
 ,0.9672721,-0.0871941,-0.0641608,-0.1838046,0.421756\Polar=119.9913134
 ,1.703278,113.7660788,-1.6496154,14.1420672,66.3275393\Quadrupole=-3.5
 298461,-5.9398256,9.4696717,1.6103536,5.0131883,-7.3788598\PG=C01 [X(C
 2H4N4O3)]\NImag=0\\0.62038397,-0.15152132,0.78484078,0.07154631,0.0161
 8239,0.11626678,-0.14792058,-0.04635143,-0.05050026,0.74011485,-0.0637
 3624,-0.17957063,-0.05729442,0.03237193,0.52301172,-0.04449766,-0.0616
 1596,-0.05436402,0.00292698,0.14994779,0.10841130,0.01189937,0.0190030
 4,0.00907312,-0.13115725,0.07351485,0.01873267,0.39180601,0.01029544,-
 0.07755799,-0.02254662,0.01997382,-0.19379327,-0.04283033,0.04120758,0
 .42746497,0.00312069,-0.02437537,-0.01465515,-0.00533560,-0.02977816,-
 0.02990978,0.03109534,0.10718523,0.08996632,-0.05218590,0.03860547,0.0
 0965645,-0.10031301,0.03688138,0.00922147,-0.19475354,-0.00634240,-0.0
 1257432,0.41777783,0.06787087,-0.04875822,-0.02062511,0.00306818,-0.00
 155227,-0.00765099,-0.06641404,-0.11217083,-0.01938462,-0.07089920,0.5
 9766981,0.01626288,-0.02911155,0.02512738,-0.00750233,0.00026612,0.008
 58578,-0.03095072,-0.01615204,-0.06459293,0.00012946,0.15818360,0.1378
 8593,-0.30019195,0.05032063,-0.00343868,-0.09543081,-0.03881252,-0.016
 92013,-0.05077454,-0.06488687,-0.02146845,-0.07912831,0.05537123,0.015
 04791,0.77229928,0.06224931,-0.13666051,-0.00563721,-0.00424837,0.0000
 9785,0.00405452,-0.09548783,-0.06045806,-0.03156080,0.02656684,-0.4218
 4728,-0.10928223,0.13113428,0.78860793,0.02663607,-0.01373626,-0.04566
 350,-0.01190979,-0.00960152,-0.00354511,-0.03236548,-0.02410794,0.0168
 4802,0.00376885,-0.10468667,-0.10612101,0.07425967,0.20337933,0.196223
 07,-0.01712462,-0.00262421,0.01014959,-0.15610141,-0.01639562,-0.01343
 629,-0.02668877,0.01323974,0.01078121,0.01432545,0.00739634,0.00469912
 ,0.01472729,-0.00288277,-0.00224108,0.49066162,-0.02526038,-0.00367652
 ,0.00745662,-0.00218416,-0.09358176,-0.01873147,0.01787461,0.01386797,
 0.00077846,0.00878224,-0.00628347,-0.00142454,-0.00152369,-0.00654281,
 -0.00269066,0.01642217,0.84960070,-0.01841208,0.00318643,-0.00244486,0
 .02948278,-0.01338923,-0.05204599,0.00089243,-0.00061960,-0.00805063,-
 0.00432290,-0.00032494,0.00100974,-0.00173060,-0.00446634,-0.00270862,
 -0.03398472,0.21065704,0.29385837,-0.00735863,0.00110622,0.00208778,-0
 .05274497,-0.05538855,-0.00154304,0.00190179,-0.00298969,-0.00304360,-
 0.00265250,-0.00364705,-0.00059677,-0.00407008,-0.00320869,-0.00049739
 ,-0.15808933,-0.14373703,-0.03332505,0.19253760,-0.00456338,0.00072440
 ,-0.00328796,-0.04895978,-0.02822680,0.00557671,0.00684474,0.00337035,
 -0.00217968,-0.00437721,-0.00107061,-0.00094507,-0.00190474,-0.0002098
 5,0.00074201,-0.14937335,-0.41069709,-0.08495744,0.20044592,0.54004946
 ,0.00213233,-0.00349381,0.00121814,-0.00108726,-0.00015095,0.01953033,
 0.00182256,0.00169776,-0.00049957,-0.00035060,-0.00023951,-0.00003736,
 -0.00028002,0.00085794,0.00105887,-0.03853749,-0.08425544,-0.10300536,
 0.03746303,0.13105632,0.07031685,0.00219833,0.00173108,-0.00129111,-0.
 06207922,0.05068765,0.03601976,-0.00241362,-0.00970634,-0.00092254,-0.
 00679778,0.00222802,-0.00044666,-0.00184277,0.00114344,0.00238710,-0.1
 6615330,0.13216017,0.06389854,0.03235323,0.00268756,-0.00085845,0.2094
 8348,-0.00698373,0.00395314,0.00761234,0.03554001,-0.00671302,-0.02678
 829,0.00262691,-0.00003229,0.00085054,0.00199507,0.00261651,0.00064591
 ,0.00528812,-0.00186651,-0.00098198,0.13663557,-0.33038616,-0.10728051
 ,0.00480890,-0.11054961,-0.04737997,-0.17542538,0.45126033,-0.00252409
 ,0.00159189,0.00196113,0.02930083,-0.02133757,0.00015749,0.00180940,0.
 00334713,0.00420795,0.00277937,0.00015358,0.00009707,0.00213820,-0.001
 00320,0.00005598,0.06477855,-0.11309944,-0.12908206,-0.00031616,-0.045
 19722,0.01196830,-0.10115148,0.17080472,0.11455861,-0.08796864,0.09805
 081,-0.03817019,0.00947514,-0.02273674,0.00818092,-0.00265292,-0.00570
 094,-0.00278664,-0.00547479,0.00140611,0.00139476,-0.00227514,0.027519
 05,-0.00571855,0.00533320,-0.00382996,-0.00188638,-0.00173444,-0.00032
 368,-0.00021194,-0.00064537,0.00412190,0.00045321,0.09078429,0.0900881
 7,-0.34813805,0.07078589,0.00591671,-0.01851382,-0.00104981,-0.0013210
 6,0.00206849,0.00223940,-0.00583622,0.00545696,0.00302926,0.01117914,0
 .00118737,-0.00218772,-0.00690801,-0.00275006,0.00144329,0.00190362,0.
 00223755,0.00005478,0.00305918,-0.00192375,-0.00046633,-0.09370040,0.3
 5519665,-0.05737114,0.10535644,-0.02943625,0.01436279,-0.01742505,-0.0
 0056161,-0.00079711,-0.00206063,-0.00058187,-0.00162291,-0.00241446,0.
 00290855,0.00985656,-0.01039869,-0.00743685,-0.00077132,0.00039228,0.0
 0089153,-0.00028635,0.00012334,-0.00000452,-0.00071171,-0.00132512,-0.
 00096708,0.03613230,-0.07087850,0.03876165,-0.01492169,-0.01702799,-0.
 00705197,-0.00288584,0.00279683,0.00174448,0.00290531,0.00397661,0.000
 97279,0.00978310,0.00281795,0.00140023,-0.25545709,-0.14295348,-0.0535
 9477,0.00081914,-0.00056159,-0.00096783,-0.00067518,-0.00048671,0.0001
 2343,-0.00015688,0.00003087,0.00005126,-0.00003081,0.00004603,0.000088
 77,0.26067247,0.01081349,0.01309889,0.00518144,0.00615202,-0.00251585,
 -0.00253637,0.00199846,-0.00147336,-0.00324773,-0.02611202,-0.01268312
 ,-0.00435296,-0.14258343,-0.16164470,-0.04741824,-0.00162296,0.0005917
 2,0.00062302,0.00066412,0.00067298,0.00005807,0.00028837,-0.00019948,-
 0.00008597,-0.00090646,-0.00010838,0.00000949,0.15129366,0.16424882,0.
 00561380,0.00354909,0.00111837,0.00016755,-0.00110143,0.00419768,0.000
 68168,-0.00428658,0.00718546,-0.00652379,-0.00338075,-0.00497428,-0.05
 814768,-0.04635301,-0.04866420,0.00052656,0.00001513,0.00061731,-0.000
 20881,-0.00000645,-0.00022072,-0.00016121,0.00016239,-0.00001003,0.000
 80564,-0.00034142,-0.00058893,0.05725480,0.05176568,0.04133841,-0.0075
 9496,0.00810446,-0.00153587,0.00055255,-0.00150244,-0.00148480,0.00003
 344,0.00121912,0.00026686,-0.00106573,0.00138123,0.00078800,0.00368276
 ,0.00012252,-0.00106559,-0.00550280,0.00312553,0.00374852,0.00063633,-
 0.00129260,-0.00097247,0.00362976,-0.00990261,0.00058803,0.00333989,-0
 .00665733,0.00259171,-0.00008369,0.00002137,0.00001482,0.20406610,0.00
 890134,-0.00685789,0.00157823,0.00155759,0.00149602,-0.00004714,0.0001
 8058,-0.00077604,-0.00001301,0.00170000,-0.00130171,-0.00076961,-0.003
 34585,-0.00061249,0.00102787,-0.00507589,0.00932978,0.00576797,-0.0009
 1969,-0.00536039,-0.00253933,-0.00116812,-0.02223415,0.00430638,-0.005
 48340,0.00295311,-0.00176794,0.00012201,-0.00006537,-0.00000204,0.2095
 3692,0.36821439,-0.00275761,0.00290574,0.00103811,-0.00099921,0.000379
 30,-0.00012589,-0.00005606,0.00026673,0.00004322,-0.00047299,0.0004833
 9,0.00008975,0.00077612,0.00037956,0.00010329,0.00238512,-0.00266008,-
 0.00187588,0.00012162,0.00204838,0.00091517,0.00042925,0.00915974,0.00
 102931,0.00273519,-0.00319959,-0.00408936,-0.00003688,0.00002496,-0.00
 001282,0.06204943,-0.18612383,0.54415496,-0.00080425,0.00097706,0.0002
 0849,-0.00006440,0.00002212,-0.00010836,-0.00002340,0.00012694,0.00004
 055,-0.00007056,0.00014149,0.00005006,0.00026341,0.00009574,-0.0000079
 0,-0.00052181,0.00021281,0.00020156,0.00005736,-0.00018960,-0.00012865
 ,0.00009492,-0.00137322,-0.00007027,0.00100337,-0.00138028,-0.00121480
 ,-0.00001184,0.00000600,-0.00000458,-0.03851114,0.01110914,-0.11242296
 ,0.03425530,0.00052285,-0.00025302,-0.00005744,0.00011199,-0.00003331,
 -0.00001066,0.00000895,-0.00000487,-0.00000994,0.00005238,-0.00005448,
 -0.00000888,-0.00004609,-0.00010208,-0.00002590,-0.00045409,0.00025598
 ,0.00027462,0.00003303,-0.00028799,-0.00015130,-0.00044611,-0.00171677
 ,-0.00020164,-0.00029993,-0.00021482,0.00084323,0.00000483,-0.00000153
 ,0.00000153,-0.00383599,-0.05064915,0.09448309,-0.00420494,0.05912486,
 0.00082422,-0.00107643,0.00011037,0.00005860,0.00022510,0.00003306,0.0
 0000091,-0.00009199,-0.00001206,0.00014161,-0.00014001,-0.00007004,-0.
 00029577,-0.00001549,0.00006010,0.00001844,0.00055050,0.00022337,-0.00
 011589,-0.00029226,-0.00013453,-0.00019629,-0.00092721,0.00029308,-0.0
 0154352,0.00165121,-0.00030187,0.00000811,-0.00000616,0.00000225,-0.08
 239284,0.13197262,-0.48545947,0.08868339,-0.12918888,0.49408569,0.0015
 8954,-0.00037383,-0.00073364,-0.00144506,0.00229734,0.00116401,-0.0000
 8188,-0.00041300,-0.00014629,0.00055575,-0.00072114,-0.00027594,-0.001
 80204,-0.00005004,0.00034887,0.00431534,-0.00148074,-0.00359427,-0.000
 16117,0.00149284,0.00088552,-0.00767078,0.00263760,0.00216316,-0.00915
 379,0.00361046,-0.00025680,0.00004299,-0.00001262,-0.00001879,-0.16318
 251,-0.21711463,0.04824898,0.00433304,0.00855312,-0.00519097,0.1726605
 7,0.00132359,-0.00114438,0.00065186,-0.00294852,-0.00010484,0.00168199
 ,-0.00003679,-0.00050507,-0.00050431,-0.00101633,-0.00002129,-0.000078
 02,-0.00019021,0.00005113,0.00028768,0.01164308,-0.01972827,-0.0109143
 2,0.00092890,0.00934758,0.00448544,-0.00723952,0.01779175,0.00118765,0
 .00188365,0.00254875,-0.00045438,-0.00005904,0.00007940,-0.00002213,-0
 .20032019,-0.29413610,0.08185261,-0.00554326,-0.00606282,-0.00266101,0
 .20157464,0.29188417,-0.00057373,0.00063741,-0.00027649,0.00103492,-0.
 00073998,-0.00036322,0.00006127,0.00019886,0.00005102,0.00017030,0.000
 02647,0.00009142,0.00020288,0.00004562,-0.00021002,-0.00436767,0.00301
 160,0.00261306,0.00026063,-0.00268069,-0.00110559,0.00300481,-0.004552
 56,-0.00426973,0.00061519,-0.00108045,0.00140660,0.00000759,-0.0000152
 3,0.00001149,0.01740420,0.04660983,-0.05581039,0.02477347,0.03405216,-
 0.00882995,-0.04259385,-0.07551305,0.06669181\\-0.00000048,0.00001138,
 0.00001100,0.00004718,-0.00010870,-0.00002283,-0.00010195,0.00007320,0
 .00001086,0.00003944,0.00000865,-0.00000948,0.00000077,-0.00001813,-0.
 00001042,-0.00000994,0.00002931,0.00002770,0.00000866,0.00000707,0.000
 00343,0.00001535,-0.00004173,-0.00000039,-0.00000732,0.00004364,-0.000
 01089,0.00000380,-0.00000190,-0.00001271,0.00003879,0.00000250,0.00001
 544,-0.00001893,0.00000002,0.00000013,-0.00001536,-0.00000533,-0.00000
 185\\\@


 THE RED LIGHT IS ALWAYS LONGER THAN THE GREEN LIGHT.

                     -- PETER'S THEORY OF RELATIVITY
 Job cpu time:       0 days  0 hours 55 minutes 10.1 seconds.
 Elapsed time:       0 days  0 hours  2 minutes 18.7 seconds.
 File lengths (MBytes):  RWF=    139 Int=      0 D2E=      0 Chk=      9 Scr=      1
 Normal termination of Gaussian 16 at Mon Nov  6 18:40:44 2023.
