 Entering Gaussian System, Link 0=/opt/soft/g16b/g16/g16
 Initial command:
 /opt/soft/g16b/g16/l1.exe "/scratch/gongke2021/1-H-Tz-2-eletron/Gau-22669.inp" -scrdir="/scratch/gongke2021/1-H-Tz-2-eletron/"
 Entering Link 1 = /opt/soft/g16b/g16/l1.exe PID=     22670.
  
 Copyright (c) 1988,1990,1992,1993,1995,1998,2003,2009,2016,
            Gaussian, Inc.  All Rights Reserved.
  
 This is part of the Gaussian(R) 16 program.  It is based on
 the Gaussian(R) 09 system (copyright 2009, Gaussian, Inc.),
 the Gaussian(R) 03 system (copyright 2003, Gaussian, Inc.),
 the Gaussian(R) 98 system (copyright 1998, Gaussian, Inc.),
 the Gaussian(R) 94 system (copyright 1995, Gaussian, Inc.),
 the Gaussian 92(TM) system (copyright 1992, Gaussian, Inc.),
 the Gaussian 90(TM) system (copyright 1990, Gaussian, Inc.),
 the Gaussian 88(TM) system (copyright 1988, Gaussian, Inc.),
 the Gaussian 86(TM) system (copyright 1986, Carnegie Mellon
 University), and the Gaussian 82(TM) system (copyright 1983,
 Carnegie Mellon University). Gaussian is a federally registered
 trademark of Gaussian, Inc.
  
 This software contains proprietary and confidential information,
 including trade secrets, belonging to Gaussian, Inc.
  
 This software is provided under written license and may be
 used, copied, transmitted, or stored only in accord with that
 written license.
  
 The following legend is applicable only to US Government
 contracts under FAR:
  
                    RESTRICTED RIGHTS LEGEND
  
 Use, reproduction and disclosure by the US Government is
 subject to restrictions as set forth in subparagraphs (a)
 and (c) of the Commercial Computer Software - Restricted
 Rights clause in FAR 52.227-19.
  
 Gaussian, Inc.
 340 Quinnipiac St., Bldg. 40, Wallingford CT 06492
  
  
 ---------------------------------------------------------------
 Warning -- This program may not be used in any manner that
 competes with the business of Gaussian, Inc. or will provide
 assistance to any competitor of Gaussian, Inc.  The licensee
 of this program is prohibited from giving any competitor of
 Gaussian, Inc. access to this program.  By using this program,
 the user acknowledges that Gaussian, Inc. is engaged in the
 business of creating and licensing software in the field of
 computational chemistry and represents and warrants to the
 licensee that it is not a competitor of Gaussian, Inc. and that
 it will not use this program in any manner prohibited above.
 ---------------------------------------------------------------
  

 Cite this work as:
 Gaussian 16, Revision A.03,
 M. J. Frisch, G. W. Trucks, H. B. Schlegel, G. E. Scuseria, 
 M. A. Robb, J. R. Cheeseman, G. Scalmani, V. Barone, 
 G. A. Petersson, H. Nakatsuji, X. Li, M. Caricato, A. V. Marenich, 
 J. Bloino, B. G. Janesko, R. Gomperts, B. Mennucci, H. P. Hratchian, 
 J. V. Ortiz, A. F. Izmaylov, J. L. Sonnenberg, D. Williams-Young, 
 F. Ding, F. Lipparini, F. Egidi, J. Goings, B. Peng, A. Petrone, 
 T. Henderson, D. Ranasinghe, V. G. Zakrzewski, J. Gao, N. Rega, 
 G. Zheng, W. Liang, M. Hada, M. Ehara, K. Toyota, R. Fukuda, 
 J. Hasegawa, M. Ishida, T. Nakajima, Y. Honda, O. Kitao, H. Nakai, 
 T. Vreven, K. Throssell, J. A. Montgomery, Jr., J. E. Peralta, 
 F. Ogliaro, M. J. Bearpark, J. J. Heyd, E. N. Brothers, K. N. Kudin, 
 V. N. Staroverov, T. A. Keith, R. Kobayashi, J. Normand, 
 K. Raghavachari, A. P. Rendell, J. C. Burant, S. S. Iyengar, 
 J. Tomasi, M. Cossi, J. M. Millam, M. Klene, C. Adamo, R. Cammi, 
 J. W. Ochterski, R. L. Martin, K. Morokuma, O. Farkas, 
 J. B. Foresman, and D. J. Fox, Gaussian, Inc., Wallingford CT, 2016.
 
 ******************************************
 Gaussian 16:  ES64L-G16RevA.03 25-Dec-2016
                23-Jul-2023 
 ******************************************
 %mem=10GB
 %nprocshared=20
 Will use up to   20 processors via shared memory.
 -----------------------------------------------------
 # opt freq 6-31+g(d,p) m062x scrf=(SMD,solvent=water)
 -----------------------------------------------------
 1/18=20,19=15,26=3,38=1/1,3;
 2/9=110,12=2,17=6,18=5,40=1/2;
 3/5=1,6=6,7=111,11=2,25=1,30=1,70=32201,71=1,72=1,74=-55/1,2,3;
 4//1;
 5/5=2,38=5,53=1/2;
 6/7=2,8=2,9=2,10=2,28=1/1;
 7//1,2,3,16;
 1/18=20,19=15,26=3/3(2);
 2/9=110/2;
 99//99;
 2/9=110/2;
 3/5=1,6=6,7=111,11=2,25=1,30=1,70=32205,71=1,72=1,74=-55/1,2,3;
 4/5=5,16=3,69=1/1;
 5/5=2,38=5,53=1/2;
 7//1,2,3,16;
 1/18=20,19=15,26=3/3(-5);
 2/9=110/2;
 6/7=2,8=2,9=2,10=2,19=2,28=1/1;
 99/9=1/99;
 ----------
 "Sketch 2"
 ----------
 Symbolic Z-matrix:
 Charge = -2 Multiplicity = 1
 N                    -0.01306  -0.12293  -0.00023 
 N                     0.68613   1.13815  -0.00019 
 C                     2.00566   0.71914   0.00005 
 C                     2.07436  -0.66093   0.00027 
 N                     0.84225  -1.25537  -0.00006 
 H                     2.8154    1.44041   0.00011 
 H                     2.96769  -1.27919   0.00061 
 H                    -1.04104   1.71626   0.00041 
 C                    -1.33675  -0.14052  -0.00012 
 O                    -1.85183   1.15971   0.00026 
 O                    -2.12428  -1.12254  -0.00013 
 

 GradGradGradGradGradGradGradGradGradGradGradGradGradGradGradGradGradGrad
 Berny optimization.
 Initialization pass.
                           ----------------------------
                           !    Initial Parameters    !
                           ! (Angstroms and Degrees)  !
 --------------------------                            --------------------------
 ! Name  Definition              Value          Derivative Info.                !
 --------------------------------------------------------------------------------
 ! R1    R(1,2)                  1.4419         estimate D2E/DX2                !
 ! R2    R(1,5)                  1.4191         estimate D2E/DX2                !
 ! R3    R(1,9)                  1.3238         estimate D2E/DX2                !
 ! R4    R(2,3)                  1.3845         estimate D2E/DX2                !
 ! R5    R(3,4)                  1.3818         estimate D2E/DX2                !
 ! R6    R(3,6)                  1.0844         estimate D2E/DX2                !
 ! R7    R(4,5)                  1.368          estimate D2E/DX2                !
 ! R8    R(4,7)                  1.0864         estimate D2E/DX2                !
 ! R9    R(8,10)                 0.9834         estimate D2E/DX2                !
 ! R10   R(9,10)                 1.3985         estimate D2E/DX2                !
 ! R11   R(9,11)                 1.2588         estimate D2E/DX2                !
 ! A1    A(2,1,5)              113.9318         estimate D2E/DX2                !
 ! A2    A(2,1,9)              119.7669         estimate D2E/DX2                !
 ! A3    A(5,1,9)              126.3013         estimate D2E/DX2                !
 ! A4    A(1,2,3)              101.3886         estimate D2E/DX2                !
 ! A5    A(2,3,4)              110.4668         estimate D2E/DX2                !
 ! A6    A(2,3,6)              120.6905         estimate D2E/DX2                !
 ! A7    A(4,3,6)              128.8427         estimate D2E/DX2                !
 ! A8    A(3,4,5)              112.9054         estimate D2E/DX2                !
 ! A9    A(3,4,7)              127.5365         estimate D2E/DX2                !
 ! A10   A(5,4,7)              119.5581         estimate D2E/DX2                !
 ! A11   A(1,5,4)              101.3074         estimate D2E/DX2                !
 ! A12   A(1,9,10)             110.8497         estimate D2E/DX2                !
 ! A13   A(1,9,11)             129.4892         estimate D2E/DX2                !
 ! A14   A(10,9,11)            119.6611         estimate D2E/DX2                !
 ! A15   A(8,10,9)             102.8562         estimate D2E/DX2                !
 ! D1    D(5,1,2,3)             -0.001          estimate D2E/DX2                !
 ! D2    D(9,1,2,3)            179.9839         estimate D2E/DX2                !
 ! D3    D(2,1,5,4)              0.0074         estimate D2E/DX2                !
 ! D4    D(9,1,5,4)           -179.9763         estimate D2E/DX2                !
 ! D5    D(2,1,9,10)            -0.0098         estimate D2E/DX2                !
 ! D6    D(2,1,9,11)           180.0            estimate D2E/DX2                !
 ! D7    D(5,1,9,10)           179.973          estimate D2E/DX2                !
 ! D8    D(5,1,9,11)            -0.0172         estimate D2E/DX2                !
 ! D9    D(1,2,3,4)             -0.0061         estimate D2E/DX2                !
 ! D10   D(1,2,3,6)            179.998          estimate D2E/DX2                !
 ! D11   D(2,3,4,5)              0.0118         estimate D2E/DX2                !
 ! D12   D(2,3,4,7)           -179.9915         estimate D2E/DX2                !
 ! D13   D(6,3,4,5)           -179.9927         estimate D2E/DX2                !
 ! D14   D(6,3,4,7)              0.0039         estimate D2E/DX2                !
 ! D15   D(3,4,5,1)             -0.0113         estimate D2E/DX2                !
 ! D16   D(7,4,5,1)            179.9918         estimate D2E/DX2                !
 ! D17   D(1,9,10,8)            -0.0045         estimate D2E/DX2                !
 ! D18   D(11,9,10,8)          179.9868         estimate D2E/DX2                !
 --------------------------------------------------------------------------------
 Trust Radius=3.00D-01 FncErr=1.00D-07 GrdErr=1.00D-06 EigMax=2.50D+02 EigMin=1.00D-04
 Number of steps in this run=     54 maximum allowed number of steps=    100.
 GradGradGradGradGradGradGradGradGradGradGradGradGradGradGradGradGradGrad

                          Input orientation:                          
 ---------------------------------------------------------------------
 Center     Atomic      Atomic             Coordinates (Angstroms)
 Number     Number       Type             X           Y           Z
 ---------------------------------------------------------------------
      1          7           0       -0.013059   -0.122925   -0.000231
      2          7           0        0.686125    1.138153   -0.000185
      3          6           0        2.005661    0.719144    0.000049
      4          6           0        2.074363   -0.660926    0.000270
      5          7           0        0.842245   -1.255370   -0.000057
      6          1           0        2.815400    1.440408    0.000109
      7          1           0        2.967691   -1.279186    0.000607
      8          1           0       -1.041045    1.716264    0.000405
      9          6           0       -1.336746   -0.140517   -0.000119
     10          8           0       -1.851833    1.159706    0.000259
     11          8           0       -2.124279   -1.122543   -0.000134
 ---------------------------------------------------------------------
                    Distance matrix (angstroms):
                    1          2          3          4          5
     1  N    0.000000
     2  N    1.441935   0.000000
     3  C    2.187307   1.384465   0.000000
     4  C    2.155638   2.272419   1.381779   0.000000
     5  N    1.419146   2.398609   2.291777   1.368020   0.000000
     6  H    3.231747   2.150621   1.084389   2.228170   3.340742
     7  H    3.197157   3.324014   2.217842   1.086407   2.125580
     8  H    2.106982   1.821354   3.205724   3.918775   3.518152
     9  C    1.323804   2.393116   3.451188   3.450578   2.447631
    10  O    2.241926   2.538050   3.882571   4.327784   3.618100
    11  O    2.335912   3.606815   4.521970   4.223942   2.969496
                    6          7          8          9         10
     6  H    0.000000
     7  H    2.723855   0.000000
     8  H    3.866299   5.004267   0.000000
     9  C    4.442931   4.452499   1.880180   0.000000
    10  O    4.675667   5.401482   0.983430   1.398533   0.000000
    11  O    5.564993   5.094379   3.038457   1.258802   2.298453
                   11
    11  O    0.000000
 Stoichiometry    C3H3N3O2(2-)
 Framework group  C1[X(C3H3N3O2)]
 Deg. of freedom    27
 Full point group                 C1      NOp   1
 Largest Abelian subgroup         C1      NOp   1
 Largest concise Abelian subgroup C1      NOp   1
                         Standard orientation:                         
 ---------------------------------------------------------------------
 Center     Atomic      Atomic             Coordinates (Angstroms)
 Number     Number       Type             X           Y           Z
 ---------------------------------------------------------------------
      1          7           0       -0.013059   -0.122925   -0.000231
      2          7           0        0.686125    1.138153   -0.000185
      3          6           0        2.005661    0.719144    0.000049
      4          6           0        2.074363   -0.660926    0.000270
      5          7           0        0.842245   -1.255370   -0.000057
      6          1           0        2.815400    1.440408    0.000109
      7          1           0        2.967691   -1.279186    0.000607
      8          1           0       -1.041045    1.716264    0.000405
      9          6           0       -1.336746   -0.140517   -0.000119
     10          8           0       -1.851833    1.159706    0.000259
     11          8           0       -2.124279   -1.122543   -0.000134
 ---------------------------------------------------------------------
 Rotational constants (GHZ):           5.0317571           1.7877994           1.3191140
 Standard basis: 6-31+G(d,p) (6D, 7F)
 There are   167 symmetry adapted cartesian basis functions of A   symmetry.
 There are   167 symmetry adapted basis functions of A   symmetry.
   167 basis functions,   277 primitive gaussians,   167 cartesian basis functions
    30 alpha electrons       30 beta electrons
       nuclear repulsion energy       356.2597406475 Hartrees.
 NAtoms=   11 NActive=   11 NUniq=   11 SFac= 1.00D+00 NAtFMM=   60 NAOKFM=F Big=F
 Integral buffers will be    131072 words long.
 Raffenetti 2 integral format.
 Two-electron integral symmetry is turned on.
 ------------------------------------------------------------------------------
 Polarizable Continuum Model (PCM)
 =================================
 Model                : PCM.
 Atomic radii         : SMD-Coulomb.
 Polarization charges : Total charges.
 Charge compensation  : None.
 Solution method      : On-the-fly selection.
 Cavity type          : VdW (van der Waals Surface) (Alpha=1.000).
 Cavity algorithm     : GePol (No added spheres)
                        Default sphere list used, NSphG=   11.
                        Lebedev-Laikov grids with approx.  5.0 points / Ang**2.
                        Smoothing algorithm: York/Karplus (Gamma=1.0000).
                        Polarization charges: spherical gaussians, with
                                              point-specific exponents (IZeta= 3).
                        Self-potential: point-specific (ISelfS= 7).
                        Self-field    : sphere-specific E.n sum rule (ISelfD= 2).
 1st derivatives      : Analytical E(r).r(x)/FMM algorithm (CHGder, D1EAlg=3).
                        Cavity 1st derivative terms included.
 Solvent              : Water, Eps=  78.355300 Eps(inf)=   1.777849
 ------------------------------------------------------------------------------
 Spheres list:
 ISph  on   Nord     Re0    Alpha      Xe            Ye            Ze
    1   N      1    1.8900  1.000     -0.013059     -0.122925     -0.000231
    2   N      2    1.8900  1.000      0.686125      1.138153     -0.000185
    3   C      3    1.8500  1.000      2.005661      0.719144      0.000049
    4   C      4    1.8500  1.000      2.074363     -0.660926      0.000270
    5   N      5    1.8900  1.000      0.842245     -1.255370     -0.000057
    6   H      6    1.2000  1.000      2.815400      1.440408      0.000109
    7   H      7    1.2000  1.000      2.967691     -1.279186      0.000607
    8   H      8    1.2000  1.000     -1.041045      1.716264      0.000405
    9   C      9    1.8500  1.000     -1.336746     -0.140517     -0.000119
   10   O     10    1.5200  1.000     -1.851833      1.159706      0.000259
   11   O     11    1.5200  1.000     -2.124279     -1.122543     -0.000134
 ------------------------------------------------------------------------------
 ------------------------------------------------------------------------------
 Atomic radii for non-electrostatic terms: SMD-CDS.
 ------------------------------------------------------------------------------
 Nuclear repulsion after PCM non-electrostatic terms =      356.2645028373 Hartrees.
 One-electron integrals computed using PRISM.
 NBasis=   167 RedAO= T EigKep=  2.95D-05  NBF=   167
 NBsUse=   167 1.00D-06 EigRej= -1.00D+00 NBFU=   167
 ExpMin= 4.38D-02 ExpMax= 5.48D+03 ExpMxC= 8.25D+02 IAcc=3 IRadAn=         5 AccDes= 0.00D+00
 Harris functional with IExCor= 1009 and IRadAn=       5 diagonalized for initial guess.
 HarFok:  IExCor= 1009 AccDes= 0.00D+00 IRadAn=         5 IDoV= 1 UseB2=F ITyADJ=14
 ICtDFT=  3500011 ScaDFX=  1.000000  1.000000  1.000000  1.000000
 FoFCou: FMM=F IPFlag=           0 FMFlag=      100000 FMFlg1=           0
         NFxFlg=           0 DoJE=T BraDBF=F KetDBF=T FulRan=T
         wScrn=  0.000000 ICntrl=       500 IOpCl=  0 I1Cent=   200000004 NGrid=           0
         NMat0=    1 NMatS0=      1 NMatT0=    0 NMatD0=    1 NMtDS0=    0 NMtDT0=    0
 Petite list used in FoFCou.
 Keep R1 ints in memory in canonical form, NReq=118249495.
 Requested convergence on RMS density matrix=1.00D-08 within 128 cycles.
 Requested convergence on MAX density matrix=1.00D-06.
 Requested convergence on             energy=1.00D-06.
 No special actions if energy rises.
 Inv3:  Mode=1 IEnd=     3060300.
 Iteration    1 A*A^-1 deviation from unit magnitude is 2.89D-15 for    998.
 Iteration    1 A*A^-1 deviation from orthogonality  is 1.23D-15 for    998    493.
 Iteration    1 A^-1*A deviation from unit magnitude is 2.89D-15 for    998.
 Iteration    1 A^-1*A deviation from orthogonality  is 1.17D-15 for    956    441.
 Error on total polarization charges =  0.07848
 SCF Done:  E(RM062X) =  -430.814913127     A.U. after   16 cycles
            NFock= 16  Conv=0.27D-08     -V/T= 2.0085
 SMD-CDS (non-electrostatic) energy       (kcal/mol) =       2.99
 (included in total energy above)

 **********************************************************************

            Population analysis using the SCF density.

 **********************************************************************

 Orbital symmetries:
       Occupied  (A) (A) (A) (A) (A) (A) (A) (A) (A) (A) (A) (A)
                 (A) (A) (A) (A) (A) (A) (A) (A) (A) (A) (A) (A)
                 (A) (A) (A) (A) (A) (A)
       Virtual   (A) (A) (A) (A) (A) (A) (A) (A) (A) (A) (A) (A)
                 (A) (A) (A) (A) (A) (A) (A) (A) (A) (A) (A) (A)
                 (A) (A) (A) (A) (A) (A) (A) (A) (A) (A) (A) (A)
                 (A) (A) (A) (A) (A) (A) (A) (A) (A) (A) (A) (A)
                 (A) (A) (A) (A) (A) (A) (A) (A) (A) (A) (A) (A)
                 (A) (A) (A) (A) (A) (A) (A) (A) (A) (A) (A) (A)
                 (A) (A) (A) (A) (A) (A) (A) (A) (A) (A) (A) (A)
                 (A) (A) (A) (A) (A) (A) (A) (A) (A) (A) (A) (A)
                 (A) (A) (A) (A) (A) (A) (A) (A) (A) (A) (A) (A)
                 (A) (A) (A) (A) (A) (A) (A) (A) (A) (A) (A) (A)
                 (A) (A) (A) (A) (A) (A) (A) (A) (A) (A) (A) (A)
                 (A) (A) (A) (A) (A)
 The electronic state is 1-A.
 Alpha  occ. eigenvalues --  -19.64559 -19.58831 -14.81203 -14.71440 -14.71249
 Alpha  occ. eigenvalues --  -10.63744 -10.52198 -10.52053  -1.18521  -1.09538
 Alpha  occ. eigenvalues --   -1.08304  -0.89749  -0.88955  -0.71189  -0.63037
 Alpha  occ. eigenvalues --   -0.62666  -0.56562  -0.51916  -0.50287  -0.48681
 Alpha  occ. eigenvalues --   -0.46031  -0.43265  -0.42743  -0.36737  -0.34871
 Alpha  occ. eigenvalues --   -0.33907  -0.30958  -0.29677  -0.28979  -0.11164
 Alpha virt. eigenvalues --    0.02955   0.04714   0.05005   0.05879   0.07310
 Alpha virt. eigenvalues --    0.07370   0.09289   0.09557   0.10574   0.11505
 Alpha virt. eigenvalues --    0.12221   0.13951   0.15177   0.15923   0.16884
 Alpha virt. eigenvalues --    0.20310   0.20785   0.21636   0.22112   0.22313
 Alpha virt. eigenvalues --    0.23707   0.24005   0.24523   0.26286   0.27298
 Alpha virt. eigenvalues --    0.28038   0.28102   0.28962   0.29837   0.30144
 Alpha virt. eigenvalues --    0.30803   0.31496   0.33594   0.34949   0.35196
 Alpha virt. eigenvalues --    0.37431   0.39565   0.41178   0.42071   0.43464
 Alpha virt. eigenvalues --    0.48668   0.49550   0.54641   0.58235   0.67006
 Alpha virt. eigenvalues --    0.73518   0.75751   0.79896   0.82966   0.85115
 Alpha virt. eigenvalues --    0.86673   0.94078   0.94502   0.99069   1.00668
 Alpha virt. eigenvalues --    1.00968   1.02977   1.06221   1.07466   1.09664
 Alpha virt. eigenvalues --    1.10158   1.15251   1.16862   1.21757   1.22795
 Alpha virt. eigenvalues --    1.24660   1.25364   1.31860   1.33338   1.36214
 Alpha virt. eigenvalues --    1.37742   1.38988   1.39033   1.40214   1.43197
 Alpha virt. eigenvalues --    1.44831   1.45875   1.47871   1.49273   1.51556
 Alpha virt. eigenvalues --    1.53153   1.61582   1.61811   1.65556   1.66562
 Alpha virt. eigenvalues --    1.71054   1.87152   1.87826   1.88658   1.92043
 Alpha virt. eigenvalues --    1.97116   1.99271   2.01496   2.03133   2.05211
 Alpha virt. eigenvalues --    2.05781   2.11133   2.14179   2.19205   2.26540
 Alpha virt. eigenvalues --    2.27130   2.32416   2.34602   2.34621   2.48387
 Alpha virt. eigenvalues --    2.48461   2.51310   2.56028   2.56101   2.58268
 Alpha virt. eigenvalues --    2.62477   2.67845   2.67980   2.74790   2.75101
 Alpha virt. eigenvalues --    2.77991   2.82625   2.83348   2.89526   3.00139
 Alpha virt. eigenvalues --    3.03037   3.05707   3.14159   3.18019   3.26458
 Alpha virt. eigenvalues --    3.32257   3.36065   3.61239   3.75261   4.06945
 Alpha virt. eigenvalues --    4.27518   4.32843   4.35208   4.47264   4.58397
 Alpha virt. eigenvalues --    4.68802   4.75616
          Condensed to atoms (all electrons):
               1          2          3          4          5          6
     1  N    7.151171  -0.210324   0.090161   0.094156  -0.336449   0.002468
     2  N   -0.210324   8.220029   0.001778  -0.246006   0.079221  -0.046305
     3  C    0.090161   0.001778   5.694711   0.354003  -0.236146   0.397577
     4  C    0.094156  -0.246006   0.354003   5.706406  -0.055370  -0.033788
     5  N   -0.336449   0.079221  -0.236146  -0.055370   8.421311   0.005170
     6  H    0.002468  -0.046305   0.397577  -0.033788   0.005170   0.515999
     7  H    0.001653   0.003312  -0.035724   0.400070  -0.049482   0.000178
     8  H   -0.035053   0.083413   0.002591  -0.000915  -0.006283  -0.000034
     9  C    0.486700  -0.088120   0.000503   0.011343  -0.145864  -0.000091
    10  O   -0.131516  -0.083422   0.007645  -0.013891   0.038837  -0.000072
    11  O   -0.163716   0.048651  -0.010443  -0.001945  -0.008185  -0.000002
               7          8          9         10         11
     1  N    0.001653  -0.035053   0.486700  -0.131516  -0.163716
     2  N    0.003312   0.083413  -0.088120  -0.083422   0.048651
     3  C   -0.035724   0.002591   0.000503   0.007645  -0.010443
     4  C    0.400070  -0.000915   0.011343  -0.013891  -0.001945
     5  N   -0.049482  -0.006283  -0.145864   0.038837  -0.008185
     6  H    0.000178  -0.000034  -0.000091  -0.000072  -0.000002
     7  H    0.527739  -0.000006  -0.000499   0.000046  -0.000051
     8  H   -0.000006   0.290146  -0.005901   0.233317   0.007847
     9  C   -0.000499  -0.005901   4.597439   0.169905   0.288252
    10  O    0.000046   0.233317   0.169905   8.486583  -0.065341
    11  O   -0.000051   0.007847   0.288252  -0.065341   8.792761
 Mulliken charges:
               1
     1  N    0.050750
     2  N   -0.762227
     3  C   -0.266657
     4  C   -0.214062
     5  N   -0.706759
     6  H    0.158899
     7  H    0.152764
     8  H    0.430878
     9  C    0.686334
    10  O   -0.642091
    11  O   -0.887829
 Sum of Mulliken charges =  -2.00000
 Mulliken charges with hydrogens summed into heavy atoms:
               1
     1  N    0.050750
     2  N   -0.762227
     3  C   -0.107758
     4  C   -0.061298
     5  N   -0.706759
     9  C    0.686334
    10  O   -0.211213
    11  O   -0.887829
 Electronic spatial extent (au):  <R**2>=            880.9154
 Charge=             -2.0000 electrons
 Dipole moment (field-independent basis, Debye):
    X=              4.6481    Y=              4.3939    Z=              0.0012  Tot=              6.3962
 Quadrupole moment (field-independent basis, Debye-Ang):
   XX=            -79.9144   YY=            -69.5268   ZZ=            -56.3632
   XY=             -4.9264   XZ=              0.0016   YZ=              0.0001
 Traceless Quadrupole moment (field-independent basis, Debye-Ang):
   XX=            -11.3129   YY=             -0.9254   ZZ=             12.2383
   XY=             -4.9264   XZ=              0.0016   YZ=              0.0001
 Octapole moment (field-independent basis, Debye-Ang**2):
  XXX=             35.3711  YYY=             21.7166  ZZZ=             -0.0015  XYY=              5.3835
  XXY=             12.3902  XXZ=              0.0036  XZZ=            -13.5308  YZZ=              1.1048
  YYZ=              0.0056  XYZ=             -0.0007
 Hexadecapole moment (field-independent basis, Debye-Ang**3):
 XXXX=           -981.6747 YYYY=           -386.0369 ZZZZ=            -78.6448 XXXY=            -29.0503
 XXXZ=              0.0085 YYYX=            -14.4549 YYYZ=              0.0008 ZZZX=             -0.0155
 ZZZY=             -0.0034 XXYY=           -226.2975 XXZZ=           -179.5521 YYZZ=            -80.4946
 XXYZ=             -0.0129 YYXZ=             -0.0009 ZZXY=             -2.4398
 N-N= 3.562645028373D+02 E-N=-1.743576260773D+03  KE= 4.272003336381D+02
 D1PCM: PCM CHGder 1st derivatives, ID1Alg=3 FixD1E=F DoIter=F DoCFld=F I1PDM=0.
 Calling FoFJK, ICntrl=      2127 FMM=F ISym2X=0 I1Cent= 0 IOpClX= 0 NMat=1 NMatS=1 NMatT=0.
 ***** Axes restored to original set *****
 -------------------------------------------------------------------
 Center     Atomic                   Forces (Hartrees/Bohr)
 Number     Number              X              Y              Z
 -------------------------------------------------------------------
      1        7          -0.009086178    0.000352607    0.000004291
      2        7          -0.014896324    0.001763839   -0.000016714
      3        6           0.011935638   -0.024817228    0.000023597
      4        6           0.023078147    0.025131024   -0.000008556
      5        7          -0.022190944   -0.007676835   -0.000000059
      6        1          -0.001639015   -0.001182264    0.000002808
      7        1          -0.001842060    0.001287352   -0.000007382
      8        1          -0.001136011    0.003867243    0.000002999
      9        6           0.029916268    0.026043733    0.000010113
     10        8          -0.001781544   -0.004710800   -0.000012368
     11        8          -0.012357974   -0.020058671    0.000001272
 -------------------------------------------------------------------
 Cartesian Forces:  Max     0.029916268 RMS     0.012260637

 GradGradGradGradGradGradGradGradGradGradGradGradGradGradGradGradGradGrad
 Berny optimization.
 FormGI is forming the generalized inverse of G from B-inverse, IUseBI=4.
 Internal  Forces:  Max     0.023403231 RMS     0.007028071
 Search for a local minimum.
 Step number   1 out of a maximum of   54
 All quantities printed in internal units (Hartrees-Bohrs-Radians)
 Mixed Optimization -- RFO/linear search
 Second derivative matrix not updated -- first step.
 ITU=  0
     Eigenvalues ---    0.01104   0.01711   0.01889   0.02055   0.02176
     Eigenvalues ---    0.02273   0.02420   0.02700   0.16000   0.16000
     Eigenvalues ---    0.16000   0.22533   0.24719   0.25000   0.25000
     Eigenvalues ---    0.25000   0.35231   0.35469   0.37113   0.40577
     Eigenvalues ---    0.45865   0.46489   0.46928   0.50243   0.50724
     Eigenvalues ---    0.60993   0.80067
 RFO step:  Lambda=-4.75747597D-03 EMin= 1.10380886D-02
 Linear search not attempted -- first point.
 Iteration  1 RMS(Cart)=  0.04693640 RMS(Int)=  0.00145898
 Iteration  2 RMS(Cart)=  0.00159308 RMS(Int)=  0.00001735
 Iteration  3 RMS(Cart)=  0.00000172 RMS(Int)=  0.00001733
 Iteration  4 RMS(Cart)=  0.00000000 RMS(Int)=  0.00001733
 Variable       Old X    -DE/DX   Delta X   Delta X   Delta X     New X
                                 (Linear)    (Quad)   (Total)
    R1        2.72486  -0.00546   0.00000  -0.01403  -0.01402   2.71084
    R2        2.68180  -0.00193   0.00000  -0.00392  -0.00394   2.67785
    R3        2.50163  -0.01469   0.00000  -0.02389  -0.02389   2.47774
    R4        2.61626   0.01434   0.00000   0.02873   0.02876   2.64502
    R5        2.61118  -0.01890   0.00000  -0.03849  -0.03848   2.57270
    R6        2.04920  -0.00200   0.00000  -0.00556  -0.00556   2.04364
    R7        2.58518   0.02005   0.00000   0.03924   0.03921   2.62439
    R8        2.05301  -0.00225   0.00000  -0.00631  -0.00631   2.04670
    R9        1.85841   0.00121   0.00000   0.00236   0.00236   1.86078
   R10        2.64284   0.00024   0.00000   0.00052   0.00052   2.64336
   R11        2.37879   0.02340   0.00000   0.02906   0.02906   2.40785
    A1        1.98849   0.00131   0.00000   0.00546   0.00546   1.99394
    A2        2.09033   0.00452   0.00000   0.01758   0.01758   2.10791
    A3        2.20437  -0.00583   0.00000  -0.02304  -0.02304   2.18134
    A4        1.76956  -0.00135   0.00000  -0.00817  -0.00810   1.76146
    A5        1.92801   0.00356   0.00000   0.01414   0.01417   1.94218
    A6        2.10645  -0.00205   0.00000  -0.00867  -0.00869   2.09776
    A7        2.24873  -0.00152   0.00000  -0.00547  -0.00548   2.24325
    A8        1.97057  -0.00284   0.00000  -0.01176  -0.01178   1.95879
    A9        2.22593   0.00135   0.00000   0.00547   0.00548   2.23141
   A10        2.08668   0.00149   0.00000   0.00629   0.00630   2.09298
   A11        1.76815  -0.00069   0.00000   0.00032   0.00025   1.76840
   A12        1.93469   0.01254   0.00000   0.04922   0.04922   1.98392
   A13        2.26001  -0.00979   0.00000  -0.03842  -0.03842   2.22159
   A14        2.08848  -0.00275   0.00000  -0.01080  -0.01080   2.07768
   A15        1.79518   0.00711   0.00000   0.04314   0.04314   1.83832
    D1       -0.00002  -0.00001   0.00000  -0.00023  -0.00023  -0.00025
    D2        3.14131  -0.00000   0.00000  -0.00014  -0.00013   3.14118
    D3        0.00013  -0.00000   0.00000  -0.00002  -0.00002   0.00011
    D4       -3.14118  -0.00001   0.00000  -0.00014  -0.00013  -3.14131
    D5       -0.00017   0.00001   0.00000   0.00027   0.00027   0.00010
    D6        3.14159   0.00000   0.00000  -0.00001  -0.00000   3.14159
    D7        3.14112   0.00001   0.00000   0.00039   0.00038   3.14151
    D8       -0.00030   0.00000   0.00000   0.00011   0.00011  -0.00019
    D9       -0.00011   0.00001   0.00000   0.00040   0.00040   0.00030
   D10        3.14156   0.00000   0.00000   0.00010   0.00010  -3.14153
   D11        0.00021  -0.00001   0.00000  -0.00047  -0.00047  -0.00026
   D12       -3.14145  -0.00001   0.00000  -0.00031  -0.00031   3.14143
   D13       -3.14147  -0.00000   0.00000  -0.00014  -0.00013   3.14159
   D14        0.00007   0.00000   0.00000   0.00003   0.00003   0.00010
   D15       -0.00020   0.00001   0.00000   0.00029   0.00029   0.00009
   D16        3.14145   0.00000   0.00000   0.00014   0.00014   3.14159
   D17       -0.00008  -0.00001   0.00000  -0.00021  -0.00021  -0.00029
   D18        3.14136   0.00000   0.00000   0.00004   0.00004   3.14140
         Item               Value     Threshold  Converged?
 Maximum Force            0.023403     0.000450     NO 
 RMS     Force            0.007028     0.000300     NO 
 Maximum Displacement     0.200849     0.001800     NO 
 RMS     Displacement     0.047550     0.001200     NO 
 Predicted change in Energy=-2.409516D-03
 GradGradGradGradGradGradGradGradGradGradGradGradGradGradGradGradGradGrad

                          Input orientation:                          
 ---------------------------------------------------------------------
 Center     Atomic      Atomic             Coordinates (Angstroms)
 Number     Number       Type             X           Y           Z
 ---------------------------------------------------------------------
      1          7           0       -0.006464   -0.099669   -0.000113
      2          7           0        0.705636    1.145623   -0.000165
      3          6           0        2.030346    0.693676    0.000247
      4          6           0        2.088323   -0.666504    0.000137
      5          7           0        0.826325   -1.246193   -0.000015
      6          1           0        2.846903    1.402732    0.000380
      7          1           0        2.971056   -1.294055    0.000245
      8          1           0       -1.147330    1.781261    0.000138
      9          6           0       -1.317421   -0.122821    0.000032
     10          8           0       -1.901532    1.148193   -0.000002
     11          8           0       -2.071319   -1.150035    0.000090
 ---------------------------------------------------------------------
                    Distance matrix (angstroms):
                    1          2          3          4          5
     1  N    0.000000
     2  N    1.434516   0.000000
     3  C    2.185861   1.399682   0.000000
     4  C    2.170123   2.279391   1.361414   0.000000
     5  N    1.417059   2.394859   2.283146   1.388769   0.000000
     6  H    3.224734   2.156647   1.081446   2.203901   3.331597
     7  H    3.208144   3.329287   2.199093   1.083069   2.145266
     8  H    2.199880   1.958959   3.358640   4.057216   3.613972
     9  C    1.311161   2.387825   3.445897   3.448867   2.420250
    10  O    2.269018   2.607170   3.958061   4.383157   3.629640
    11  O    2.316656   3.602988   4.496990   4.187651   2.899239
                    6          7          8          9         10
     6  H    0.000000
     7  H    2.699643   0.000000
     8  H    4.012129   5.139910   0.000000
     9  C    4.434964   4.445540   1.911664   0.000000
    10  O    4.755252   5.450385   0.984681   1.398808   0.000000
    11  O    5.541256   5.044432   3.073476   1.274178   2.304491
                   11
    11  O    0.000000
 Stoichiometry    C3H3N3O2(2-)
 Framework group  C1[X(C3H3N3O2)]
 Deg. of freedom    27
 Full point group                 C1      NOp   1
 Largest Abelian subgroup         C1      NOp   1
 Largest concise Abelian subgroup C1      NOp   1
                         Standard orientation:                         
 ---------------------------------------------------------------------
 Center     Atomic      Atomic             Coordinates (Angstroms)
 Number     Number       Type             X           Y           Z
 ---------------------------------------------------------------------
      1          7           0       -0.012124   -0.098038   -0.000146
      2          7           0        0.689987    1.152912   -0.000198
      3          6           0        2.018271    0.711581    0.000214
      4          6           0        2.087132   -0.648090    0.000104
      5          7           0        0.829814   -1.237861   -0.000048
      6          1           0        2.829127    1.427150    0.000347
      7          1           0        2.974860   -1.268557    0.000212
      8          1           0       -1.168007    1.773701    0.000105
      9          6           0       -1.322854   -0.131682   -0.000001
     10          8           0       -1.917119    1.134617   -0.000035
     11          8           0       -2.068507   -1.164896    0.000057
 ---------------------------------------------------------------------
 Rotational constants (GHZ):           5.0225719           1.7802507           1.3143717
 Standard basis: 6-31+G(d,p) (6D, 7F)
 There are   167 symmetry adapted cartesian basis functions of A   symmetry.
 There are   167 symmetry adapted basis functions of A   symmetry.
   167 basis functions,   277 primitive gaussians,   167 cartesian basis functions
    30 alpha electrons       30 beta electrons
       nuclear repulsion energy       355.5305482882 Hartrees.
 NAtoms=   11 NActive=   11 NUniq=   11 SFac= 1.00D+00 NAtFMM=   60 NAOKFM=F Big=F
 Integral buffers will be    131072 words long.
 Raffenetti 2 integral format.
 Two-electron integral symmetry is turned on.
 ------------------------------------------------------------------------------
 Polarizable Continuum Model (PCM)
 =================================
 Model                : PCM.
 Atomic radii         : SMD-Coulomb.
 Polarization charges : Total charges.
 Charge compensation  : None.
 Solution method      : On-the-fly selection.
 Cavity type          : VdW (van der Waals Surface) (Alpha=1.000).
 Cavity algorithm     : GePol (No added spheres)
                        Default sphere list used, NSphG=   11.
                        Lebedev-Laikov grids with approx.  5.0 points / Ang**2.
                        Smoothing algorithm: York/Karplus (Gamma=1.0000).
                        Polarization charges: spherical gaussians, with
                                              point-specific exponents (IZeta= 3).
                        Self-potential: point-specific (ISelfS= 7).
                        Self-field    : sphere-specific E.n sum rule (ISelfD= 2).
 1st derivatives      : Analytical E(r).r(x)/FMM algorithm (CHGder, D1EAlg=3).
                        Cavity 1st derivative terms included.
 Solvent              : Water, Eps=  78.355300 Eps(inf)=   1.777849
 ------------------------------------------------------------------------------
 Spheres list:
 ISph  on   Nord     Re0    Alpha      Xe            Ye            Ze
    1   N      1    1.8900  1.000     -0.012124     -0.098038     -0.000146
    2   N      2    1.8900  1.000      0.689987      1.152912     -0.000198
    3   C      3    1.8500  1.000      2.018271      0.711581      0.000214
    4   C      4    1.8500  1.000      2.087132     -0.648090      0.000104
    5   N      5    1.8900  1.000      0.829814     -1.237861     -0.000048
    6   H      6    1.2000  1.000      2.829127      1.427150      0.000347
    7   H      7    1.2000  1.000      2.974860     -1.268557      0.000212
    8   H      8    1.2000  1.000     -1.168007      1.773701      0.000105
    9   C      9    1.8500  1.000     -1.322854     -0.131682     -0.000001
   10   O     10    1.5200  1.000     -1.917119      1.134617     -0.000035
   11   O     11    1.5200  1.000     -2.068507     -1.164896      0.000057
 ------------------------------------------------------------------------------
 ------------------------------------------------------------------------------
 Atomic radii for non-electrostatic terms: SMD-CDS.
 ------------------------------------------------------------------------------
 Nuclear repulsion after PCM non-electrostatic terms =      355.5351927057 Hartrees.
 One-electron integrals computed using PRISM.
 NBasis=   167 RedAO= T EigKep=  2.79D-05  NBF=   167
 NBsUse=   167 1.00D-06 EigRej= -1.00D+00 NBFU=   167
 Initial guess from the checkpoint file:  "/scratch/gongke2021/1-H-Tz-2-eletron/Gau-22670.chk"
 B after Tr=     0.000000    0.000000   -0.000000
         Rot=    0.999983    0.000028    0.000000   -0.005821 Ang=   0.67 deg.
 ExpMin= 4.38D-02 ExpMax= 5.48D+03 ExpMxC= 8.25D+02 IAcc=2 IRadAn=         4 AccDes= 0.00D+00
 Harris functional with IExCor= 1009 and IRadAn=       4 diagonalized for initial guess.
 HarFok:  IExCor= 1009 AccDes= 0.00D+00 IRadAn=         4 IDoV= 1 UseB2=F ITyADJ=14
 ICtDFT=  3500011 ScaDFX=  1.000000  1.000000  1.000000  1.000000
 FoFCou: FMM=F IPFlag=           0 FMFlag=      100000 FMFlg1=           0
         NFxFlg=           0 DoJE=T BraDBF=F KetDBF=T FulRan=T
         wScrn=  0.000000 ICntrl=       500 IOpCl=  0 I1Cent=   200000004 NGrid=           0
         NMat0=    1 NMatS0=      1 NMatT0=    0 NMatD0=    1 NMtDS0=    0 NMtDT0=    0
 Petite list used in FoFCou.
 Keep R1 ints in memory in canonical form, NReq=118249495.
 Requested convergence on RMS density matrix=1.00D-08 within 128 cycles.
 Requested convergence on MAX density matrix=1.00D-06.
 Requested convergence on             energy=1.00D-06.
 No special actions if energy rises.
 Inv3:  Mode=1 IEnd=     3121200.
 Iteration    1 A*A^-1 deviation from unit magnitude is 3.55D-15 for   1008.
 Iteration    1 A*A^-1 deviation from orthogonality  is 1.40D-15 for    454    194.
 Iteration    1 A^-1*A deviation from unit magnitude is 3.55D-15 for   1008.
 Iteration    1 A^-1*A deviation from orthogonality  is 1.40D-15 for    707    616.
 Error on total polarization charges =  0.07735
 SCF Done:  E(RM062X) =  -430.817662506     A.U. after   14 cycles
            NFock= 14  Conv=0.58D-08     -V/T= 2.0086
 SMD-CDS (non-electrostatic) energy       (kcal/mol) =       2.91
 (included in total energy above)
 D1PCM: PCM CHGder 1st derivatives, ID1Alg=3 FixD1E=F DoIter=F DoCFld=F I1PDM=0.
 Calling FoFJK, ICntrl=      2127 FMM=F ISym2X=0 I1Cent= 0 IOpClX= 0 NMat=1 NMatS=1 NMatT=0.
 ***** Axes restored to original set *****
 -------------------------------------------------------------------
 Center     Atomic                   Forces (Hartrees/Bohr)
 Number     Number              X              Y              Z
 -------------------------------------------------------------------
      1        7          -0.000470228    0.004293391    0.000008385
      2        7          -0.003587378   -0.000339603    0.000006218
      3        6           0.001462888   -0.005001195   -0.000014925
      4        6           0.006372296    0.007645980    0.000020459
      5        7          -0.008332981   -0.005565680   -0.000017612
      6        1          -0.000145933    0.000867847   -0.000002613
      7        1          -0.000802030   -0.000549903    0.000001917
      8        1          -0.004083474   -0.003931303   -0.000000605
      9        6           0.011019624    0.010681028   -0.000003188
     10        8           0.005796927   -0.000802382    0.000002228
     11        8          -0.007229711   -0.007298180   -0.000000266
 -------------------------------------------------------------------
 Cartesian Forces:  Max     0.011019624 RMS     0.004497209

 GradGradGradGradGradGradGradGradGradGradGradGradGradGradGradGradGradGrad
 Berny optimization.
 Using GEDIIS/GDIIS optimizer.
 FormGI is forming the generalized inverse of G from B-inverse, IUseBI=4.
 Internal  Forces:  Max     0.010198138 RMS     0.002561358
 Search for a local minimum.
 Step number   2 out of a maximum of   54
 All quantities printed in internal units (Hartrees-Bohrs-Radians)
 Mixed Optimization -- RFO/linear search
 Update second derivatives using D2CorX and points    1    2
 DE= -2.75D-03 DEPred=-2.41D-03 R= 1.14D+00
 TightC=F SS=  1.41D+00  RLast= 1.13D-01 DXNew= 5.0454D-01 3.4043D-01
 Trust test= 1.14D+00 RLast= 1.13D-01 DXMaxT set to 3.40D-01
 ITU=  1  0
 Use linear search instead of GDIIS.
     Eigenvalues ---    0.01103   0.01711   0.01885   0.02056   0.02177
     Eigenvalues ---    0.02273   0.02410   0.02700   0.15762   0.16000
     Eigenvalues ---    0.16428   0.22400   0.22926   0.24924   0.25000
     Eigenvalues ---    0.28012   0.34998   0.35497   0.35963   0.39857
     Eigenvalues ---    0.41190   0.46401   0.47236   0.48032   0.54691
     Eigenvalues ---    0.59481   0.75480
 RFO step:  Lambda=-6.16988194D-04 EMin= 1.10309737D-02
 Quartic linear search produced a step of  0.21502.
 Iteration  1 RMS(Cart)=  0.00621034 RMS(Int)=  0.00002849
 Iteration  2 RMS(Cart)=  0.00003845 RMS(Int)=  0.00000899
 Iteration  3 RMS(Cart)=  0.00000000 RMS(Int)=  0.00000899
 Variable       Old X    -DE/DX   Delta X   Delta X   Delta X     New X
                                 (Linear)    (Quad)   (Total)
    R1        2.71084  -0.00242  -0.00301  -0.00698  -0.00998   2.70086
    R2        2.67785  -0.00052  -0.00085  -0.00107  -0.00190   2.67595
    R3        2.47774  -0.00544  -0.00514  -0.00892  -0.01406   2.46368
    R4        2.64502   0.00152   0.00618   0.00115   0.00733   2.65234
    R5        2.57270  -0.00292  -0.00827  -0.00400  -0.01229   2.56041
    R6        2.04364   0.00048  -0.00120   0.00206   0.00086   2.04450
    R7        2.62439   0.00694   0.00843   0.01385   0.02227   2.64666
    R8        2.04670  -0.00034  -0.00136  -0.00070  -0.00205   2.04465
    R9        1.86078  -0.00572   0.00051  -0.01387  -0.01337   1.84741
   R10        2.64336  -0.00509   0.00011  -0.01350  -0.01339   2.62997
   R11        2.40785   0.01020   0.00625   0.01311   0.01936   2.42721
    A1        1.99394   0.00271   0.00117   0.01206   0.01325   2.00720
    A2        2.10791  -0.00065   0.00378  -0.00410  -0.00033   2.10758
    A3        2.18134  -0.00206  -0.00495  -0.00796  -0.01293   2.16841
    A4        1.76146  -0.00032  -0.00174  -0.00372  -0.00545   1.75601
    A5        1.94218   0.00034   0.00305   0.00040   0.00342   1.94560
    A6        2.09776  -0.00102  -0.00187  -0.00648  -0.00834   2.08942
    A7        2.24325   0.00067  -0.00118   0.00609   0.00492   2.24817
    A8        1.95879   0.00018  -0.00253   0.00341   0.00086   1.95965
    A9        2.23141   0.00076   0.00118   0.00474   0.00593   2.23734
   A10        2.09298  -0.00094   0.00135  -0.00815  -0.00679   2.08619
   A11        1.76840  -0.00291   0.00005  -0.01215  -0.01209   1.75631
   A12        1.98392  -0.00069   0.01058  -0.00697   0.00362   1.98753
   A13        2.22159   0.00208  -0.00826   0.01288   0.00462   2.22621
   A14        2.07768  -0.00138  -0.00232  -0.00592  -0.00824   2.06944
   A15        1.83832  -0.00073   0.00928  -0.00841   0.00087   1.83918
    D1       -0.00025   0.00000  -0.00005  -0.00002  -0.00007  -0.00032
    D2        3.14118   0.00000  -0.00003   0.00011   0.00008   3.14126
    D3        0.00011   0.00001  -0.00001   0.00034   0.00033   0.00044
    D4       -3.14131   0.00000  -0.00003   0.00020   0.00017  -3.14114
    D5        0.00010  -0.00000   0.00006  -0.00013  -0.00008   0.00002
    D6        3.14159  -0.00000  -0.00000  -0.00010  -0.00010   3.14149
    D7        3.14151  -0.00000   0.00008   0.00001   0.00009  -3.14159
    D8       -0.00019   0.00000   0.00002   0.00004   0.00006  -0.00013
    D9        0.00030  -0.00001   0.00009  -0.00033  -0.00024   0.00005
   D10       -3.14153  -0.00000   0.00002  -0.00006  -0.00004  -3.14157
   D11       -0.00026   0.00001  -0.00010   0.00059   0.00049   0.00022
   D12        3.14143   0.00000  -0.00007   0.00016   0.00010   3.14153
   D13        3.14159   0.00001  -0.00003   0.00030   0.00027  -3.14133
   D14        0.00010  -0.00000   0.00001  -0.00013  -0.00012  -0.00002
   D15        0.00009  -0.00001   0.00006  -0.00054  -0.00048  -0.00039
   D16        3.14159  -0.00000   0.00003  -0.00015  -0.00013   3.14146
   D17       -0.00029   0.00000  -0.00004   0.00001  -0.00004  -0.00032
   D18        3.14140  -0.00000   0.00001  -0.00002  -0.00001   3.14139
         Item               Value     Threshold  Converged?
 Maximum Force            0.010198     0.000450     NO 
 RMS     Force            0.002561     0.000300     NO 
 Maximum Displacement     0.020092     0.001800     NO 
 RMS     Displacement     0.006225     0.001200     NO 
 Predicted change in Energy=-3.887422D-04
 GradGradGradGradGradGradGradGradGradGradGradGradGradGradGradGradGradGrad

                          Input orientation:                          
 ---------------------------------------------------------------------
 Center     Atomic      Atomic             Coordinates (Angstroms)
 Number     Number       Type             X           Y           Z
 ---------------------------------------------------------------------
      1          7           0       -0.003308   -0.093420   -0.000118
      2          7           0        0.703822    1.148627   -0.000176
      3          6           0        2.030580    0.690706    0.000138
      4          6           0        2.088100   -0.662982    0.000285
      5          7           0        0.815817   -1.248511   -0.000203
      6          1           0        2.844077    1.403961    0.000200
      7          1           0        2.966129   -1.295239    0.000473
      8          1           0       -1.149511    1.776103    0.000296
      9          6           0       -1.306789   -0.118481    0.000023
     10          8           0       -1.894483    1.143067    0.000076
     11          8           0       -2.069912   -1.151623   -0.000020
 ---------------------------------------------------------------------
                    Distance matrix (angstroms):
                    1          2          3          4          5
     1  N    0.000000
     2  N    1.429236   0.000000
     3  C    2.179806   1.403559   0.000000
     4  C    2.167577   2.279946   1.354909   0.000000
     5  N    1.416051   2.399753   2.288277   1.400553   0.000000
     6  H    3.217104   2.155433   1.081902   2.200853   3.339079
     7  H    3.203425   3.330243   2.195274   1.081982   2.150820
     8  H    2.192920   1.956673   3.360218   4.053549   3.607049
     9  C    1.303721   2.376577   3.434067   3.438277   2.404667
    10  O    2.259522   2.598311   3.951044   4.372960   3.614605
    11  O    2.321776   3.603436   4.495354   4.186625   2.887355
                    6          7          8          9         10
     6  H    0.000000
     7  H    2.701959   0.000000
     8  H    4.010890   5.135332   0.000000
     9  C    4.421258   4.431996   1.901101   0.000000
    10  O    4.745737   5.437912   0.977608   1.391721   0.000000
    11  O    5.538800   5.038088   3.068993   1.284422   2.301386
                   11
    11  O    0.000000
 Stoichiometry    C3H3N3O2(2-)
 Framework group  C1[X(C3H3N3O2)]
 Deg. of freedom    27
 Full point group                 C1      NOp   1
 Largest Abelian subgroup         C1      NOp   1
 Largest concise Abelian subgroup C1      NOp   1
                         Standard orientation:                         
 ---------------------------------------------------------------------
 Center     Atomic      Atomic             Coordinates (Angstroms)
 Number     Number       Type             X           Y           Z
 ---------------------------------------------------------------------
      1          7           0       -0.010196   -0.092081   -0.000129
      2          7           0        0.689547    1.154143   -0.000187
      3          6           0        2.019001    0.704107    0.000127
      4          6           0        2.084557   -0.649215    0.000274
      5          7           0        0.815773   -1.242288   -0.000213
      6          1           0        2.828249    1.422180    0.000189
      7          1           0        2.966324   -1.276248    0.000463
      8          1           0       -1.167478    1.770604    0.000285
      9          6           0       -1.313505   -0.124880    0.000012
     10          8           0       -1.908679    1.133157    0.000065
     11          8           0       -2.070480   -1.162535   -0.000030
 ---------------------------------------------------------------------
 Rotational constants (GHZ):           5.0275308           1.7875799           1.3187039
 Standard basis: 6-31+G(d,p) (6D, 7F)
 There are   167 symmetry adapted cartesian basis functions of A   symmetry.
 There are   167 symmetry adapted basis functions of A   symmetry.
   167 basis functions,   277 primitive gaussians,   167 cartesian basis functions
    30 alpha electrons       30 beta electrons
       nuclear repulsion energy       355.9173777446 Hartrees.
 NAtoms=   11 NActive=   11 NUniq=   11 SFac= 1.00D+00 NAtFMM=   60 NAOKFM=F Big=F
 Integral buffers will be    131072 words long.
 Raffenetti 2 integral format.
 Two-electron integral symmetry is turned on.
 ------------------------------------------------------------------------------
 Polarizable Continuum Model (PCM)
 =================================
 Model                : PCM.
 Atomic radii         : SMD-Coulomb.
 Polarization charges : Total charges.
 Charge compensation  : None.
 Solution method      : On-the-fly selection.
 Cavity type          : VdW (van der Waals Surface) (Alpha=1.000).
 Cavity algorithm     : GePol (No added spheres)
                        Default sphere list used, NSphG=   11.
                        Lebedev-Laikov grids with approx.  5.0 points / Ang**2.
                        Smoothing algorithm: York/Karplus (Gamma=1.0000).
                        Polarization charges: spherical gaussians, with
                                              point-specific exponents (IZeta= 3).
                        Self-potential: point-specific (ISelfS= 7).
                        Self-field    : sphere-specific E.n sum rule (ISelfD= 2).
 1st derivatives      : Analytical E(r).r(x)/FMM algorithm (CHGder, D1EAlg=3).
                        Cavity 1st derivative terms included.
 Solvent              : Water, Eps=  78.355300 Eps(inf)=   1.777849
 ------------------------------------------------------------------------------
 Spheres list:
 ISph  on   Nord     Re0    Alpha      Xe            Ye            Ze
    1   N      1    1.8900  1.000     -0.010196     -0.092081     -0.000129
    2   N      2    1.8900  1.000      0.689547      1.154143     -0.000187
    3   C      3    1.8500  1.000      2.019001      0.704107      0.000127
    4   C      4    1.8500  1.000      2.084557     -0.649215      0.000274
    5   N      5    1.8900  1.000      0.815773     -1.242288     -0.000213
    6   H      6    1.2000  1.000      2.828249      1.422180      0.000189
    7   H      7    1.2000  1.000      2.966324     -1.276248      0.000463
    8   H      8    1.2000  1.000     -1.167478      1.770604      0.000285
    9   C      9    1.8500  1.000     -1.313505     -0.124880      0.000012
   10   O     10    1.5200  1.000     -1.908679      1.133157      0.000065
   11   O     11    1.5200  1.000     -2.070480     -1.162535     -0.000030
 ------------------------------------------------------------------------------
 ------------------------------------------------------------------------------
 Atomic radii for non-electrostatic terms: SMD-CDS.
 ------------------------------------------------------------------------------
 Nuclear repulsion after PCM non-electrostatic terms =      355.9220020788 Hartrees.
 One-electron integrals computed using PRISM.
 NBasis=   167 RedAO= T EigKep=  2.70D-05  NBF=   167
 NBsUse=   167 1.00D-06 EigRej= -1.00D+00 NBFU=   167
 Initial guess from the checkpoint file:  "/scratch/gongke2021/1-H-Tz-2-eletron/Gau-22670.chk"
 B after Tr=     0.000000   -0.000000    0.000000
         Rot=    0.999999   -0.000018    0.000000    0.001117 Ang=  -0.13 deg.
 ExpMin= 4.38D-02 ExpMax= 5.48D+03 ExpMxC= 8.25D+02 IAcc=2 IRadAn=         4 AccDes= 0.00D+00
 Harris functional with IExCor= 1009 and IRadAn=       4 diagonalized for initial guess.
 HarFok:  IExCor= 1009 AccDes= 0.00D+00 IRadAn=         4 IDoV= 1 UseB2=F ITyADJ=14
 ICtDFT=  3500011 ScaDFX=  1.000000  1.000000  1.000000  1.000000
 FoFCou: FMM=F IPFlag=           0 FMFlag=      100000 FMFlg1=           0
         NFxFlg=           0 DoJE=T BraDBF=F KetDBF=T FulRan=T
         wScrn=  0.000000 ICntrl=       500 IOpCl=  0 I1Cent=   200000004 NGrid=           0
         NMat0=    1 NMatS0=      1 NMatT0=    0 NMatD0=    1 NMtDS0=    0 NMtDT0=    0
 Petite list used in FoFCou.
 Keep R1 ints in memory in canonical form, NReq=118249495.
 Requested convergence on RMS density matrix=1.00D-08 within 128 cycles.
 Requested convergence on MAX density matrix=1.00D-06.
 Requested convergence on             energy=1.00D-06.
 No special actions if energy rises.
 Inv3:  Mode=1 IEnd=     3133452.
 Iteration    1 A*A^-1 deviation from unit magnitude is 2.89D-15 for    509.
 Iteration    1 A*A^-1 deviation from orthogonality  is 1.41D-15 for    534    148.
 Iteration    1 A^-1*A deviation from unit magnitude is 2.66D-15 for    987.
 Iteration    1 A^-1*A deviation from orthogonality  is 1.40D-15 for   1012    958.
 Error on total polarization charges =  0.07682
 SCF Done:  E(RM062X) =  -430.818017571     A.U. after   13 cycles
            NFock= 13  Conv=0.60D-08     -V/T= 2.0085
 SMD-CDS (non-electrostatic) energy       (kcal/mol) =       2.90
 (included in total energy above)
 D1PCM: PCM CHGder 1st derivatives, ID1Alg=3 FixD1E=F DoIter=F DoCFld=F I1PDM=0.
 Calling FoFJK, ICntrl=      2127 FMM=F ISym2X=0 I1Cent= 0 IOpClX= 0 NMat=1 NMatS=1 NMatT=0.
 ***** Axes restored to original set *****
 -------------------------------------------------------------------
 Center     Atomic                   Forces (Hartrees/Bohr)
 Number     Number              X              Y              Z
 -------------------------------------------------------------------
      1        7           0.000675862   -0.000016603   -0.000002306
      2        7           0.001024500   -0.001320560   -0.000013582
      3        6          -0.000521812    0.002093360    0.000017765
      4        6           0.000801312   -0.001540517   -0.000016865
      5        7           0.001000893   -0.000077060    0.000011907
      6        1           0.000056301    0.000251259    0.000003462
      7        1           0.000104046   -0.000577464   -0.000002350
      8        1           0.000198003    0.000579824   -0.000000842
      9        6          -0.001346497    0.001166181    0.000003009
     10        8          -0.000920270    0.000135379   -0.000000369
     11        8          -0.001072338   -0.000693798    0.000000169
 -------------------------------------------------------------------
 Cartesian Forces:  Max     0.002093360 RMS     0.000746395

 GradGradGradGradGradGradGradGradGradGradGradGradGradGradGradGradGradGrad
 Berny optimization.
 Using GEDIIS/GDIIS optimizer.
 FormGI is forming the generalized inverse of G from B-inverse, IUseBI=4.
 Internal  Forces:  Max     0.003157947 RMS     0.000780405
 Search for a local minimum.
 Step number   3 out of a maximum of   54
 All quantities printed in internal units (Hartrees-Bohrs-Radians)
 Mixed Optimization -- En-DIIS/RFO-DIIS
 Update second derivatives using D2CorX and points    1    2    3
 DE= -3.55D-04 DEPred=-3.89D-04 R= 9.13D-01
 TightC=F SS=  1.41D+00  RLast= 5.05D-02 DXNew= 5.7254D-01 1.5147D-01
 Trust test= 9.13D-01 RLast= 5.05D-02 DXMaxT set to 3.40D-01
 ITU=  1  1  0
 Use linear search instead of GDIIS.
     Eigenvalues ---    0.01100   0.01711   0.01877   0.02057   0.02178
     Eigenvalues ---    0.02274   0.02414   0.02700   0.15048   0.16001
     Eigenvalues ---    0.16423   0.22424   0.22917   0.24946   0.26081
     Eigenvalues ---    0.27746   0.35261   0.35491   0.35580   0.39257
     Eigenvalues ---    0.43233   0.46397   0.47335   0.48519   0.54718
     Eigenvalues ---    0.63897   0.72855
 RFO step:  Lambda=-5.07186313D-05 EMin= 1.09974507D-02
 Quartic linear search produced a step of -0.09690.
 Iteration  1 RMS(Cart)=  0.00418347 RMS(Int)=  0.00000440
 Iteration  2 RMS(Cart)=  0.00000519 RMS(Int)=  0.00000095
 Iteration  3 RMS(Cart)=  0.00000000 RMS(Int)=  0.00000095
 Variable       Old X    -DE/DX   Delta X   Delta X   Delta X     New X
                                 (Linear)    (Quad)   (Total)
    R1        2.70086  -0.00011   0.00097  -0.00183  -0.00086   2.70000
    R2        2.67595   0.00129   0.00018   0.00244   0.00263   2.67858
    R3        2.46368   0.00316   0.00136   0.00279   0.00415   2.46783
    R4        2.65234  -0.00049  -0.00071  -0.00005  -0.00076   2.65158
    R5        2.56041   0.00172   0.00119   0.00172   0.00291   2.56332
    R6        2.04450   0.00023  -0.00008   0.00073   0.00064   2.04514
    R7        2.64666   0.00053  -0.00216   0.00409   0.00193   2.64859
    R8        2.04465   0.00041   0.00020   0.00079   0.00099   2.04564
    R9        1.84741   0.00045   0.00130  -0.00109   0.00020   1.84761
   R10        2.62997   0.00087   0.00130  -0.00018   0.00112   2.63109
   R11        2.42721   0.00124  -0.00188   0.00402   0.00215   2.42935
    A1        2.00720  -0.00119  -0.00128  -0.00269  -0.00398   2.00322
    A2        2.10758  -0.00013   0.00003  -0.00047  -0.00043   2.10714
    A3        2.16841   0.00132   0.00125   0.00316   0.00441   2.17282
    A4        1.75601   0.00139   0.00053   0.00376   0.00429   1.76031
    A5        1.94560  -0.00036  -0.00033  -0.00085  -0.00118   1.94442
    A6        2.08942  -0.00006   0.00081  -0.00191  -0.00110   2.08831
    A7        2.24817   0.00042  -0.00048   0.00276   0.00228   2.25045
    A8        1.95965  -0.00064  -0.00008  -0.00184  -0.00192   1.95773
    A9        2.23734   0.00064  -0.00057   0.00366   0.00309   2.24043
   A10        2.08619   0.00000   0.00066  -0.00182  -0.00117   2.08503
   A11        1.75631   0.00080   0.00117   0.00162   0.00279   1.75910
   A12        1.98753   0.00093  -0.00035   0.00370   0.00335   1.99088
   A13        2.22621  -0.00002  -0.00045   0.00075   0.00030   2.22651
   A14        2.06944  -0.00091   0.00080  -0.00444  -0.00364   2.06580
   A15        1.83918   0.00057  -0.00008   0.00314   0.00306   1.84225
    D1       -0.00032  -0.00000   0.00001  -0.00024  -0.00024  -0.00056
    D2        3.14126  -0.00000  -0.00001  -0.00028  -0.00028   3.14097
    D3        0.00044  -0.00000  -0.00003   0.00002  -0.00001   0.00043
    D4       -3.14114  -0.00000  -0.00002   0.00006   0.00004  -3.14110
    D5        0.00002   0.00000   0.00001   0.00005   0.00006   0.00008
    D6        3.14149   0.00000   0.00001   0.00003   0.00004   3.14153
    D7       -3.14159   0.00000  -0.00001   0.00002   0.00001  -3.14158
    D8       -0.00013  -0.00000  -0.00001  -0.00000  -0.00001  -0.00014
    D9        0.00005   0.00001   0.00002   0.00038   0.00040   0.00046
   D10       -3.14157   0.00000   0.00000   0.00014   0.00015  -3.14142
   D11        0.00022  -0.00001  -0.00005  -0.00041  -0.00046  -0.00024
   D12        3.14153  -0.00000  -0.00001  -0.00019  -0.00020   3.14133
   D13       -3.14133  -0.00000  -0.00003  -0.00015  -0.00017  -3.14151
   D14       -0.00002   0.00000   0.00001   0.00007   0.00008   0.00006
   D15       -0.00039   0.00001   0.00005   0.00023   0.00027  -0.00011
   D16        3.14146   0.00000   0.00001   0.00003   0.00004   3.14150
   D17       -0.00032   0.00000   0.00000   0.00002   0.00002  -0.00030
   D18        3.14139   0.00000   0.00000   0.00004   0.00004   3.14143
         Item               Value     Threshold  Converged?
 Maximum Force            0.003158     0.000450     NO 
 RMS     Force            0.000780     0.000300     NO 
 Maximum Displacement     0.012260     0.001800     NO 
 RMS     Displacement     0.004183     0.001200     NO 
 Predicted change in Energy=-2.957679D-05
 GradGradGradGradGradGradGradGradGradGradGradGradGradGradGradGradGradGrad

                          Input orientation:                          
 ---------------------------------------------------------------------
 Center     Atomic      Atomic             Coordinates (Angstroms)
 Number     Number       Type             X           Y           Z
 ---------------------------------------------------------------------
      1          7           0       -0.003191   -0.095260   -0.000169
      2          7           0        0.705859    1.145166   -0.000340
      3          6           0        2.033406    0.690780    0.000275
      4          6           0        2.092866   -0.664366    0.000172
      5          7           0        0.819339   -1.249637   -0.000211
      6          1           0        2.844538    1.407240    0.000477
      7          1           0        2.970241   -1.298426    0.000323
      8          1           0       -1.155999    1.780112    0.000124
      9          6           0       -1.308919   -0.117538    0.000081
     10          8           0       -1.898357    1.143850    0.000052
     11          8           0       -2.075260   -1.149712    0.000189
 ---------------------------------------------------------------------
                    Distance matrix (angstroms):
                    1          2          3          4          5
     1  N    0.000000
     2  N    1.428779   0.000000
     3  C    2.183022   1.403157   0.000000
     4  C    2.171943   2.279955   1.356449   0.000000
     5  N    1.417441   2.397490   2.288924   1.401576   0.000000
     6  H    3.219793   2.154676   1.082243   2.203760   3.340722
     7  H    3.207633   3.331452   2.198772   1.082506   2.151456
     8  H    2.201360   1.967147   3.370304   4.065783   3.616813
     9  C    1.305918   2.377762   3.438679   3.445456   2.410629
    10  O    2.264299   2.604216   3.957782   4.381724   3.621415
    11  O    2.324938   3.605702   4.502060   4.196288   2.896323
                    6          7          8          9         10
     6  H    0.000000
     7  H    2.708584   0.000000
     8  H    4.017876   5.148131   0.000000
     9  C    4.424495   4.439112   1.903801   0.000000
    10  O    4.750203   5.446831   0.977714   1.392313   0.000000
    11  O    5.544584   5.047692   3.070653   1.285559   2.300374
                   11
    11  O    0.000000
 Stoichiometry    C3H3N3O2(2-)
 Framework group  C1[X(C3H3N3O2)]
 Deg. of freedom    27
 Full point group                 C1      NOp   1
 Largest Abelian subgroup         C1      NOp   1
 Largest concise Abelian subgroup C1      NOp   1
                         Standard orientation:                         
 ---------------------------------------------------------------------
 Center     Atomic      Atomic             Coordinates (Angstroms)
 Number     Number       Type             X           Y           Z
 ---------------------------------------------------------------------
      1          7           0       -0.009905   -0.093560   -0.000185
      2          7           0        0.690305    1.151878   -0.000357
      3          6           0        2.021050    0.706943    0.000258
      4          6           0        2.090146   -0.647745    0.000155
      5          7           0        0.820813   -1.242058   -0.000228
      6          1           0        2.827066    1.429154    0.000460
      7          1           0        2.972008   -1.275550    0.000306
      8          1           0       -1.176021    1.773566    0.000107
      9          6           0       -1.315442   -0.125123    0.000064
     10          8           0       -1.913836    1.132041    0.000035
     11          8           0       -2.074423   -1.162721    0.000172
 ---------------------------------------------------------------------
 Rotational constants (GHZ):           5.0303567           1.7800556           1.3147978
 Standard basis: 6-31+G(d,p) (6D, 7F)
 There are   167 symmetry adapted cartesian basis functions of A   symmetry.
 There are   167 symmetry adapted basis functions of A   symmetry.
   167 basis functions,   277 primitive gaussians,   167 cartesian basis functions
    30 alpha electrons       30 beta electrons
       nuclear repulsion energy       355.5466951639 Hartrees.
 NAtoms=   11 NActive=   11 NUniq=   11 SFac= 1.00D+00 NAtFMM=   60 NAOKFM=F Big=F
 Integral buffers will be    131072 words long.
 Raffenetti 2 integral format.
 Two-electron integral symmetry is turned on.
 ------------------------------------------------------------------------------
 Polarizable Continuum Model (PCM)
 =================================
 Model                : PCM.
 Atomic radii         : SMD-Coulomb.
 Polarization charges : Total charges.
 Charge compensation  : None.
 Solution method      : On-the-fly selection.
 Cavity type          : VdW (van der Waals Surface) (Alpha=1.000).
 Cavity algorithm     : GePol (No added spheres)
                        Default sphere list used, NSphG=   11.
                        Lebedev-Laikov grids with approx.  5.0 points / Ang**2.
                        Smoothing algorithm: York/Karplus (Gamma=1.0000).
                        Polarization charges: spherical gaussians, with
                                              point-specific exponents (IZeta= 3).
                        Self-potential: point-specific (ISelfS= 7).
                        Self-field    : sphere-specific E.n sum rule (ISelfD= 2).
 1st derivatives      : Analytical E(r).r(x)/FMM algorithm (CHGder, D1EAlg=3).
                        Cavity 1st derivative terms included.
 Solvent              : Water, Eps=  78.355300 Eps(inf)=   1.777849
 ------------------------------------------------------------------------------
 Spheres list:
 ISph  on   Nord     Re0    Alpha      Xe            Ye            Ze
    1   N      1    1.8900  1.000     -0.009905     -0.093560     -0.000185
    2   N      2    1.8900  1.000      0.690305      1.151878     -0.000357
    3   C      3    1.8500  1.000      2.021050      0.706943      0.000258
    4   C      4    1.8500  1.000      2.090146     -0.647745      0.000155
    5   N      5    1.8900  1.000      0.820813     -1.242058     -0.000228
    6   H      6    1.2000  1.000      2.827066      1.429154      0.000460
    7   H      7    1.2000  1.000      2.972008     -1.275550      0.000306
    8   H      8    1.2000  1.000     -1.176021      1.773566      0.000107
    9   C      9    1.8500  1.000     -1.315442     -0.125123      0.000064
   10   O     10    1.5200  1.000     -1.913836      1.132041      0.000035
   11   O     11    1.5200  1.000     -2.074423     -1.162721      0.000172
 ------------------------------------------------------------------------------
 ------------------------------------------------------------------------------
 Atomic radii for non-electrostatic terms: SMD-CDS.
 ------------------------------------------------------------------------------
 Nuclear repulsion after PCM non-electrostatic terms =      355.5513222015 Hartrees.
 One-electron integrals computed using PRISM.
 NBasis=   167 RedAO= T EigKep=  2.74D-05  NBF=   167
 NBsUse=   167 1.00D-06 EigRej= -1.00D+00 NBFU=   167
 Initial guess from the checkpoint file:  "/scratch/gongke2021/1-H-Tz-2-eletron/Gau-22670.chk"
 B after Tr=     0.000000   -0.000000   -0.000000
         Rot=    1.000000    0.000020   -0.000012   -0.000409 Ang=   0.05 deg.
 Keep R1 ints in memory in canonical form, NReq=118249495.
 Requested convergence on RMS density matrix=1.00D-08 within 128 cycles.
 Requested convergence on MAX density matrix=1.00D-06.
 Requested convergence on             energy=1.00D-06.
 No special actions if energy rises.
 Inv3:  Mode=1 IEnd=     3133452.
 Iteration    1 A*A^-1 deviation from unit magnitude is 4.00D-15 for    508.
 Iteration    1 A*A^-1 deviation from orthogonality  is 1.48D-15 for    451    264.
 Iteration    1 A^-1*A deviation from unit magnitude is 3.55D-15 for   1017.
 Iteration    1 A^-1*A deviation from orthogonality  is 1.28D-15 for    966    443.
 Error on total polarization charges =  0.07683
 SCF Done:  E(RM062X) =  -430.818042366     A.U. after   11 cycles
            NFock= 11  Conv=0.35D-08     -V/T= 2.0086
 SMD-CDS (non-electrostatic) energy       (kcal/mol) =       2.90
 (included in total energy above)
 D1PCM: PCM CHGder 1st derivatives, ID1Alg=3 FixD1E=F DoIter=F DoCFld=F I1PDM=0.
 Calling FoFJK, ICntrl=      2127 FMM=F ISym2X=0 I1Cent= 0 IOpClX= 0 NMat=1 NMatS=1 NMatT=0.
 ***** Axes restored to original set *****
 -------------------------------------------------------------------
 Center     Atomic                   Forces (Hartrees/Bohr)
 Number     Number              X              Y              Z
 -------------------------------------------------------------------
      1        7           0.000291714    0.000370801   -0.000000307
      2        7           0.000560637   -0.000444160    0.000006920
      3        6          -0.000937694    0.000393751   -0.000012842
      4        6          -0.000187692   -0.000243062    0.000016061
      5        7           0.000246481   -0.000095651   -0.000012167
      6        1          -0.000076687   -0.000019584   -0.000002659
      7        1          -0.000202302   -0.000230365    0.000002514
      8        1           0.000144334    0.000145703    0.000001078
      9        6           0.000030254    0.000285515    0.000004569
     10        8           0.000200282    0.000026358   -0.000000272
     11        8          -0.000069325   -0.000189306   -0.000002896
 -------------------------------------------------------------------
 Cartesian Forces:  Max     0.000937694 RMS     0.000260510

 GradGradGradGradGradGradGradGradGradGradGradGradGradGradGradGradGradGrad
 Berny optimization.
 Using GEDIIS/GDIIS optimizer.
 FormGI is forming the generalized inverse of G from B-inverse, IUseBI=4.
 Internal  Forces:  Max     0.000942465 RMS     0.000218650
 Search for a local minimum.
 Step number   4 out of a maximum of   54
 All quantities printed in internal units (Hartrees-Bohrs-Radians)
 Mixed Optimization -- En-DIIS/RFO-DIIS
 Swapping is turned off.
 Update second derivatives using D2CorX and points    1    2    3    4
 DE= -2.48D-05 DEPred=-2.96D-05 R= 8.38D-01
 TightC=F SS=  1.41D+00  RLast= 1.28D-02 DXNew= 5.7254D-01 3.8391D-02
 Trust test= 8.38D-01 RLast= 1.28D-02 DXMaxT set to 3.40D-01
 ITU=  1  1  1  0
     Eigenvalues ---    0.01101   0.01711   0.01879   0.02057   0.02179
     Eigenvalues ---    0.02274   0.02414   0.02700   0.13891   0.15998
     Eigenvalues ---    0.16453   0.22513   0.23532   0.24644   0.26770
     Eigenvalues ---    0.29334   0.35108   0.35378   0.35628   0.39464
     Eigenvalues ---    0.42411   0.45818   0.47358   0.49329   0.54627
     Eigenvalues ---    0.70142   0.70706
 En-DIIS/RFO-DIIS/Sim-DIIS IScMMF=       -3 using points:     4    3
 RFO step:  Lambda=-5.04289578D-06.
 DidBck=F Rises=F RFO-DIIS coefs:    1.04666   -0.04666
 Iteration  1 RMS(Cart)=  0.00139864 RMS(Int)=  0.00000055
 Iteration  2 RMS(Cart)=  0.00000068 RMS(Int)=  0.00000005
 Variable       Old X    -DE/DX   Delta X   Delta X   Delta X     New X
                                 (Linear)    (Quad)   (Total)
    R1        2.70000  -0.00042  -0.00004  -0.00107  -0.00111   2.69890
    R2        2.67858  -0.00001   0.00012   0.00010   0.00022   2.67880
    R3        2.46783  -0.00027   0.00019  -0.00025  -0.00006   2.46777
    R4        2.65158  -0.00094  -0.00004  -0.00186  -0.00190   2.64969
    R5        2.56332   0.00033   0.00014   0.00069   0.00082   2.56414
    R6        2.04514  -0.00005   0.00003  -0.00014  -0.00011   2.04503
    R7        2.64859  -0.00042   0.00009  -0.00069  -0.00060   2.64800
    R8        2.04564  -0.00004   0.00005  -0.00008  -0.00003   2.04561
    R9        1.84761   0.00013   0.00001   0.00037   0.00038   1.84799
   R10        2.63109  -0.00007   0.00005   0.00001   0.00006   2.63115
   R11        2.42935   0.00023   0.00010   0.00032   0.00042   2.42977
    A1        2.00322   0.00026  -0.00019   0.00075   0.00056   2.00378
    A2        2.10714  -0.00029  -0.00002  -0.00102  -0.00104   2.10610
    A3        2.17282   0.00003   0.00021   0.00028   0.00048   2.17331
    A4        1.76031  -0.00006   0.00020  -0.00026  -0.00006   1.76025
    A5        1.94442   0.00011  -0.00006   0.00040   0.00034   1.94476
    A6        2.08831  -0.00018  -0.00005  -0.00094  -0.00099   2.08732
    A7        2.25045   0.00007   0.00011   0.00054   0.00065   2.25110
    A8        1.95773  -0.00003  -0.00009  -0.00019  -0.00028   1.95745
    A9        2.24043   0.00024   0.00014   0.00141   0.00155   2.24199
   A10        2.08503  -0.00020  -0.00005  -0.00122  -0.00128   2.08375
   A11        1.75910  -0.00029   0.00013  -0.00070  -0.00057   1.75854
   A12        1.99088  -0.00032   0.00016  -0.00091  -0.00076   1.99012
   A13        2.22651  -0.00001   0.00001  -0.00022  -0.00020   2.22630
   A14        2.06580   0.00033  -0.00017   0.00113   0.00096   2.06676
   A15        1.84225   0.00002   0.00014   0.00043   0.00057   1.84282
    D1       -0.00056   0.00000  -0.00001   0.00000  -0.00001  -0.00056
    D2        3.14097   0.00000  -0.00001   0.00000  -0.00001   3.14096
    D3        0.00043   0.00000  -0.00000   0.00021   0.00021   0.00064
    D4       -3.14110   0.00000   0.00000   0.00021   0.00021  -3.14088
    D5        0.00008  -0.00000   0.00000  -0.00005  -0.00004   0.00004
    D6        3.14153  -0.00000   0.00000  -0.00010  -0.00009   3.14143
    D7       -3.14158  -0.00000   0.00000  -0.00005  -0.00005   3.14156
    D8       -0.00014  -0.00000  -0.00000  -0.00010  -0.00010  -0.00023
    D9        0.00046  -0.00001   0.00002  -0.00024  -0.00022   0.00024
   D10       -3.14142  -0.00000   0.00001  -0.00006  -0.00005  -3.14147
   D11       -0.00024   0.00001  -0.00002   0.00040   0.00038   0.00015
   D12        3.14133   0.00000  -0.00001   0.00013   0.00012   3.14145
   D13       -3.14151   0.00000  -0.00001   0.00020   0.00019  -3.14131
   D14        0.00006  -0.00000   0.00000  -0.00007  -0.00007  -0.00001
   D15       -0.00011  -0.00001   0.00001  -0.00036  -0.00035  -0.00046
   D16        3.14150  -0.00000   0.00000  -0.00011  -0.00011   3.14139
   D17       -0.00030  -0.00000   0.00000  -0.00007  -0.00007  -0.00037
   D18        3.14143  -0.00000   0.00000  -0.00003  -0.00003   3.14140
         Item               Value     Threshold  Converged?
 Maximum Force            0.000942     0.000450     NO 
 RMS     Force            0.000219     0.000300     YES
 Maximum Displacement     0.004848     0.001800     NO 
 RMS     Displacement     0.001399     0.001200     NO 
 Predicted change in Energy=-2.521469D-06
 GradGradGradGradGradGradGradGradGradGradGradGradGradGradGradGradGradGrad

                          Input orientation:                          
 ---------------------------------------------------------------------
 Center     Atomic      Atomic             Coordinates (Angstroms)
 Number     Number       Type             X           Y           Z
 ---------------------------------------------------------------------
      1          7           0       -0.002842   -0.095907   -0.000237
      2          7           0        0.705145    1.144453   -0.000395
      3          6           0        2.031997    0.691135    0.000164
      4          6           0        2.092700   -0.664391    0.000296
      5          7           0        0.819826   -1.250328   -0.000348
      6          1           0        2.841973    1.408815    0.000313
      7          1           0        2.969648   -1.299014    0.000572
      8          1           0       -1.153615    1.780419    0.000316
      9          6           0       -1.308549   -0.117633    0.000064
     10          8           0       -1.896513    1.144478    0.000157
     11          8           0       -2.075246   -1.149819    0.000072
 ---------------------------------------------------------------------
                    Distance matrix (angstroms):
                    1          2          3          4          5
     1  N    0.000000
     2  N    1.428194   0.000000
     3  C    2.181744   1.402153   0.000000
     4  C    2.171283   2.279742   1.356884   0.000000
     5  N    1.417558   2.397526   2.288808   1.401261   0.000000
     6  H    3.218254   2.153118   1.082185   2.204448   3.340676
     7  H    3.206737   3.331441   2.199973   1.082490   2.150373
     8  H    2.201108   1.964546   3.366699   4.063945   3.616614
     9  C    1.305888   2.376516   3.437057   3.444915   2.411012
    10  O    2.263745   2.601658   3.954581   4.380162   3.621269
    11  O    2.324992   3.604755   4.500951   4.196119   2.896816
                    6          7          8          9         10
     6  H    0.000000
[...]
    R7        2.64800  -0.00001   0.00000   0.00008   0.00008   2.64808
    R8        2.04561  -0.00003   0.00000  -0.00010  -0.00010   2.04551
    R9        1.84799  -0.00004   0.00000  -0.00000  -0.00000   1.84799
   R10        2.63115  -0.00016   0.00000  -0.00025  -0.00025   2.63090
   R11        2.42977   0.00003   0.00000   0.00014   0.00014   2.42991
    A1        2.00378  -0.00011   0.00000  -0.00037  -0.00037   2.00341
    A2        2.10610   0.00016   0.00000   0.00047   0.00047   2.10657
    A3        2.17331  -0.00005   0.00000  -0.00010  -0.00010   2.17321
    A4        1.76025   0.00014   0.00000   0.00055   0.00055   1.76080
    A5        1.94476  -0.00003   0.00000  -0.00009  -0.00009   1.94468
    A6        2.08732   0.00002   0.00000   0.00010   0.00010   2.08742
    A7        2.25110   0.00001   0.00000  -0.00001  -0.00001   2.25109
    A8        1.95745  -0.00002   0.00000  -0.00023  -0.00023   1.95722
    A9        2.24199   0.00006   0.00000   0.00061   0.00061   2.24259
   A10        2.08375  -0.00004   0.00000  -0.00037  -0.00037   2.08338
   A11        1.75854   0.00002   0.00000   0.00014   0.00014   1.75868
   A12        1.99012   0.00000   0.00000  -0.00002  -0.00002   1.99010
   A13        2.22630  -0.00001   0.00000  -0.00016  -0.00016   2.22615
   A14        2.06676   0.00001   0.00000   0.00018   0.00018   2.06694
   A15        1.84282  -0.00019   0.00000  -0.00088  -0.00088   1.84193
    D1       -0.00056  -0.00000   0.00000  -0.00067  -0.00067  -0.00123
    D2        3.14096  -0.00000   0.00000  -0.00074  -0.00074   3.14023
    D3        0.00064  -0.00000   0.00000   0.00055   0.00055   0.00119
    D4       -3.14088  -0.00000   0.00000   0.00062   0.00062  -3.14026
    D5        0.00004   0.00000   0.00000   0.00010   0.00010   0.00014
    D6        3.14143   0.00000   0.00000  -0.00017  -0.00017   3.14126
    D7        3.14156   0.00000   0.00000   0.00003   0.00003   3.14159
    D8       -0.00023  -0.00000   0.00000  -0.00024  -0.00024  -0.00048
    D9        0.00024   0.00001   0.00000   0.00051   0.00051   0.00076
   D10       -3.14147   0.00000   0.00000   0.00019   0.00019  -3.14128
   D11        0.00015  -0.00001   0.00000  -0.00022  -0.00022  -0.00007
   D12        3.14145  -0.00000   0.00000  -0.00030  -0.00030   3.14115
   D13       -3.14131  -0.00000   0.00000   0.00014   0.00014  -3.14117
   D14       -0.00001   0.00000   0.00000   0.00006   0.00006   0.00005
   D15       -0.00046   0.00001   0.00000  -0.00019  -0.00019  -0.00065
   D16        3.14139   0.00000   0.00000  -0.00012  -0.00012   3.14127
   D17       -0.00037  -0.00000   0.00000  -0.00039  -0.00039  -0.00077
   D18        3.14140   0.00000   0.00000  -0.00015  -0.00015   3.14125
         Item               Value     Threshold  Converged?
 Maximum Force            0.000264     0.000450     YES
 RMS     Force            0.000071     0.000300     YES
 Maximum Displacement     0.001159     0.001800     YES
 RMS     Displacement     0.000405     0.001200     YES
 Predicted change in Energy=-4.013156D-07
 Optimization completed.
    -- Stationary point found.
                           ----------------------------
                           !   Optimized Parameters   !
                           ! (Angstroms and Degrees)  !
 --------------------------                            --------------------------
 ! Name  Definition              Value          Derivative Info.                !
 --------------------------------------------------------------------------------
 ! R1    R(1,2)                  1.4282         -DE/DX =   -0.0001              !
 ! R2    R(1,5)                  1.4176         -DE/DX =   -0.0001              !
 ! R3    R(1,9)                  1.3059         -DE/DX =    0.0                 !
 ! R4    R(2,3)                  1.4022         -DE/DX =   -0.0003              !
 ! R5    R(3,4)                  1.3569         -DE/DX =   -0.0001              !
 ! R6    R(3,6)                  1.0822         -DE/DX =    0.0                 !
 ! R7    R(4,5)                  1.4013         -DE/DX =    0.0                 !
 ! R8    R(4,7)                  1.0825         -DE/DX =    0.0                 !
 ! R9    R(8,10)                 0.9779         -DE/DX =    0.0                 !
 ! R10   R(9,10)                 1.3923         -DE/DX =   -0.0002              !
 ! R11   R(9,11)                 1.2858         -DE/DX =    0.0                 !
 ! A1    A(2,1,5)              114.808          -DE/DX =   -0.0001              !
 ! A2    A(2,1,9)              120.6707         -DE/DX =    0.0002              !
 ! A3    A(5,1,9)              124.5213         -DE/DX =    0.0                 !
 ! A4    A(1,2,3)              100.8547         -DE/DX =    0.0001              !
 ! A5    A(2,3,4)              111.4268         -DE/DX =    0.0                 !
 ! A6    A(2,3,6)              119.5947         -DE/DX =    0.0                 !
 ! A7    A(4,3,6)              128.9785         -DE/DX =    0.0                 !
 ! A8    A(3,4,5)              112.1538         -DE/DX =    0.0                 !
 ! A9    A(3,4,7)              128.4563         -DE/DX =    0.0001              !
 ! A10   A(5,4,7)              119.3899         -DE/DX =    0.0                 !
 ! A11   A(1,5,4)              100.7567         -DE/DX =    0.0                 !
 ! A12   A(1,9,10)             114.0255         -DE/DX =    0.0                 !
 ! A13   A(1,9,11)             127.5578         -DE/DX =    0.0                 !
 ! A14   A(10,9,11)            118.4166         -DE/DX =    0.0                 !
 ! A15   A(8,10,9)             105.5856         -DE/DX =   -0.0002              !
 ! D1    D(5,1,2,3)             -0.0323         -DE/DX =    0.0                 !
 ! D2    D(9,1,2,3)            179.9639         -DE/DX =    0.0                 !
 ! D3    D(2,1,5,4)              0.0367         -DE/DX =    0.0                 !
 ! D4    D(9,1,5,4)           -179.9594         -DE/DX =    0.0                 !
 ! D5    D(2,1,9,10)             0.0022         -DE/DX =    0.0                 !
 ! D6    D(2,1,9,11)           179.9907         -DE/DX =    0.0                 !
 ! D7    D(5,1,9,10)           179.998          -DE/DX =    0.0                 !
 ! D8    D(5,1,9,11)            -0.0134         -DE/DX =    0.0                 !
 ! D9    D(1,2,3,4)              0.0138         -DE/DX =    0.0                 !
 ! D10   D(1,2,3,6)           -179.9931         -DE/DX =    0.0                 !
 ! D11   D(2,3,4,5)              0.0083         -DE/DX =    0.0                 !
 ! D12   D(2,3,4,7)            179.9918         -DE/DX =    0.0                 !
 ! D13   D(6,3,4,5)           -179.9839         -DE/DX =    0.0                 !
 ! D14   D(6,3,4,7)             -0.0004         -DE/DX =    0.0                 !
 ! D15   D(3,4,5,1)             -0.0263         -DE/DX =    0.0                 !
 ! D16   D(7,4,5,1)            179.9885         -DE/DX =    0.0                 !
 ! D17   D(1,9,10,8)            -0.0214         -DE/DX =    0.0                 !
 ! D18   D(11,9,10,8)          179.9889         -DE/DX =    0.0                 !
 --------------------------------------------------------------------------------
 GradGradGradGradGradGradGradGradGradGradGradGradGradGradGradGradGradGrad


 ----------------------------------------------------------------------

 Electric dipole moment (input orientation):
 (Debye = 10**-18 statcoulomb cm , SI units = C m)
                  (au)            (Debye)         (10**-30 SI)
   Tot        0.280930D+01      0.714052D+01      0.238182D+02
   x          0.195782D+01      0.497628D+01      0.165991D+02
   y          0.201472D+01      0.512091D+01      0.170815D+02
   z          0.923807D-03      0.234808D-02      0.783236D-02

 Dipole polarizability, Alpha (input orientation).
 (esu units = cm**3 , SI units = C**2 m**2 J**-1)
 Alpha(0;0):
               (au)            (10**-24 esu)      (10**-40 SI)
   iso        0.131002D+03      0.194126D+02      0.215994D+02
   aniso      0.726676D+02      0.107682D+02      0.119813D+02
   xx         0.169064D+03      0.250527D+02      0.278749D+02
   yx         0.746007D+01      0.110547D+01      0.123000D+01
   yy         0.136832D+03      0.202764D+02      0.225606D+02
   zx         0.202172D-01      0.299588D-02      0.333337D-02
   zy        -0.204065D-02     -0.302393D-03     -0.336457D-03
   zz         0.871114D+02      0.129086D+02      0.143627D+02

 ----------------------------------------------------------------------

 Dipole orientation:
     7          0.08810105         -0.08504833         -0.13372015
     7         -0.39446932          0.38550577          2.47965768
     6          1.32280436         -1.28421897          3.61271740
     6          2.66148731         -2.58624440          1.85559738
     7          1.97803238         -1.92152866         -0.61481603
     1          1.43248228         -1.39025526          5.65205186
     1          4.11290736         -3.99726050          2.15043784
     1         -2.80300270          2.72340988          0.89362777
     6         -1.16122896          1.12739855         -1.88273050
     8         -2.92462664          2.84117451         -0.94659229
     8         -0.93208971          0.90360712         -4.29130041

 Electric dipole moment (dipole orientation):
 (Debye = 10**-18 statcoulomb cm , SI units = C m)
                  (au)            (Debye)         (10**-30 SI)
   Tot        0.280930D+01      0.714052D+01      0.238182D+02
   x          0.000000D+00      0.000000D+00      0.000000D+00
   y          0.000000D+00      0.000000D+00      0.000000D+00
   z          0.280930D+01      0.714052D+01      0.238182D+02

 Dipole polarizability, Alpha (dipole orientation).
 (esu units = cm**3 , SI units = C**2 m**2 J**-1)
 Alpha(0;0):
               (au)            (10**-24 esu)      (10**-40 SI)
   iso        0.131002D+03      0.194126D+02      0.215994D+02
   aniso      0.726676D+02      0.107682D+02      0.119813D+02
   xx         0.117364D+03      0.173916D+02      0.193507D+02
   yx        -0.294088D+02     -0.435794D+01     -0.484886D+01
   yy         0.115700D+03      0.171449D+02      0.190763D+02
   zx         0.117141D+02      0.173585D+01      0.193140D+01
   zy        -0.113675D+02     -0.168449D+01     -0.187424D+01
   zz         0.159943D+03      0.237012D+02      0.263711D+02

 ----------------------------------------------------------------------
 1\1\GINC-NODE2\Freq\RM062X\6-31+G(d,p)\C3H3N3O2(2-)\GONGKE2021\23-Jul-
 2023\0\\#N Geom=AllCheck Guess=TCheck SCRF=Check GenChk RM062X/6-31+G(
 d,p) Freq\\"Sketch 2"\\-2,1\N,-0.0028423841,-0.0959067683,-0.000237445
 4\N,0.7051453063,1.1444528836,-0.0003950726\C,2.0319973698,0.691135097
 9,0.0001643298\C,2.0926997947,-0.6643907638,0.0002960695\N,0.819825573
 ,-1.2503283144,-0.0003480898\H,2.8419725279,1.4088145079,0.0003128103\
 H,2.9696476607,-1.2990139625,0.000571509\H,-1.1536149199,1.7804186651,
 0.0003162591\C,-1.3085494004,-0.1176328021,0.0000640834\O,-1.896512505
 9,1.1444781257,0.0001569879\O,-2.0752460221,-1.1498186691,0.0000715588
 \\Version=ES64L-G16RevA.03\State=1-A\HF=-430.8180448\RMSD=4.206e-09\RM
 SF=1.101e-04\ZeroPoint=0.0687211\Thermal=0.0748792\Dipole=1.9578177,2.
 0147224,0.0009238\DipoleDeriv=0.5497441,0.0239329,-0.0006303,-0.069920
 1,-0.2816173,-0.0000989,-0.0012269,0.0000298,0.0121731,-1.5613721,1.18
 22709,-0.0006771,-0.8439315,-1.2033733,0.000414,0.0008826,0.0008415,-0
 .5840745,0.54408,-1.2320374,0.000983,-0.6795731,0.2085955,-0.0012061,-
 0.0000356,-0.0012264,-0.4552746,0.4447454,1.2552525,0.0007598,0.725266
 4,0.5010125,0.0011734,-0.0003745,0.0011315,-0.4523746,-1.4815186,-1.22
 97838,-0.0005469,0.8564038,-1.0600518,-0.000341,0.0008391,-0.0007697,-
 0.5943435,-0.0734224,-0.1169214,-0.0001289,-0.1378272,0.02624,0.000033
 ,-0.0000316,0.0001094,0.3319364,-0.0985118,0.1062519,-0.0001431,0.1322
 941,0.0510843,0.0000053,-0.0000608,-0.0000585,0.3166034,0.5559765,-0.1
 096407,-0.0000144,-0.0314489,0.418056,-0.0000067,0.0000601,-0.0000702,
 0.4278527,2.857065,0.4166915,-0.0001615,0.9826809,2.3723969,-0.0000299
 ,0.0005961,-0.0000161,0.5848651,-1.2434638,0.1931953,0.0002189,0.97550
 08,-1.3954987,-0.0003295,-0.0003582,0.0000792,-0.6800839,-2.4933225,-0
 .4892117,0.0003405,-1.9094452,-1.6368442,0.0003862,-0.0002903,-0.00005
 04,-0.9072797\Polar=169.0638744,7.4600734,136.8320178,0.0202172,-0.002
 0406,87.1113691\Quadrupole=-8.0600652,-0.8930086,8.9530738,-4.6530653,
 0.0012538,0.0007664\PG=C01 [X(C3H3N3O2)]\NImag=1\\0.99703503,-0.007456
 20,0.48573413,-0.00008970,0.00001001,0.09004852,-0.14122631,-0.0453213
 9,0.00002544,0.44526258,0.00206995,-0.14973087,0.00003183,-0.04395594,
 0.32133941,0.00003028,0.00001686,-0.02948054,0.00006691,-0.00008968,0.
 03224295,-0.04887524,-0.03313354,-0.00001952,-0.23073671,0.02505556,-0
 .00006783,0.62336725,-0.05455093,-0.00768450,-0.00000585,0.09360833,-0
 .10724722,0.00004638,0.13948308,0.82532082,-0.00001698,-0.00001705,-0.
 00023541,-0.00005982,0.00002214,-0.02555063,0.00015480,-0.00003034,0.0
 7682060,-0.06085991,0.02719533,-0.00003338,-0.07366185,0.04352070,-0.0
 0006321,-0.05160652,0.01176982,0.00002575,0.65337568,0.05247280,-0.002
 09379,0.00000404,0.04537925,-0.04235011,0.00001345,0.02709664,-0.45253
 154,0.00005458,-0.15627522,0.79745528,-0.00002206,0.00002569,-0.001022
 67,-0.00007670,0.00003190,0.02405750,0.00003527,0.00001092,-0.05366557
 ,0.00020408,-0.00005556,0.08280869,-0.14857640,0.05583457,0.00003519,0
 .03951788,0.00583156,0.00002118,-0.06326048,-0.04757108,-0.00005855,-0
 .21911013,-0.10317398,-0.00007052,0.42390461,0.00051670,-0.15711150,-0
 .00002835,-0.00044488,-0.03015674,0.00000602,-0.04265601,-0.05195005,-
 0.00003539,-0.03688293,-0.11909458,-0.00002940,0.04662637,0.34238367,0
 .00002280,-0.00002656,-0.02810768,0.00003387,-0.00000248,-0.01731432,-
 0.00006574,-0.00000456,0.02478455,-0.00007140,-0.00006097,-0.03051839,
 0.00007307,0.00009590,0.03672830,-0.00726929,0.00137173,-0.00000338,-0
 .01251588,-0.02000613,0.00000186,-0.22095601,-0.14745646,-0.00004564,0
 .00773959,0.00444425,0.00000327,-0.00022754,0.00263620,-0.00000207,0.2
 3341817,0.00550969,-0.00081453,-0.00000038,0.00689224,0.01052769,-0.00
 000056,-0.15111276,-0.19409308,-0.00001519,-0.02469993,-0.00590986,-0.
 00001005,0.00082112,-0.00398093,0.00000327,0.16198513,0.19311939,-0.00
 000134,-0.00000516,0.00149713,0.00000150,-0.00000714,-0.00399654,-0.00
 004537,-0.00001235,-0.01822853,0.00000362,-0.00000123,0.00055224,-0.00
 000533,0.00000335,0.00697776,0.00004576,0.00002355,0.01619333,-0.00686
 563,-0.00154402,-0.00000478,-0.00001558,-0.00227386,-0.00000211,0.0056
 5220,-0.00346298,0.00000285,-0.24891485,0.14100209,-0.00007646,-0.0133
 2162,0.01775050,0.00000128,-0.00023792,0.00070453,0.00000089,0.2639038
 9,-0.00622155,-0.00106585,-0.00000157,-0.00017601,-0.00461463,-0.00000
 074,0.02590178,-0.00404945,0.00000901,0.14458772,-0.16513425,0.0000400
 5,-0.00914800,0.01137619,-0.00000011,-0.00074679,0.00024605,0.,-0.1541
 5120,0.16195502,-0.00000126,0.00000306,0.00170392,-0.00000182,-0.00000
 314,0.00709185,-0.00000266,0.00000493,0.00059653,-0.00007344,0.0000341
 5,-0.01979975,-0.00000041,0.00000762,-0.00389863,0.00000088,-0.0000007
 8,-0.00385307,0.00007901,-0.00004686,0.01716988,0.00060570,0.00969283,
 0.00000269,0.01066793,-0.00120609,0.00001507,-0.00735092,-0.00279341,-
 0.00001450,0.00476912,-0.00161822,0.00000195,-0.00378721,0.00120836,0.
 00000072,0.00017399,0.00024306,0.00000026,-0.00021142,-0.00059865,0.00
 000066,0.27083100,0.00252833,-0.00259506,-0.00000325,-0.00027798,-0.00
 182336,0.00000228,-0.00026934,-0.00024700,0.00000007,-0.00068401,0.001
 04150,-0.00000073,-0.00143819,-0.00050265,0.00000105,-0.00027558,-0.00
 001360,0.00000001,-0.00028059,0.00006579,-0.00000024,0.21027671,0.2619
 9145,-0.00000143,-0.00000198,0.00337577,0.00000451,-0.00000250,0.00033
 378,0.00000073,0.00000275,-0.00253126,0.00000069,0.00000136,-0.0006293
 4,-0.00000109,-0.00000222,-0.00084203,-0.00000008,-0.00000001,0.000112
 50,-0.00000015,0.00000043,0.00031331,0.00004710,0.00005049,0.00581399,
 -0.53090003,-0.00819807,0.00010755,-0.00753722,0.00998681,-0.00001913,
 -0.00885692,0.01356967,0.00001078,-0.00990167,-0.01452473,0.00000960,-
 0.00071705,-0.00813643,-0.00001671,0.00221727,-0.00015033,0.00000102,0
 .00215966,0.00024826,0.00000096,0.02043595,-0.02865111,0.00000122,0.89
 149073,-0.00594226,-0.12177326,0.00001127,-0.02725179,0.01639790,-0.00
 000667,0.00264235,-0.01023964,0.00000861,-0.00019012,-0.00854476,0.000
 00185,0.03989664,-0.00865180,-0.00001702,-0.00132353,0.00094635,-0.000
 00115,0.00206742,0.00069545,0.00000176,0.00300980,-0.03725413,-0.00000
 975,0.08869132,0.67855246,0.00000393,-0.00000126,-0.05724842,0.0000038
 8,0.00005162,0.01911691,0.00002004,-0.00002317,-0.00576177,0.00001497,
 0.00002392,-0.00460900,0.00000812,-0.00004808,0.01830298,-0.00000077,0
 .00000004,0.00017769,-0.00000094,-0.00000037,0.00004102,0.00000867,-0.
 00000250,0.00039389,-0.00008442,0.00002658,0.07381210,-0.03372517,0.05
 529123,0.00000087,-0.01512855,-0.00103422,-0.00000731,0.00146010,0.001
 66612,0.00000820,0.00049093,0.00654575,0.00000193,-0.00945191,-0.00239
 033,0.00000270,-0.00056501,-0.00017509,-0.00000040,-0.00110158,0.00017
 059,-0.00000155,-0.29309574,-0.18362083,-0.00005224,-0.15348413,0.0521
 7510,0.00001142,0.48482255,0.00330033,-0.03155248,0.00001220,-0.015213
 19,0.02018218,-0.00002179,0.00713023,0.00073384,0.00001614,-0.00446894
 ,-0.00129799,0.00000400,0.01546501,-0.01479197,-0.00001548,0.00053219,
 -0.00001881,-0.00000006,0.00114514,0.00040034,0.00000012,-0.22339918,-
 0.21535813,-0.00004264,0.10985499,-0.22558004,-0.00002628,0.10123350,0
 .52628372,0.00003582,-0.00001383,0.00748498,0.00000174,-0.00001071,-0.
 00703729,-0.00000629,0.00000315,0.00068236,-0.00000229,-0.00000849,0.0
 0362999,-0.00000122,0.00002121,0.00169254,-0.00000009,-0.00000005,-0.0
 0042642,0.00000053,0.00000018,0.00066096,-0.00005725,-0.00004381,-0.00
 744619,-0.00000572,-0.00000534,-0.02055045,0.00003997,0.00006762,0.021
 04449,-0.01934276,-0.05373246,-0.00002097,-0.01462627,-0.01798833,0.00
 002429,0.00116325,-0.00426216,-0.00000687,-0.00232038,-0.00134863,-0.0
 0001036,-0.00497014,0.02177246,0.00002148,-0.00177736,-0.00001767,-0.0
 0000061,-0.00104714,0.00013385,-0.00000038,-0.00303841,0.00269259,0.00
 000074,-0.20490659,-0.15377494,0.00001508,0.01977852,0.00441992,-0.000
 00519,0.23108727,0.00777312,-0.01131231,-0.00002996,-0.01323864,-0.032
 52424,0.00003443,-0.00013798,0.00198782,-0.00001258,-0.00387241,-0.001
 53991,-0.00001866,-0.00314403,0.03248036,0.00002695,-0.00116101,-0.000
 00867,0.00000018,-0.00095703,0.00012534,-0.00000063,0.00518478,-0.0053
 0483,0.00000409,-0.16269035,-0.28454853,-0.00000048,-0.02986181,-0.059
 00065,-0.00000992,0.20210537,0.35964561,0.00003994,0.00001022,0.011984
 40,0.00000050,-0.00002183,0.00053633,-0.00000345,0.00000813,0.00308912
 ,-0.00000540,-0.00000527,-0.00080371,-0.00000044,0.00000934,-0.0078051
 0,0.00000025,0.00000017,0.00099391,-0.00000011,-0.00000002,-0.00002602
 ,-0.00000537,-0.00000335,0.00110558,-0.00000514,-0.00001013,-0.0236749
 6,-0.00000357,0.00000617,0.00026502,-0.00001721,0.00000657,0.01433543\
 \0.00011842,-0.00016690,0.00000108,-0.00034452,0.00030920,0.00001179,0
 .00023250,-0.00002593,-0.00001498,-0.00003201,-0.00003548,0.00001123,0
 .00005366,-0.00006680,-0.00000689,-0.00005061,0.00007485,-0.00000212,0
 .00009774,0.00009720,0.00000226,-0.00008921,0.00005475,-0.00000047,-0.
 00003428,-0.00018570,-0.00000492,-0.00000050,-0.00000483,0.00000281,0.
 00004880,-0.00005037,0.00000022\\\@


 Everything starts as somebody's daydream.
                           -- Larry Niven
 Job cpu time:       0 days  0 hours 27 minutes  1.4 seconds.
 Elapsed time:       0 days  0 hours  1 minutes 21.5 seconds.
 File lengths (MBytes):  RWF=     59 Int=      0 D2E=      0 Chk=      7 Scr=      1
 Normal termination of Gaussian 16 at Sun Jul 23 00:47:36 2023.
