 Entering Gaussian System, Link 0=/opt/soft/g16/g16
 Initial command:
 /opt/soft/g16/l1.exe "/scratch/gongke2021/TS-2/Gau-4453.inp" -scrdir="/scratch/gongke2021/TS-2/"
 Entering Link 1 = /opt/soft/g16/l1.exe PID=      4454.
  
 Copyright (c) 1988,1990,1992,1993,1995,1998,2003,2009,2016,
            Gaussian, Inc.  All Rights Reserved.
  
 This is part of the Gaussian(R) 16 program.  It is based on
 the Gaussian(R) 09 system (copyright 2009, Gaussian, Inc.),
 the Gaussian(R) 03 system (copyright 2003, Gaussian, Inc.),
 the Gaussian(R) 98 system (copyright 1998, Gaussian, Inc.),
 the Gaussian(R) 94 system (copyright 1995, Gaussian, Inc.),
 the Gaussian 92(TM) system (copyright 1992, Gaussian, Inc.),
 the Gaussian 90(TM) system (copyright 1990, Gaussian, Inc.),
 the Gaussian 88(TM) system (copyright 1988, Gaussian, Inc.),
 the Gaussian 86(TM) system (copyright 1986, Carnegie Mellon
 University), and the Gaussian 82(TM) system (copyright 1983,
 Carnegie Mellon University). Gaussian is a federally registered
 trademark of Gaussian, Inc.
  
 This software contains proprietary and confidential information,
 including trade secrets, belonging to Gaussian, Inc.
  
 This software is provided under written license and may be
 used, copied, transmitted, or stored only in accord with that
 written license.
  
 The following legend is applicable only to US Government
 contracts under FAR:
  
                    RESTRICTED RIGHTS LEGEND
  
 Use, reproduction and disclosure by the US Government is
 subject to restrictions as set forth in subparagraphs (a)
 and (c) of the Commercial Computer Software - Restricted
 Rights clause in FAR 52.227-19.
  
 Gaussian, Inc.
 340 Quinnipiac St., Bldg. 40, Wallingford CT 06492
  
  
 ---------------------------------------------------------------
 Warning -- This program may not be used in any manner that
 competes with the business of Gaussian, Inc. or will provide
 assistance to any competitor of Gaussian, Inc.  The licensee
 of this program is prohibited from giving any competitor of
 Gaussian, Inc. access to this program.  By using this program,
 the user acknowledges that Gaussian, Inc. is engaged in the
 business of creating and licensing software in the field of
 computational chemistry and represents and warrants to the
 licensee that it is not a competitor of Gaussian, Inc. and that
 it will not use this program in any manner prohibited above.
 ---------------------------------------------------------------
  

 Cite this work as:
 Gaussian 16, Revision A.03,
 M. J. Frisch, G. W. Trucks, H. B. Schlegel, G. E. Scuseria, 
 M. A. Robb, J. R. Cheeseman, G. Scalmani, V. Barone, 
 G. A. Petersson, H. Nakatsuji, X. Li, M. Caricato, A. V. Marenich, 
 J. Bloino, B. G. Janesko, R. Gomperts, B. Mennucci, H. P. Hratchian, 
 J. V. Ortiz, A. F. Izmaylov, J. L. Sonnenberg, D. Williams-Young, 
 F. Ding, F. Lipparini, F. Egidi, J. Goings, B. Peng, A. Petrone, 
 T. Henderson, D. Ranasinghe, V. G. Zakrzewski, J. Gao, N. Rega, 
 G. Zheng, W. Liang, M. Hada, M. Ehara, K. Toyota, R. Fukuda, 
 J. Hasegawa, M. Ishida, T. Nakajima, Y. Honda, O. Kitao, H. Nakai, 
 T. Vreven, K. Throssell, J. A. Montgomery, Jr., J. E. Peralta, 
 F. Ogliaro, M. J. Bearpark, J. J. Heyd, E. N. Brothers, K. N. Kudin, 
 V. N. Staroverov, T. A. Keith, R. Kobayashi, J. Normand, 
 K. Raghavachari, A. P. Rendell, J. C. Burant, S. S. Iyengar, 
 J. Tomasi, M. Cossi, J. M. Millam, M. Klene, C. Adamo, R. Cammi, 
 J. W. Ochterski, R. L. Martin, K. Morokuma, O. Farkas, 
 J. B. Foresman, and D. J. Fox, Gaussian, Inc., Wallingford CT, 2016.
 
 ******************************************
 Gaussian 16:  ES64L-G16RevA.03 25-Dec-2016
                 6-Jul-2023 
 ******************************************
 %mem=10GB
 %nprocshared=24
 Will use up to   24 processors via shared memory.
 ----------------------------------------------------------------------
 # opt=(calcfc,ts,noeigentest) freq 6-31+g(d,p) integral=grid=ultrafine
  m062x scrf=(SMD,solvent=water)
 ----------------------------------------------------------------------
 1/5=1,10=4,11=1,18=20,26=6,38=1/1,3;
 2/9=110,12=2,17=6,18=5,40=1/2;
 3/5=1,6=6,7=111,11=2,25=1,30=1,70=32201,71=2,72=1,74=-55,75=-5,140=1/1,2,3;
 4//1;
 5/5=2,38=5,53=1/2;
 8/6=4,10=90,11=11/1;
 11/6=1,8=1,9=11,15=111,16=1/1,2,10;
 10/6=1,13=1/2;
 6/7=2,8=2,9=2,10=2,28=1/1;
 7/10=1,18=20,25=1/1,2,3,16;
 1/5=1,10=4,11=1,18=20,26=6/3(2);
 2/9=110/2;
 99//99;
 2/9=110/2;
 3/5=1,6=6,7=111,11=2,25=1,30=1,70=32205,71=1,72=1,74=-55,75=-5/1,2,3;
 4/5=5,16=3,69=1/1;
 5/5=2,38=5,53=1/2;
 7//1,2,3,16;
 1/5=1,11=1,18=20,26=6/3(-5);
 2/9=110/2;
 6/7=2,8=2,9=2,10=2,19=2,28=1/1;
 99/9=1/99;
 --
 TS
 --
 Symbolic Z-matrix:
 Charge = -1 Multiplicity = 2
 N                     0.98948   0.45755   0.19668 
 N                     0.73196  -0.8449    0.63206 
 C                     1.82322  -1.58503   0.18486 
 C                     2.70081  -0.68282  -0.37301 
 N                     2.21202   0.57146  -0.38489 
 H                     1.89709  -2.64375   0.37271 
 H                     3.68718  -0.87696  -0.77247 
 H                    -0.67332  -1.47501   0.35779 
 C                    -0.07821   1.43454   0.1498 
 O                    -1.15839   0.9527    0.61601 
 O                     0.19021   2.54326  -0.29712 
 O                    -3.30834   0.10277  -0.37205 
 H                    -3.98393   0.33221   0.27145 
 H                    -2.24209   0.57812   0.06907 
 O                    -1.84858  -2.19146  -0.17992 
 H                    -1.63095  -2.36061  -1.1015 
 H                    -2.63764  -1.0854   -0.16451 
 
 Add virtual bond connecting atoms H14        and O12        Dist= 2.36D+00.
 Add virtual bond connecting atoms H14        and O10        Dist= 2.40D+00.
 Add virtual bond connecting atoms H17        and O15        Dist= 2.57D+00.
 Add virtual bond connecting atoms H17        and O12        Dist= 2.61D+00.
 Add virtual bond connecting atoms N2         and H8         Dist= 2.96D+00.
 Add virtual bond connecting atoms O15        and H8         Dist= 2.79D+00.

 GradGradGradGradGradGradGradGradGradGradGradGradGradGradGradGradGradGrad
 Berny optimization.
 Initialization pass.
                           ----------------------------
                           !    Initial Parameters    !
                           ! (Angstroms and Degrees)  !
 --------------------------                            --------------------------
 ! Name  Definition              Value          Derivative Info.                !
 --------------------------------------------------------------------------------
 ! R1    R(1,2)                  1.3972         calculate D2E/DX2 analytically  !
 ! R2    R(1,5)                  1.3586         calculate D2E/DX2 analytically  !
 ! R3    R(1,9)                  1.448          calculate D2E/DX2 analytically  !
 ! R4    R(2,3)                  1.3924         calculate D2E/DX2 analytically  !
 ! R5    R(2,8)                  1.5643         calculate D2E/DX2 analytically  !
 ! R6    R(3,4)                  1.3767         calculate D2E/DX2 analytically  !
 ! R7    R(3,6)                  1.0778         calculate D2E/DX2 analytically  !
 ! R8    R(4,5)                  1.3462         calculate D2E/DX2 analytically  !
 ! R9    R(4,7)                  1.0817         calculate D2E/DX2 analytically  !
 ! R10   R(8,15)                 1.4777         calculate D2E/DX2 analytically  !
 ! R11   R(9,10)                 1.2713         calculate D2E/DX2 analytically  !
 ! R12   R(9,11)                 1.2252         calculate D2E/DX2 analytically  !
 ! R13   R(10,14)                1.2704         calculate D2E/DX2 analytically  !
 ! R14   R(12,13)                0.9608         calculate D2E/DX2 analytically  !
 ! R15   R(12,14)                1.248          calculate D2E/DX2 analytically  !
 ! R16   R(12,17)                1.3801         calculate D2E/DX2 analytically  !
 ! R17   R(15,16)                0.9619         calculate D2E/DX2 analytically  !
 ! R18   R(15,17)                1.3588         calculate D2E/DX2 analytically  !
 ! A1    A(2,1,5)              112.1726         calculate D2E/DX2 analytically  !
 ! A2    A(2,1,9)              120.2081         calculate D2E/DX2 analytically  !
 ! A3    A(5,1,9)              126.3758         calculate D2E/DX2 analytically  !
 ! A4    A(1,2,3)              104.5351         calculate D2E/DX2 analytically  !
 ! A5    A(1,2,8)              119.1052         calculate D2E/DX2 analytically  !
 ! A6    A(3,2,8)              115.6993         calculate D2E/DX2 analytically  !
 ! A7    A(2,3,4)              106.3441         calculate D2E/DX2 analytically  !
 ! A8    A(2,3,6)              121.3253         calculate D2E/DX2 analytically  !
 ! A9    A(4,3,6)              132.1189         calculate D2E/DX2 analytically  !
 ! A10   A(3,4,5)              112.5013         calculate D2E/DX2 analytically  !
 ! A11   A(3,4,7)              127.8266         calculate D2E/DX2 analytically  !
 ! A12   A(5,4,7)              119.6712         calculate D2E/DX2 analytically  !
 ! A13   A(1,5,4)              104.1714         calculate D2E/DX2 analytically  !
 ! A14   A(1,9,10)             111.0325         calculate D2E/DX2 analytically  !
 ! A15   A(1,9,11)             117.4421         calculate D2E/DX2 analytically  !
 ! A16   A(10,9,11)            131.5207         calculate D2E/DX2 analytically  !
 ! A17   A(9,10,14)            132.7392         calculate D2E/DX2 analytically  !
 ! A18   A(13,12,14)           105.8466         calculate D2E/DX2 analytically  !
 ! A19   A(13,12,17)           116.5249         calculate D2E/DX2 analytically  !
 ! A20   A(14,12,17)            81.9266         calculate D2E/DX2 analytically  !
 ! A21   A(8,15,16)            104.7106         calculate D2E/DX2 analytically  !
 ! A22   A(8,15,17)             93.6157         calculate D2E/DX2 analytically  !
 ! A23   A(16,15,17)           106.5821         calculate D2E/DX2 analytically  !
 ! A24   L(2,8,15,10,-1)       187.1824         calculate D2E/DX2 analytically  !
 ! A25   L(10,14,12,8,-1)      175.464          calculate D2E/DX2 analytically  !
 ! A26   L(12,17,15,1,-1)      174.7463         calculate D2E/DX2 analytically  !
 ! A27   L(2,8,15,10,-2)       168.3847         calculate D2E/DX2 analytically  !
 ! A28   L(10,14,12,8,-2)      174.9539         calculate D2E/DX2 analytically  !
 ! A29   L(12,17,15,1,-2)      189.9101         calculate D2E/DX2 analytically  !
 ! D1    D(5,1,2,3)             -5.0749         calculate D2E/DX2 analytically  !
 ! D2    D(5,1,2,8)           -136.1517         calculate D2E/DX2 analytically  !
 ! D3    D(9,1,2,3)            162.9784         calculate D2E/DX2 analytically  !
 ! D4    D(9,1,2,8)             31.9016         calculate D2E/DX2 analytically  !
 ! D5    D(2,1,5,4)              2.8776         calculate D2E/DX2 analytically  !
 ! D6    D(9,1,5,4)           -164.285          calculate D2E/DX2 analytically  !
 ! D7    D(2,1,9,10)             3.9324         calculate D2E/DX2 analytically  !
 ! D8    D(2,1,9,11)          -176.7622         calculate D2E/DX2 analytically  !
 ! D9    D(5,1,9,10)           170.1587         calculate D2E/DX2 analytically  !
 ! D10   D(5,1,9,11)           -10.5359         calculate D2E/DX2 analytically  !
 ! D11   D(1,2,3,4)              5.061          calculate D2E/DX2 analytically  !
 ! D12   D(1,2,3,6)           -179.6215         calculate D2E/DX2 analytically  !
 ! D13   D(8,2,3,4)            138.0953         calculate D2E/DX2 analytically  !
 ! D14   D(8,2,3,6)            -46.5872         calculate D2E/DX2 analytically  !
 ! D15   D(1,2,15,16)           73.4413         calculate D2E/DX2 analytically  !
 ! D16   D(1,2,15,17)          -34.6008         calculate D2E/DX2 analytically  !
 ! D17   D(3,2,15,16)          -47.4575         calculate D2E/DX2 analytically  !
 ! D18   D(3,2,15,17)         -155.4996         calculate D2E/DX2 analytically  !
 ! D19   D(2,3,4,5)             -3.6873         calculate D2E/DX2 analytically  !
 ! D20   D(2,3,4,7)            175.9683         calculate D2E/DX2 analytically  !
 ! D21   D(6,3,4,5)           -178.2928         calculate D2E/DX2 analytically  !
 ! D22   D(6,3,4,7)              1.3627         calculate D2E/DX2 analytically  !
 ! D23   D(3,4,5,1)              0.5602         calculate D2E/DX2 analytically  !
 ! D24   D(7,4,5,1)           -179.1267         calculate D2E/DX2 analytically  !
 ! D25   D(1,9,10,14)         -107.0            calculate D2E/DX2 analytically  !
 ! D26   D(11,9,10,14)          73.8233         calculate D2E/DX2 analytically  !
 ! D27   D(9,10,12,13)        -146.9097         calculate D2E/DX2 analytically  !
 ! D28   D(9,10,12,17)          98.2306         calculate D2E/DX2 analytically  !
 ! D29   D(13,12,15,8)        -102.0397         calculate D2E/DX2 analytically  !
 ! D30   D(13,12,15,16)        152.3873         calculate D2E/DX2 analytically  !
 ! D31   D(14,12,15,8)           0.8919         calculate D2E/DX2 analytically  !
 ! D32   D(14,12,15,16)       -104.6812         calculate D2E/DX2 analytically  !
 --------------------------------------------------------------------------------
 Trust Radius=3.00D-01 FncErr=5.00D-06 GrdErr=5.00D-06 EigMax=2.50D+02 EigMin=1.00D-04
 Number of steps in this run=     89 maximum allowed number of steps=    102.
 Search for a saddle point of order  1.
 GradGradGradGradGradGradGradGradGradGradGradGradGradGradGradGradGradGrad

                          Input orientation:                          
 ---------------------------------------------------------------------
 Center     Atomic      Atomic             Coordinates (Angstroms)
 Number     Number       Type             X           Y           Z
 ---------------------------------------------------------------------
      1          7           0        0.989476    0.457547    0.196681
      2          7           0        0.731955   -0.844902    0.632061
      3          6           0        1.823222   -1.585030    0.184857
      4          6           0        2.700814   -0.682824   -0.373011
      5          7           0        2.212017    0.571464   -0.384894
      6          1           0        1.897091   -2.643753    0.372711
      7          1           0        3.687183   -0.876955   -0.772465
      8          1           0       -0.673323   -1.475008    0.357787
      9          6           0       -0.078210    1.434538    0.149802
     10          8           0       -1.158392    0.952699    0.616006
     11          8           0        0.190214    2.543258   -0.297119
     12          8           0       -3.308336    0.102767   -0.372054
     13          1           0       -3.983934    0.332210    0.271454
     14          1           0       -2.242092    0.578115    0.069067
     15          8           0       -1.848580   -2.191460   -0.179922
     16          1           0       -1.630953   -2.360605   -1.101499
     17          1           0       -2.637639   -1.085401   -0.164513
 ---------------------------------------------------------------------
                    Distance matrix (angstroms):
                    1          2          3          4          5
     1  N    0.000000
     2  N    1.397228   0.000000
     3  C    2.206217   1.392352   0.000000
     4  C    2.133934   2.216494   1.376721   0.000000
     5  N    1.358607   2.287110   2.264121   1.346218   0.000000
     6  H    3.236173   2.158858   1.077794   2.246623   3.318247
     7  H    3.161924   3.272169   2.211829   1.081746   2.103389
     8  H    2.554530   1.564310   2.504944   3.542092   3.614527
     9  C    1.447986   2.466736   3.568538   3.532638   2.505182
    10  O    2.243735   2.608647   3.939033   4.306572   3.536495
    11  O    2.287542   3.554784   4.465622   4.088579   2.825485
    12  O    4.349772   4.269693   5.430626   6.060284   5.540229
    13  H    4.975551   4.873935   6.116075   6.792016   6.235210
    14  H    3.236334   3.344682   4.606451   5.120325   4.477188
    15  O    3.900465   3.021870   3.739378   4.796900   4.915711
    16  H    4.061268   3.299382   3.766637   4.702111   4.886611
    17  H    3.958170   3.470811   4.502329   5.357669   5.129613
                    6          7          8          9         10
     6  H    0.000000
     7  H    2.763591   0.000000
     8  H    2.823688   4.544133   0.000000
     9  C    4.536955   4.513509   2.977058   0.000000
    10  O    4.725424   5.362377   2.489122   1.271341   0.000000
    11  O    5.501562   4.914530   4.161857   1.225173   2.276491
    12  O    5.932497   7.075130   3.156792   3.532656   2.514141
    13  H    6.591894   7.835680   3.772749   4.060124   2.913316
    14  H    5.254091   6.162931   2.599945   2.328597   1.270378
    15  O    3.813138   5.720463   1.477723   4.048554   3.315961
    16  H    3.834131   5.531008   1.957256   4.287176   3.761798
    17  H    4.825023   6.357391   2.069572   3.605491   2.636519
                   11         12         13         14         15
    11  O    0.000000
    12  O    4.266317   0.000000
    13  H    4.757680   0.960822   0.000000
    14  H    3.148332   1.247966   1.770718   0.000000
    15  O    5.156352   2.726037   3.336523   2.808451   0.000000
    16  H    5.292594   3.068209   3.830505   3.221769   0.961913
    17  H    4.602337   1.380091   2.003048   1.725777   1.358756
                   16         17
    16  H    0.000000
    17  H    1.875501   0.000000
 Stoichiometry    C3H7N3O4(1-,2)
 Framework group  C1[X(C3H7N3O4)]
 Deg. of freedom    45
 Full point group                 C1      NOp   1
 Largest Abelian subgroup         C1      NOp   1
 Largest concise Abelian subgroup C1      NOp   1
                         Standard orientation:                         
 ---------------------------------------------------------------------
 Center     Atomic      Atomic             Coordinates (Angstroms)
 Number     Number       Type             X           Y           Z
 ---------------------------------------------------------------------
      1          7           0        0.994562    0.455945    0.197974
      2          7           0        0.734442   -0.846196    0.632730
      3          6           0        1.825495   -1.587785    0.187428
      4          6           0        2.705353   -0.686732   -0.368733
      5          7           0        2.218318    0.568234   -0.381358
      6          1           0        1.897553   -2.646631    0.375292
      7          1           0        3.692178   -0.882185   -0.766411
      8          1           0       -0.671206   -1.474320    0.355821
      9          6           0       -0.071681    1.434421    0.149265
     10          8           0       -1.153378    0.954027    0.613443
     11          8           0        0.199094    2.542820   -0.297035
     12          8           0       -3.302694    0.107192   -0.378634
     13          1           0       -3.979145    0.337497    0.263668
     14          1           0       -2.236598    0.581010    0.064486
     15          8           0       -1.846474   -2.189080   -0.184113
     16          1           0       -1.627402   -2.358420   -1.105312
     17          1           0       -2.634024   -1.081929   -0.170012
 ---------------------------------------------------------------------
 Rotational constants (GHZ):           1.6161640           0.9352484           0.6261068
 Standard basis: 6-31+G(d,p) (6D, 7F)
 There are   225 symmetry adapted cartesian basis functions of A   symmetry.
 There are   225 symmetry adapted basis functions of A   symmetry.
   225 basis functions,   369 primitive gaussians,   225 cartesian basis functions
    40 alpha electrons       39 beta electrons
       nuclear repulsion energy       548.5305088077 Hartrees.
 NAtoms=   17 NActive=   17 NUniq=   17 SFac= 1.00D+00 NAtFMM=   60 NAOKFM=F Big=F
 Integral buffers will be    131072 words long.
 Raffenetti 2 integral format.
 Two-electron integral symmetry is turned on.
 Force inversion solution in PCM.
 ------------------------------------------------------------------------------
 Polarizable Continuum Model (PCM)
 =================================
 Model                : PCM.
 Atomic radii         : SMD-Coulomb.
 Polarization charges : Total charges.
 Charge compensation  : None.
 Solution method      : Matrix inversion.
 Cavity type          : VdW (van der Waals Surface) (Alpha=1.000).
 Cavity algorithm     : GePol (No added spheres)
                        Default sphere list used, NSphG=   17.
                        Lebedev-Laikov grids with approx.  5.0 points / Ang**2.
                        Smoothing algorithm: York/Karplus (Gamma=1.0000).
                        Polarization charges: spherical gaussians, with
                                              point-specific exponents (IZeta= 3).
                        Self-potential: point-specific (ISelfS= 7).
                        Self-field    : sphere-specific E.n sum rule (ISelfD= 2).
 1st derivatives      : Analytical E(r).r(x)/FMM algorithm (CHGder, D1EAlg=3).
                        Cavity 1st derivative terms included.
 2nd derivatives      : Analytical E(r).r(xy)/FMM algorithm (CHGder, D2EAlg=3).
                        Cavity 2nd derivative terms included.
 Solvent              : Water, Eps=  78.355300 Eps(inf)=   1.777849
 ------------------------------------------------------------------------------
 Spheres list:
 ISph  on   Nord     Re0    Alpha      Xe            Ye            Ze
    1   N      1    1.8900  1.000      0.994562      0.455945      0.197974
    2   N      2    1.8900  1.000      0.734442     -0.846196      0.632730
    3   C      3    1.8500  1.000      1.825495     -1.587785      0.187428
    4   C      4    1.8500  1.000      2.705353     -0.686732     -0.368733
    5   N      5    1.8900  1.000      2.218318      0.568234     -0.381358
    6   H      6    1.2000  1.000      1.897553     -2.646631      0.375292
    7   H      7    1.2000  1.000      3.692178     -0.882185     -0.766411
    8   H      8    1.2000  1.000     -0.671206     -1.474320      0.355821
    9   C      9    1.8500  1.000     -0.071681      1.434421      0.149265
   10   O     10    1.5200  1.000     -1.153378      0.954027      0.613443
   11   O     11    1.5200  1.000      0.199094      2.542820     -0.297035
   12   O     12    1.5200  1.000     -3.302694      0.107192     -0.378634
   13   H     13    1.2000  1.000     -3.979145      0.337497      0.263668
   14   H     14    1.2000  1.000     -2.236598      0.581010      0.064486
   15   O     15    1.5200  1.000     -1.846474     -2.189080     -0.184113
   16   H     16    1.2000  1.000     -1.627402     -2.358420     -1.105312
   17   H     17    1.2000  1.000     -2.634024     -1.081929     -0.170012
 ------------------------------------------------------------------------------
 ------------------------------------------------------------------------------
 Atomic radii for non-electrostatic terms: SMD-CDS.
 ------------------------------------------------------------------------------
 Nuclear repulsion after PCM non-electrostatic terms =      548.5390463678 Hartrees.
 One-electron integrals computed using PRISM.
 NBasis=   225 RedAO= T EigKep=  3.10D-05  NBF=   225
 NBsUse=   225 1.00D-06 EigRej= -1.00D+00 NBFU=   225
 ExpMin= 4.38D-02 ExpMax= 5.48D+03 ExpMxC= 8.25D+02 IAcc=3 IRadAn=         5 AccDes= 0.00D+00
 Harris functional with IExCor= 1009 and IRadAn=       5 diagonalized for initial guess.
 HarFok:  IExCor= 1009 AccDes= 0.00D+00 IRadAn=         5 IDoV= 1 UseB2=F ITyADJ=14
 ICtDFT=  3500011 ScaDFX=  1.000000  1.000000  1.000000  1.000000
 FoFCou: FMM=F IPFlag=           0 FMFlag=      100000 FMFlg1=           0
         NFxFlg=           0 DoJE=T BraDBF=F KetDBF=T FulRan=T
         wScrn=  0.000000 ICntrl=       500 IOpCl=  0 I1Cent=   200000004 NGrid=           0
         NMat0=    1 NMatS0=      1 NMatT0=    0 NMatD0=    1 NMtDS0=    0 NMtDT0=    0
 Petite list used in FoFCou.
 Initial guess <Sx>= 0.0000 <Sy>= 0.0000 <Sz>= 0.5000 <S**2>= 0.7500 S= 0.5000
 Requested convergence on RMS density matrix=1.00D-08 within 128 cycles.
 Requested convergence on MAX density matrix=1.00D-06.
 Requested convergence on             energy=1.00D-06.
 No special actions if energy rises.
 Inv3:  Mode=1 IEnd=     5516208.
 Iteration    1 A*A^-1 deviation from unit magnitude is 3.11D-15 for    366.
 Iteration    1 A*A^-1 deviation from orthogonality  is 1.68D-15 for    994    110.
 Iteration    1 A^-1*A deviation from unit magnitude is 3.11D-15 for    366.
 Iteration    1 A^-1*A deviation from orthogonality  is 1.99D-15 for    391     71.
 Error on total polarization charges =  0.06152
 SCF Done:  E(UM062X) =  -583.509439547     A.U. after   18 cycles
            NFock= 18  Conv=0.73D-08     -V/T= 2.0095
 <Sx>= 0.0000 <Sy>= 0.0000 <Sz>= 0.5000 <S**2>= 0.7619 S= 0.5059
 <L.S>=  0.00000000000    
 SMD-CDS (non-electrostatic) energy       (kcal/mol) =       5.36
 (included in total energy above)
 Annihilation of the first spin contaminant:
 S**2 before annihilation     0.7619,   after     0.7501
 DoSCS=F DFT=T ScalE2(SS,OS)=  1.000000  1.000000
 Range of M.O.s used for correlation:     1   225
 NBasis=   225 NAE=    40 NBE=    39 NFC=     0 NFV=     0
 NROrb=    225 NOA=    40 NOB=    39 NVA=   185 NVB=   186

 **** Warning!!: The largest alpha MO coefficient is  0.64217604D+02


 **** Warning!!: The largest beta MO coefficient is  0.63413409D+02

 Symmetrizing basis deriv contribution to polar:
 IMax=3 JMax=2 DiffMx= 0.00D+00
 G2DrvN: will do    18 centers at a time, making    1 passes.
 Calling FoFCou, ICntrl=  3107 FMM=F I1Cent=   0 AccDes= 0.00D+00.
 NEqPCM:  Using equilibrium solvation (IEInf=0, Eps=  78.3553, EpsInf=   1.7778)
 G2PCM: DoFxE=T DoFxN=T DoGrad=T DoDP/DQ/DG/TGxP=FFFF NFrqRd=   0 IEInf=0 SqF1=F DoCFld=F IF1Alg=4.
 End of G2Drv F.D. properties file   721 does not exist.
 End of G2Drv F.D. properties file   722 does not exist.
 End of G2Drv F.D. properties file   788 does not exist.
          IDoAtm=11111111111111111
 NEqPCM:  Using equilibrium solvation (IEInf=0, Eps=  78.3553, EpsInf=   1.7778)
          Differentiating once with respect to nuclear coordinates.
 Keep R1 and R2 ints in memory in canonical form, NReq=671703135.
          There are    54 degrees of freedom in the 1st order CPHF.  IDoFFX=6 NUNeed=     0.
     48 vectors produced by pass  0 Test12= 2.71D-14 1.85D-09 XBig12= 2.86D-01 1.35D-01.
 AX will form    48 AO Fock derivatives at one time.
     48 vectors produced by pass  1 Test12= 2.71D-14 1.85D-09 XBig12= 4.23D-02 4.52D-02.
     48 vectors produced by pass  2 Test12= 2.71D-14 1.85D-09 XBig12= 2.40D-03 8.95D-03.
     48 vectors produced by pass  3 Test12= 2.71D-14 1.85D-09 XBig12= 3.42D-05 6.78D-04.
     48 vectors produced by pass  4 Test12= 2.71D-14 1.85D-09 XBig12= 5.14D-07 1.05D-04.
     48 vectors produced by pass  5 Test12= 2.71D-14 1.85D-09 XBig12= 5.12D-09 8.79D-06.
     47 vectors produced by pass  6 Test12= 2.71D-14 1.85D-09 XBig12= 5.00D-11 5.67D-07.
     29 vectors produced by pass  7 Test12= 2.71D-14 1.85D-09 XBig12= 4.26D-13 4.97D-08.
      6 vectors produced by pass  8 Test12= 2.71D-14 1.85D-09 XBig12= 2.77D-15 3.62D-09.
 InvSVY:  IOpt=1 It=  1 EMax= 3.89D-16
 Solved reduced A of dimension   370 with    54 vectors.
 End of Minotr F.D. properties file   721 does not exist.
 End of Minotr F.D. properties file   722 does not exist.
 End of Minotr F.D. properties file   788 does not exist.

 **********************************************************************

            Population analysis using the SCF density.

 **********************************************************************

 Orbital symmetries:
 Alpha Orbitals:
       Occupied  (A) (A) (A) (A) (A) (A) (A) (A) (A) (A) (A) (A)
                 (A) (A) (A) (A) (A) (A) (A) (A) (A) (A) (A) (A)
                 (A) (A) (A) (A) (A) (A) (A) (A) (A) (A) (A) (A)
                 (A) (A) (A) (A)
       Virtual   (A) (A) (A) (A) (A) (A) (A) (A) (A) (A) (A) (A)
                 (A) (A) (A) (A) (A) (A) (A) (A) (A) (A) (A) (A)
                 (A) (A) (A) (A) (A) (A) (A) (A) (A) (A) (A) (A)
                 (A) (A) (A) (A) (A) (A) (A) (A) (A) (A) (A) (A)
                 (A) (A) (A) (A) (A) (A) (A) (A) (A) (A) (A) (A)
                 (A) (A) (A) (A) (A) (A) (A) (A) (A) (A) (A) (A)
                 (A) (A) (A) (A) (A) (A) (A) (A) (A) (A) (A) (A)
                 (A) (A) (A) (A) (A) (A) (A) (A) (A) (A) (A) (A)
                 (A) (A) (A) (A) (A) (A) (A) (A) (A) (A) (A) (A)
                 (A) (A) (A) (A) (A) (A) (A) (A) (A) (A) (A) (A)
                 (A) (A) (A) (A) (A) (A) (A) (A) (A) (A) (A) (A)
                 (A) (A) (A) (A) (A) (A) (A) (A) (A) (A) (A) (A)
                 (A) (A) (A) (A) (A) (A) (A) (A) (A) (A) (A) (A)
                 (A) (A) (A) (A) (A) (A) (A) (A) (A) (A) (A) (A)
                 (A) (A) (A) (A) (A) (A) (A) (A) (A) (A) (A) (A)
                 (A) (A) (A) (A) (A)
 Beta  Orbitals:
       Occupied  (A) (A) (A) (A) (A) (A) (A) (A) (A) (A) (A) (A)
                 (A) (A) (A) (A) (A) (A) (A) (A) (A) (A) (A) (A)
                 (A) (A) (A) (A) (A) (A) (A) (A) (A) (A) (A) (A)
                 (A) (A) (A)
       Virtual   (A) (A) (A) (A) (A) (A) (A) (A) (A) (A) (A) (A)
                 (A) (A) (A) (A) (A) (A) (A) (A) (A) (A) (A) (A)
                 (A) (A) (A) (A) (A) (A) (A) (A) (A) (A) (A) (A)
                 (A) (A) (A) (A) (A) (A) (A) (A) (A) (A) (A) (A)
                 (A) (A) (A) (A) (A) (A) (A) (A) (A) (A) (A) (A)
                 (A) (A) (A) (A) (A) (A) (A) (A) (A) (A) (A) (A)
                 (A) (A) (A) (A) (A) (A) (A) (A) (A) (A) (A) (A)
                 (A) (A) (A) (A) (A) (A) (A) (A) (A) (A) (A) (A)
                 (A) (A) (A) (A) (A) (A) (A) (A) (A) (A) (A) (A)
                 (A) (A) (A) (A) (A) (A) (A) (A) (A) (A) (A) (A)
                 (A) (A) (A) (A) (A) (A) (A) (A) (A) (A) (A) (A)
                 (A) (A) (A) (A) (A) (A) (A) (A) (A) (A) (A) (A)
                 (A) (A) (A) (A) (A) (A) (A) (A) (A) (A) (A) (A)
                 (A) (A) (A) (A) (A) (A) (A) (A) (A) (A) (A) (A)
                 (A) (A) (A) (A) (A) (A) (A) (A) (A) (A) (A) (A)
                 (A) (A) (A) (A) (A) (A)
 The electronic state is 2-A.
 Alpha  occ. eigenvalues --  -19.65680 -19.65303 -19.63408 -19.62215 -14.84195
 Alpha  occ. eigenvalues --  -14.79327 -14.76951 -10.69936 -10.56090 -10.56003
 Alpha  occ. eigenvalues --   -1.21881  -1.15977  -1.12271  -1.10417  -1.08720
 Alpha  occ. eigenvalues --   -0.96135  -0.91287  -0.74129  -0.68120  -0.64977
 Alpha  occ. eigenvalues --   -0.62114  -0.58252  -0.56648  -0.55472  -0.53917
 Alpha  occ. eigenvalues --   -0.52342  -0.49517  -0.48803  -0.48421  -0.45549
 Alpha  occ. eigenvalues --   -0.44049  -0.39416  -0.38679  -0.37990  -0.37535
 Alpha  occ. eigenvalues --   -0.36575  -0.35686  -0.34993  -0.33092  -0.15603
 Alpha virt. eigenvalues --    0.02128   0.03995   0.04526   0.05096   0.06464
 Alpha virt. eigenvalues --    0.06642   0.06827   0.08626   0.08927   0.09486
 Alpha virt. eigenvalues --    0.10581   0.10857   0.12042   0.13750   0.14486
 Alpha virt. eigenvalues --    0.15488   0.17142   0.17579   0.18760   0.19254
 Alpha virt. eigenvalues --    0.20037   0.20523   0.21595   0.22519   0.22729
 Alpha virt. eigenvalues --    0.23554   0.24061   0.25072   0.25225   0.26042
 Alpha virt. eigenvalues --    0.26282   0.26719   0.27288   0.27918   0.28231
 Alpha virt. eigenvalues --    0.29005   0.30253   0.30354   0.31037   0.31952
 Alpha virt. eigenvalues --    0.32243   0.33827   0.34147   0.34789   0.35492
 Alpha virt. eigenvalues --    0.36792   0.39175   0.39495   0.41349   0.42323
 Alpha virt. eigenvalues --    0.44554   0.46333   0.46803   0.49112   0.50032
 Alpha virt. eigenvalues --    0.55547   0.67678   0.71874   0.75894   0.79076
 Alpha virt. eigenvalues --    0.83960   0.84350   0.89877   0.90517   0.92150
 Alpha virt. eigenvalues --    0.95411   0.96943   0.98336   0.99275   1.01245
 Alpha virt. eigenvalues --    1.02157   1.04485   1.05886   1.07271   1.09261
 Alpha virt. eigenvalues --    1.10930   1.12618   1.15409   1.16415   1.17217
 Alpha virt. eigenvalues --    1.19118   1.19482   1.20614   1.21538   1.24823
 Alpha virt. eigenvalues --    1.26323   1.28159   1.29832   1.31432   1.32404
 Alpha virt. eigenvalues --    1.33813   1.34524   1.35556   1.36845   1.37826
 Alpha virt. eigenvalues --    1.38837   1.40723   1.42273   1.43191   1.44138
 Alpha virt. eigenvalues --    1.46444   1.49441   1.50857   1.53245   1.55619
 Alpha virt. eigenvalues --    1.58098   1.58499   1.62189   1.62883   1.64917
 Alpha virt. eigenvalues --    1.66350   1.68429   1.70697   1.76554   1.78087
 Alpha virt. eigenvalues --    1.80964   1.85227   1.85796   1.88651   1.89742
 Alpha virt. eigenvalues --    1.92697   1.94614   1.98927   2.00077   2.03047
 Alpha virt. eigenvalues --    2.04177   2.06723   2.11548   2.13998   2.15213
 Alpha virt. eigenvalues --    2.16909   2.21153   2.25646   2.26959   2.28057
 Alpha virt. eigenvalues --    2.30061   2.31800   2.34028   2.34879   2.39624
 Alpha virt. eigenvalues --    2.40391   2.43054   2.46300   2.48580   2.51130
 Alpha virt. eigenvalues --    2.53385   2.55684   2.57779   2.58239   2.61072
 Alpha virt. eigenvalues --    2.69350   2.69822   2.71114   2.73997   2.76385
 Alpha virt. eigenvalues --    2.78733   2.82683   2.86436   2.88137   2.90057
 Alpha virt. eigenvalues --    2.92514   2.94994   2.97182   3.08267   3.12235
 Alpha virt. eigenvalues --    3.13692   3.19178   3.26411   3.26839   3.32671
 Alpha virt. eigenvalues --    3.36157   3.50730   3.67665   3.73836   3.79901
 Alpha virt. eigenvalues --    4.04450   4.16779   4.26989   4.30874   4.37506
 Alpha virt. eigenvalues --    4.40846   4.43513   4.58289   4.67770   4.76367
  Beta  occ. eigenvalues --  -19.65630 -19.65298 -19.63374 -19.62090 -14.83952
  Beta  occ. eigenvalues --  -14.78901 -14.76467 -10.69892 -10.56119 -10.55905
  Beta  occ. eigenvalues --   -1.21396  -1.15128  -1.12089  -1.10282  -1.08595
  Beta  occ. eigenvalues --   -0.94675  -0.90439  -0.73320  -0.67544  -0.64656
  Beta  occ. eigenvalues --   -0.61229  -0.58132  -0.55816  -0.54368  -0.53705
  Beta  occ. eigenvalues --   -0.51973  -0.48663  -0.48139  -0.47910  -0.44967
  Beta  occ. eigenvalues --   -0.43816  -0.38740  -0.38262  -0.37547  -0.36651
  Beta  occ. eigenvalues --   -0.36043  -0.34308  -0.31329  -0.30670
  Beta virt. eigenvalues --   -0.00044   0.01996   0.03998   0.04327   0.04893
  Beta virt. eigenvalues --    0.06424   0.06572   0.07715   0.08372   0.08552
  Beta virt. eigenvalues --    0.10310   0.10747   0.11109   0.11660   0.13907
  Beta virt. eigenvalues --    0.14825   0.15292   0.17016   0.17725   0.18857
  Beta virt. eigenvalues --    0.19156   0.20056   0.20545   0.21658   0.22446
  Beta virt. eigenvalues --    0.22817   0.23653   0.24177   0.25165   0.25253
  Beta virt. eigenvalues --    0.25998   0.26341   0.26820   0.27382   0.27873
  Beta virt. eigenvalues --    0.28284   0.29050   0.30247   0.30307   0.31021
  Beta virt. eigenvalues --    0.32023   0.32262   0.33825   0.34173   0.34827
  Beta virt. eigenvalues --    0.35654   0.36612   0.39097   0.39547   0.41351
  Beta virt. eigenvalues --    0.42606   0.44666   0.46305   0.46844   0.49374
  Beta virt. eigenvalues --    0.50281   0.55885   0.68039   0.72192   0.75606
  Beta virt. eigenvalues --    0.80097   0.84126   0.84745   0.90046   0.90765
  Beta virt. eigenvalues --    0.92290   0.95839   0.97168   0.98743   1.00381
  Beta virt. eigenvalues --    1.02297   1.03233   1.05135   1.06561   1.07512
  Beta virt. eigenvalues --    1.09658   1.11118   1.12735   1.15479   1.16716
  Beta virt. eigenvalues --    1.17656   1.19124   1.19584   1.20835   1.21890
  Beta virt. eigenvalues --    1.25129   1.26542   1.28267   1.30063   1.31504
  Beta virt. eigenvalues --    1.32613   1.34019   1.34847   1.35786   1.37060
  Beta virt. eigenvalues --    1.38062   1.39133   1.40975   1.42485   1.43668
  Beta virt. eigenvalues --    1.44553   1.47342   1.49784   1.50987   1.53839
  Beta virt. eigenvalues --    1.55871   1.58525   1.58700   1.62296   1.63352
  Beta virt. eigenvalues --    1.64998   1.66501   1.68551   1.70756   1.76637
  Beta virt. eigenvalues --    1.78235   1.81222   1.85422   1.85996   1.88853
  Beta virt. eigenvalues --    1.90119   1.92963   1.94939   1.99204   2.00409
  Beta virt. eigenvalues --    2.03400   2.04475   2.07038   2.12127   2.14137
  Beta virt. eigenvalues --    2.15640   2.17308   2.21539   2.26434   2.27290
  Beta virt. eigenvalues --    2.28395   2.30634   2.32153   2.34222   2.35362
  Beta virt. eigenvalues --    2.39766   2.40562   2.43345   2.46592   2.48963
  Beta virt. eigenvalues --    2.51257   2.53723   2.56050   2.58231   2.58604
  Beta virt. eigenvalues --    2.61734   2.69760   2.70335   2.71150   2.74513
  Beta virt. eigenvalues --    2.76735   2.79009   2.83070   2.86565   2.88375
  Beta virt. eigenvalues --    2.90224   2.92804   2.95603   2.97677   3.08506
  Beta virt. eigenvalues --    3.12625   3.14118   3.19608   3.26690   3.27083
  Beta virt. eigenvalues --    3.33037   3.36301   3.50771   3.67677   3.74260
  Beta virt. eigenvalues --    3.79942   4.04807   4.16844   4.27075   4.31042
  Beta virt. eigenvalues --    4.37574   4.40918   4.43946   4.59043   4.68367
  Beta virt. eigenvalues --    4.76382
          Condensed to atoms (all electrons):
               1          2          3          4          5          6
     1  N    7.880847  -0.392017   0.109715  -0.109398  -0.322948   0.004739
     2  N   -0.392017   7.952720  -0.174087   0.209734  -0.297626  -0.036537
     3  C    0.109715  -0.174087   5.950567  -0.097109   0.115192   0.380847
     4  C   -0.109398   0.209734  -0.097109   5.713593   0.058904  -0.011822
     5  N   -0.322948  -0.297626   0.115192   0.058904   8.027202   0.000601
     6  H    0.004739  -0.036537   0.380847  -0.011822   0.000601   0.450962
     7  H   -0.000005   0.002819  -0.028485   0.397105  -0.046866   0.000205
     8  H   -0.036980   0.203669  -0.039258   0.016325   0.000287  -0.000711
     9  C    0.223509   0.004032  -0.035656   0.013194  -0.080808   0.000151
    10  O   -0.198016   0.008784  -0.027366   0.012302  -0.063537  -0.000049
    11  O   -0.091958   0.001216   0.002484  -0.006452  -0.020663   0.000010
    12  O    0.014945  -0.014273   0.003760  -0.002102   0.002201  -0.000004
    13  H   -0.000094   0.000358  -0.000055   0.000055  -0.000032   0.000000
    14  H    0.009539   0.000460  -0.000126   0.000011   0.003104   0.000000
    15  O   -0.001711  -0.070662   0.005705   0.002426  -0.000450   0.000475
    16  H   -0.002051   0.004444   0.000487   0.000472   0.000224  -0.000038
    17  H    0.000849  -0.001791  -0.001611   0.000732  -0.000775   0.000002
               7          8          9         10         11         12
     1  N   -0.000005  -0.036980   0.223509  -0.198016  -0.091958   0.014945
     2  N    0.002819   0.203669   0.004032   0.008784   0.001216  -0.014273
     3  C   -0.028485  -0.039258  -0.035656  -0.027366   0.002484   0.003760
     4  C    0.397105   0.016325   0.013194   0.012302  -0.006452  -0.002102
     5  N   -0.046866   0.000287  -0.080808  -0.063537  -0.020663   0.002201
     6  H    0.000205  -0.000711   0.000151  -0.000049   0.000010  -0.000004
     7  H    0.477942  -0.000024   0.000699   0.000012  -0.000039  -0.000000
     8  H   -0.000024   0.326382   0.004153   0.003017   0.000425  -0.000458
     9  C    0.000699   0.004153   4.363418   0.314229   0.412981   0.003852
    10  O    0.000012   0.003017   0.314229   8.890134  -0.119814  -0.083297
    11  O   -0.000039   0.000425   0.412981  -0.119814   8.504772   0.001411
    12  O   -0.000000  -0.000458   0.003852  -0.083297   0.001411   8.547090
    13  H   -0.000000   0.000013  -0.001119   0.002600   0.000047   0.277614
    14  H   -0.000000   0.001158  -0.009607   0.073330   0.002246   0.145115
    15  O    0.000029   0.090662  -0.000480   0.008668  -0.000711  -0.084666
    16  H   -0.000000  -0.006864  -0.000845  -0.001478   0.000034   0.004437
    17  H   -0.000000  -0.003108  -0.000880   0.008415   0.000058   0.115239
              13         14         15         16         17
     1  N   -0.000094   0.009539  -0.001711  -0.002051   0.000849
     2  N    0.000358   0.000460  -0.070662   0.004444  -0.001791
     3  C   -0.000055  -0.000126   0.005705   0.000487  -0.001611
     4  C    0.000055   0.000011   0.002426   0.000472   0.000732
     5  N   -0.000032   0.003104  -0.000450   0.000224  -0.000775
     6  H    0.000000   0.000000   0.000475  -0.000038   0.000002
     7  H   -0.000000  -0.000000   0.000029  -0.000000  -0.000000
     8  H    0.000013   0.001158   0.090662  -0.006864  -0.003108
     9  C   -0.001119  -0.009607  -0.000480  -0.000845  -0.000880
    10  O    0.002600   0.073330   0.008668  -0.001478   0.008415
    11  O    0.000047   0.002246  -0.000711   0.000034   0.000058
    12  O    0.277614   0.145115  -0.084666   0.004437   0.115239
    13  H    0.281754  -0.008994   0.003532  -0.000018  -0.006555
    14  H   -0.008994   0.230944   0.000858   0.000041  -0.006611
    15  O    0.003532   0.000858   8.566334   0.280657   0.137270
    16  H   -0.000018   0.000041   0.280657   0.284520  -0.010730
    17  H   -0.006555  -0.006611   0.137270  -0.010730   0.253928
          Atomic-Atomic Spin Densities.
               1          2          3          4          5          6
     1  N    0.372316  -0.171729   0.141005   0.000594  -0.285913  -0.001573
     2  N   -0.171729   0.459749  -0.205559  -0.039255   0.163491   0.001370
     3  C    0.141005  -0.205559   0.346548   0.079057  -0.130413  -0.004227
     4  C    0.000594  -0.039255   0.079057  -0.062880  -0.065362   0.003636
     5  N   -0.285913   0.163491  -0.130413  -0.065362   0.678788   0.000598
     6  H   -0.001573   0.001370  -0.004227   0.003636   0.000598  -0.008823
     7  H    0.001917   0.000218  -0.000625   0.002813  -0.003464   0.000010
     8  H   -0.034899   0.054920  -0.026071   0.010112   0.005409   0.000252
     9  C    0.090755  -0.028808   0.003441  -0.002368  -0.016105   0.000011
    10  O   -0.027891   0.017327  -0.002282  -0.000693   0.008949   0.000024
    11  O   -0.024823   0.004161  -0.001028  -0.001888   0.012037  -0.000000
    12  O    0.003125  -0.003555   0.001261  -0.000265  -0.001036  -0.000001
    13  H   -0.000022   0.000048  -0.000018   0.000002   0.000008   0.000000
    14  H   -0.003341   0.003630  -0.001343   0.000433   0.000453   0.000000
    15  O    0.011872  -0.017264   0.011865  -0.003631  -0.002769  -0.000151
    16  H   -0.000481   0.000849  -0.000588   0.000272   0.000025   0.000005
    17  H   -0.000199   0.000221  -0.000172   0.000031   0.000035   0.000000
               7          8          9         10         11         12
     1  N    0.001917  -0.034899   0.090755  -0.027891  -0.024823   0.003125
     2  N    0.000218   0.054920  -0.028808   0.017327   0.004161  -0.003555
     3  C   -0.000625  -0.026071   0.003441  -0.002282  -0.001028   0.001261
     4  C    0.002813   0.010112  -0.002368  -0.000693  -0.001888  -0.000265
     5  N   -0.003464   0.005409  -0.016105   0.008949   0.012037  -0.001036
     6  H    0.000010   0.000252   0.000011   0.000024  -0.000000  -0.000001
     7  H    0.000696   0.000001  -0.000075   0.000004   0.000002  -0.000000
     8  H    0.000001   0.048406   0.000112   0.001618  -0.000223  -0.001637
     9  C   -0.000075   0.000112   0.085330  -0.018314  -0.036559   0.000204
    10  O    0.000004   0.001618  -0.018314   0.024635   0.006299  -0.000639
    11  O    0.000002  -0.000223  -0.036559   0.006299   0.099514  -0.000067
    12  O   -0.000000  -0.001637   0.000204  -0.000639  -0.000067   0.005837
    13  H    0.000000   0.000017   0.000043  -0.000070  -0.000001  -0.000214
    14  H    0.000000   0.001142  -0.000523   0.003353  -0.000185  -0.004254
    15  O   -0.000002  -0.020195  -0.000211  -0.000571   0.000057   0.001454
    16  H    0.000000  -0.000013   0.000069  -0.000004  -0.000002  -0.000057
    17  H    0.000000   0.000267   0.000032   0.000251  -0.000004  -0.000271
              13         14         15         16         17
     1  N   -0.000022  -0.003341   0.011872  -0.000481  -0.000199
     2  N    0.000048   0.003630  -0.017264   0.000849   0.000221
     3  C   -0.000018  -0.001343   0.011865  -0.000588  -0.000172
     4  C    0.000002   0.000433  -0.003631   0.000272   0.000031
     5  N    0.000008   0.000453  -0.002769   0.000025   0.000035
     6  H    0.000000   0.000000  -0.000151   0.000005   0.000000
     7  H    0.000000   0.000000  -0.000002   0.000000   0.000000
     8  H    0.000017   0.001142  -0.020195  -0.000013   0.000267
     9  C    0.000043  -0.000523  -0.000211   0.000069   0.000032
    10  O   -0.000070   0.003353  -0.000571  -0.000004   0.000251
    11  O   -0.000001  -0.000185   0.000057  -0.000002  -0.000004
    12  O   -0.000214  -0.004254   0.001454  -0.000057  -0.000271
    13  H    0.000049   0.000218   0.000005   0.000000   0.000037
    14  H    0.000218   0.004046  -0.000765   0.000003   0.000137
    15  O    0.000005  -0.000765   0.032274   0.000332  -0.000271
    16  H    0.000000   0.000003   0.000332  -0.000518   0.000016
    17  H    0.000037   0.000137  -0.000271   0.000016   0.000083
 Mulliken charges and spin densities:
               1          2
     1  N   -0.088966   0.070713
     2  N   -0.401244   0.239812
     3  C   -0.165005   0.210852
     4  C   -0.197970  -0.079394
     5  N   -0.374010   0.364733
     6  H    0.211169  -0.008871
     7  H    0.196609   0.001495
     8  H    0.441312   0.039220
     9  C    0.789177   0.077035
    10  O   -0.827930   0.011997
    11  O   -0.686047   0.057288
    12  O   -0.930863  -0.000117
    13  H    0.450894   0.000103
    14  H    0.558531   0.003003
    15  O   -0.937934   0.012027
    16  H    0.446709  -0.000091
    17  H    0.515570   0.000194
 Sum of Mulliken charges =  -1.00000   1.00000
 Mulliken charges and spin densities with hydrogens summed into heavy atoms:
               1          2
     1  N   -0.088966   0.070713
     2  N   -0.401244   0.239812
     3  C    0.046164   0.201981
     4  C   -0.001361  -0.077899
     5  N   -0.374010   0.364733
     9  C    0.789177   0.077035
    10  O   -0.827930   0.011997
    11  O   -0.686047   0.057288
    12  O    0.078561   0.002989
    15  O    0.465656   0.051350
 APT charges:
               1
     1  N   -0.403804
     2  N   -0.430167
     3  C   -0.620597
     4  C   -0.563358
     5  N   -0.338083
     6  H    0.676100
     7  H    0.829150
     8  H    0.416084
     9  C    0.353825
    10  O   -0.662949
    11  O   -0.403827
    12  O   -1.280224
    13  H    0.971485
    14  H    0.413183
    15  O   -0.946946
    16  H    0.564844
    17  H    0.425284
 Sum of APT charges =  -1.00000
 APT charges with hydrogens summed into heavy atoms:
               1
     1  N   -0.403804
     2  N   -0.430167
     3  C    0.055503
     4  C    0.265792
     5  N   -0.338083
     9  C    0.353825
    10  O   -0.662949
    11  O   -0.403827
    12  O    0.104443
    15  O    0.459266
 Electronic spatial extent (au):  <R**2>=           1764.1805
 Charge=             -1.0000 electrons
 Dipole moment (field-independent basis, Debye):
    X=             -2.7827    Y=             -7.8951    Z=             -0.2632  Tot=              8.3753
 Quadrupole moment (field-independent basis, Debye-Ang):
   XX=            -67.2473   YY=            -84.0709   ZZ=            -65.5772
   XY=            -10.6165   XZ=             -2.5398   YZ=              7.5904
 Traceless Quadrupole moment (field-independent basis, Debye-Ang):
   XX=              5.0512   YY=            -11.7725   ZZ=              6.7213
   XY=            -10.6165   XZ=             -2.5398   YZ=              7.5904
 Octapole moment (field-independent basis, Debye-Ang**2):
  XXX=            -53.4667  YYY=            -50.8748  ZZZ=             -5.1717  XYY=              0.4940
  XXY=             -7.3423  XXZ=             18.5614  XZZ=            -12.9384  YZZ=             -5.8561
  YYZ=             -1.1134  XYZ=             -2.2788
 Hexadecapole moment (field-independent basis, Debye-Ang**3):
 XXXX=          -1213.2931 YYYY=           -937.6667 ZZZZ=           -130.9006 XXXY=            -89.5480
 XXXZ=           -113.0382 YYYX=            -58.9024 YYYZ=             43.1950 ZZZX=              6.6781
 ZZZY=             16.5404 XXYY=           -393.7306 XXZZ=           -265.2534 YYZZ=           -145.7940
 XXYZ=             29.3441 YYXZ=             25.3769 ZZXY=             16.5947
 N-N= 5.485390463678D+02 E-N=-2.478329554028D+03  KE= 5.780073767261D+02
  Exact polarizability:   0.000   0.000   0.000   0.000   0.000   0.000
 Approx polarizability: 129.759   0.723 130.518  -9.737  -7.997  78.617
                          Isotropic Fermi Contact Couplings
        Atom                 a.u.       MegaHertz       Gauss      10(-4) cm-1
     1  N(14)              0.03033       9.79919       3.49659       3.26866
     2  N(14)              0.10182      32.89967      11.73942      10.97415
     3  C(13)              0.02543      28.59042      10.20177       9.53674
     4  C(13)             -0.02096     -23.55822      -8.40616      -7.85818
     5  N(14)              0.08769      28.33221      10.10964       9.45061
     6  H(1)              -0.00302     -13.51088      -4.82102      -4.50674
     7  H(1)               0.00021       0.94597       0.33755       0.31554
     8  H(1)               0.01677      74.97922      26.75445      25.01037
     9  C(13)              0.01004      11.28288       4.02601       3.76356
    10  O(17)              0.00334      -2.02388      -0.72217      -0.67509
    11  O(17)              0.01436      -8.70312      -3.10549      -2.90305
    12  O(17)              0.00396      -2.40297      -0.85744      -0.80154
    13  H(1)               0.00002       0.10355       0.03695       0.03454
    14  H(1)               0.00086       3.82816       1.36598       1.27694
    15  O(17)              0.02568     -15.56701      -5.55470      -5.19260
    16  H(1)              -0.00022      -0.97043      -0.34627      -0.32370
    17  H(1)              -0.00016      -0.70748      -0.25245      -0.23599
 --------------------------------------------------------
       Center         ----  Spin Dipole Couplings  ----
                      3XX-RR        3YY-RR        3ZZ-RR
 --------------------------------------------------------
     1   Atom       -0.133108     -0.168530      0.301638
     2   Atom       -0.264187     -0.284972      0.549158
     3   Atom       -0.064264     -0.076428      0.140691
     4   Atom        0.008521      0.032333     -0.040854
     5   Atom       -0.212722     -0.340900      0.553621
     6   Atom       -0.013976      0.019019     -0.005043
     7   Atom        0.002731      0.001523     -0.004253
     8   Atom        0.015660     -0.003359     -0.012301
     9   Atom       -0.048516     -0.013715      0.062230
    10   Atom       -0.039491     -0.030967      0.070458
    11   Atom       -0.106311     -0.071527      0.177837
    12   Atom        0.007245     -0.004414     -0.002831
    13   Atom        0.002145     -0.001027     -0.001118
    14   Atom        0.007363     -0.002866     -0.004497
    15   Atom        0.030440     -0.000702     -0.029737
    16   Atom       -0.000065     -0.002025      0.002091
    17   Atom        0.003964     -0.000708     -0.003256
 --------------------------------------------------------
                        XY            XZ            YZ
 --------------------------------------------------------
     1   Atom        0.031278      0.165691      0.101938
     2   Atom        0.030677      0.216049      0.119426
     3   Atom        0.016041      0.082041      0.055766
     4   Atom       -0.006562     -0.027938     -0.009381
     5   Atom        0.072423      0.387855      0.167266
     6   Atom       -0.001204      0.003824     -0.002674
     7   Atom       -0.001235     -0.003733     -0.000598
     8   Atom        0.013379     -0.001419     -0.001153
     9   Atom       -0.005361      0.003805      0.058268
    10   Atom       -0.003681     -0.002038      0.031973
    11   Atom        0.022509      0.059947      0.124324
    12   Atom        0.000465      0.002677     -0.000100
    13   Atom       -0.000246     -0.000108      0.000100
    14   Atom       -0.000251      0.001117     -0.000106
    15   Atom        0.046319      0.019532      0.013888
    16   Atom        0.002998      0.001663      0.003159
    17   Atom        0.000104      0.001118      0.000204
 --------------------------------------------------------


 ---------------------------------------------------------------------------------
              Anisotropic Spin Dipole Couplings in Principal Axis System
 ---------------------------------------------------------------------------------

       Atom             a.u.   MegaHertz   Gauss  10(-4) cm-1        Axes

              Baa    -0.1921    -7.409    -2.644    -2.471  0.6117  0.7086 -0.3516
     1 N(14)  Bbb    -0.1863    -7.183    -2.563    -2.396  0.7265 -0.6792 -0.1048
              Bcc     0.3784    14.593     5.207     4.868  0.3131  0.1913  0.9303
 
              Baa    -0.3181   -12.267    -4.377    -4.092  0.9706 -0.0539 -0.2344
     2 N(14)  Bbb    -0.3017   -11.637    -4.152    -3.882  0.0202  0.9894 -0.1440
              Bcc     0.6198    23.904     8.529     7.973  0.2397  0.1350  0.9614
 
              Baa    -0.0950   -12.743    -4.547    -4.251  0.7790  0.4926 -0.3878
     3 C(13)  Bbb    -0.0875   -11.741    -4.189    -3.916 -0.5388  0.8424 -0.0122
              Bcc     0.1825    24.483     8.736     8.167  0.3207  0.2184  0.9217
 
              Baa    -0.0549    -7.367    -2.629    -2.457  0.4109  0.1280  0.9027
     4 C(13)  Bbb     0.0208     2.788     0.995     0.930  0.8900  0.1583 -0.4276
              Bcc     0.0341     4.579     1.634     1.527 -0.1976  0.9791 -0.0489
 
              Baa    -0.3760   -14.500    -5.174    -4.837  0.8494 -0.4515 -0.2732
     5 N(14)  Bbb    -0.3703   -14.280    -5.096    -4.763  0.3657  0.8768 -0.3122
              Bcc     0.7462    28.780    10.269     9.600  0.3805  0.1653  0.9099
 
              Baa    -0.0154    -8.211    -2.930    -2.739  0.9385  0.0060 -0.3452
     6 H(1)   Bbb    -0.0040    -2.135    -0.762    -0.712  0.3418  0.1260  0.9313
              Bcc     0.0194    10.346     3.692     3.451 -0.0491  0.9920 -0.1162
 
              Baa    -0.0060    -3.211    -1.146    -1.071  0.4051  0.1380  0.9038
     7 H(1)   Bbb     0.0014     0.747     0.267     0.249  0.2098  0.9481 -0.2388
              Bcc     0.0046     2.464     0.879     0.822  0.8899 -0.2864 -0.3551
 
              Baa    -0.0125    -6.646    -2.371    -2.217 -0.0323  0.1723  0.9845
     8 H(1)   Bbb    -0.0102    -5.442    -1.942    -1.815 -0.4602  0.8718 -0.1677
              Bcc     0.0227    12.088     4.313     4.032  0.8872  0.4585 -0.0511
 
              Baa    -0.0536    -7.196    -2.568    -2.400  0.7874  0.5399 -0.2974
     9 C(13)  Bbb    -0.0402    -5.392    -1.924    -1.799 -0.6164  0.6941 -0.3720
              Bcc     0.0938    12.589     4.492     4.199  0.0056  0.4762  0.8793
 
              Baa    -0.0429     3.102     1.107     1.035  0.6680  0.7193 -0.1909
    10 O(17)  Bbb    -0.0369     2.670     0.953     0.891  0.7438 -0.6366  0.2037
              Bcc     0.0798    -5.772    -2.060    -1.925 -0.0250  0.2781  0.9602
 
              Baa    -0.1237     8.950     3.193     2.985  0.3415  0.8431 -0.4155
    11 O(17)  Bbb    -0.1173     8.491     3.030     2.832  0.9223 -0.3858 -0.0248
              Bcc     0.2410   -17.440    -6.223    -5.817  0.1812  0.3747  0.9093
 
              Baa    -0.0045     0.324     0.116     0.108 -0.0834  0.9772  0.1953
    12 O(17)  Bbb    -0.0035     0.250     0.089     0.083 -0.2288 -0.2095  0.9507
              Bcc     0.0079    -0.574    -0.205    -0.191  0.9699  0.0346  0.2410
 
              Baa    -0.0012    -0.631    -0.225    -0.211 -0.0140 -0.5548  0.8318
    13 H(1)   Bbb    -0.0010    -0.526    -0.188    -0.175  0.0842  0.8283  0.5539
              Bcc     0.0022     1.157     0.413     0.386  0.9963 -0.0778 -0.0351
 
              Baa    -0.0046    -2.457    -0.877    -0.820 -0.0918  0.0476  0.9946
    14 H(1)   Bbb    -0.0029    -1.531    -0.546    -0.511  0.0294  0.9985 -0.0451
              Bcc     0.0075     3.988     1.423     1.330  0.9953 -0.0252  0.0931
 
              Baa    -0.0355     2.571     0.917     0.858 -0.2355 -0.0732  0.9691
    15 O(17)  Bbb    -0.0340     2.459     0.878     0.820 -0.5668  0.8204 -0.0757
              Bcc     0.0695    -5.030    -1.795    -1.678  0.7895  0.5671  0.2347
 
              Baa    -0.0047    -2.494    -0.890    -0.832 -0.4480  0.8472 -0.2855
    16 H(1)   Bbb    -0.0008    -0.404    -0.144    -0.135  0.7486  0.1810 -0.6378
              Bcc     0.0054     2.898     1.034     0.967  0.4887  0.4995  0.7153
 
              Baa    -0.0034    -1.834    -0.655    -0.612 -0.1480 -0.0682  0.9866
    17 H(1)   Bbb    -0.0007    -0.373    -0.133    -0.124 -0.0374  0.9973  0.0634
              Bcc     0.0041     2.207     0.788     0.736  0.9883  0.0275  0.1501
 

 ---------------------------------------------------------------------------------

 D2PCM: PCM CHGder 2nd derivatives, FixD1E=F FixD2E=F DoIter=F DoCFld=F I1PDM=0
 Calling FoFJK, ICntrl=    100147 FMM=F ISym2X=0 I1Cent= 0 IOpClX= 1 NMat=1 NMatS=1 NMatT=0.
 ***** Axes restored to original set *****
 -------------------------------------------------------------------
 Center     Atomic                   Forces (Hartrees/Bohr)
 Number     Number              X              Y              Z
 -------------------------------------------------------------------
      1        7          -0.029476629   -0.001254154    0.006110368
      2        7          -0.047887667   -0.033063491   -0.009021706
      3        6          -0.006663957    0.021497017    0.005509383
      4        6           0.007743234   -0.009738713   -0.002601974
      5        7           0.003972080    0.012359814   -0.005267027
      6        1           0.000037905   -0.000652210   -0.000320040
      7        1          -0.000315803    0.000259632   -0.000623039
      8        1           0.015254975    0.000805011   -0.014531437
      9        6           0.044668818   -0.043541641   -0.006783608
     10        8          -0.033889599   -0.000022238    0.008665114
     11        8          -0.003829586    0.021141829   -0.005102876
     12        8           0.065609912   -0.021822192    0.012308883
     13        1          -0.004429255   -0.003515731    0.007737230
     14        1          -0.018612102    0.001338431   -0.010034051
     15        8           0.003621741    0.069643299    0.033556090
     16        1           0.002275087    0.001672083   -0.007414066
     17        1           0.001920847   -0.015106746   -0.012187244
 -------------------------------------------------------------------
 Cartesian Forces:  Max     0.069643299 RMS     0.021360677
 FormGI is forming the generalized inverse of G from B-inverse, IUseBI=4.

 GradGradGradGradGradGradGradGradGradGradGradGradGradGradGradGradGradGrad
 Berny optimization.
 Internal  Forces:  Max     0.052780637 RMS     0.013382253
 Search for a saddle point.
 Step number   1 out of a maximum of   89
 All quantities printed in internal units (Hartrees-Bohrs-Radians)
 Swapping is turned off.
 Second derivative matrix not updated -- analytic derivatives used.
 ITU=  0
     Eigenvalues ---   -0.08855  -0.05522  -0.03016  -0.00253  -0.00003
     Eigenvalues ---    0.00194   0.00566   0.00916   0.01136   0.01225
     Eigenvalues ---    0.01547   0.01872   0.02098   0.02380   0.02581
     Eigenvalues ---    0.02706   0.03129   0.03477   0.03925   0.04207
     Eigenvalues ---    0.04637   0.04954   0.05954   0.06779   0.08004
     Eigenvalues ---    0.09717   0.10913   0.11535   0.16554   0.17780
     Eigenvalues ---    0.19769   0.22822   0.25560   0.28123   0.30568
     Eigenvalues ---    0.34456   0.37921   0.38980   0.41902   0.45152
     Eigenvalues ---    0.51789   0.55986   0.56037   0.56369   0.80471
 Eigenvectors required to have negative eigenvalues:
                          R10       R16       R18       R5        R15
   1                    0.49399   0.47421  -0.47184  -0.43095  -0.22780
                          R13       A19       A17       A26       R3
   1                    0.22512   0.05179   0.04609   0.04381   0.03960
 RFO step:  Lambda0=5.531846264D-04 Lambda=-8.97258778D-02.
 Linear search not attempted -- option 19 set.
 Maximum step size (   0.300) exceeded in Quadratic search.
    -- Step size scaled by   0.249
 Iteration  1 RMS(Cart)=  0.03787882 RMS(Int)=  0.00069653
 Iteration  2 RMS(Cart)=  0.00089406 RMS(Int)=  0.00014099
 Iteration  3 RMS(Cart)=  0.00000068 RMS(Int)=  0.00014099
 Variable       Old X    -DE/DX   Delta X   Delta X   Delta X     New X
                                 (Linear)    (Quad)   (Total)
    R1        2.64038  -0.00687   0.00000  -0.00062  -0.00073   2.63965
    R2        2.56740   0.00814   0.00000   0.00833   0.00830   2.57569
    R3        2.73630  -0.02988   0.00000  -0.02205  -0.02223   2.71406
    R4        2.63116  -0.00932   0.00000  -0.00685  -0.00684   2.62432
    R5        2.95612  -0.05278   0.00000  -0.01239  -0.01232   2.94380
    R6        2.60163   0.00112   0.00000  -0.00037  -0.00033   2.60129
    R7        2.03674   0.00058   0.00000   0.00099   0.00099   2.03773
    R8        2.54398   0.00408   0.00000   0.00493   0.00495   2.54893
    R9        2.04420  -0.00011   0.00000  -0.00006  -0.00006   2.04414
   R10        2.79249  -0.04429   0.00000  -0.20282  -0.20278   2.58972
   R11        2.40249   0.01342   0.00000   0.00043   0.00037   2.40285
   R12        2.31524   0.02015   0.00000   0.01434   0.01434   2.32958
   R13        2.40067  -0.01999   0.00000   0.09808   0.09801   2.49867
   R14        1.81569   0.00745   0.00000   0.00342   0.00342   1.81911
   R15        2.35831  -0.03948   0.00000  -0.15687  -0.15693   2.20138
   R16        2.60799  -0.03911   0.00000  -0.03893  -0.03876   2.56923
   R17        1.81775   0.00733   0.00000   0.00387   0.00387   1.82162
   R18        2.56768  -0.05222   0.00000  -0.08739  -0.08721   2.48047
    A1        1.95778   0.00732   0.00000   0.00591   0.00602   1.96380
    A2        2.09803  -0.00119   0.00000  -0.00086  -0.00117   2.09685
    A3        2.20567  -0.00610   0.00000  -0.00456  -0.00438   2.20130
    A4        1.82448  -0.00537   0.00000  -0.00651  -0.00658   1.81791
    A5        2.07878  -0.00241   0.00000   0.00219   0.00204   2.08082
    A6        2.01933   0.00663   0.00000   0.00447   0.00465   2.02398
    A7        1.85605   0.00969   0.00000   0.01072   0.01073   1.86678
    A8        2.11753  -0.00471   0.00000  -0.00310  -0.00311   2.11441
    A9        2.30591  -0.00479   0.00000  -0.00723  -0.00723   2.29868
   A10        1.96352  -0.00504   0.00000  -0.00441  -0.00440   1.95912
   A11        2.23100   0.00290   0.00000   0.00263   0.00263   2.23362
   A12        2.08866   0.00214   0.00000   0.00177   0.00177   2.09043
   A13        1.81813  -0.00643   0.00000  -0.00513  -0.00520   1.81293
   A14        1.93788  -0.00174   0.00000   0.00652   0.00617   1.94406
   A15        2.04975   0.01129   0.00000   0.00534   0.00551   2.05527
   A16        2.29547  -0.00957   0.00000  -0.01184  -0.01167   2.28380
   A17        2.31674  -0.00902   0.00000   0.00486   0.00475   2.32149
   A18        1.84737  -0.00311   0.00000   0.00064   0.00039   1.84776
   A19        2.03374  -0.00294   0.00000   0.00403   0.00397   2.03771
   A20        1.42989   0.00617   0.00000   0.02562   0.02575   1.45564
   A21        1.82755  -0.00501   0.00000  -0.00737  -0.00741   1.82013
   A22        1.63390   0.01427   0.00000   0.03934   0.03985   1.67375
   A23        1.86021  -0.00403   0.00000  -0.00587  -0.00581   1.85440
   A24        3.26695   0.00146   0.00000   0.00387   0.00390   3.27085
   A25        3.06242  -0.01098   0.00000  -0.02752  -0.02774   3.03469
   A26        3.04990  -0.00571   0.00000  -0.02572  -0.02531   3.02459
   A27        2.93887   0.00343   0.00000   0.00908   0.00911   2.94798
   A28        3.05352  -0.00484   0.00000   0.00037   0.00042   3.05394
   A29        3.31456   0.00136   0.00000  -0.00005  -0.00030   3.31425
    D1       -0.08857   0.00185   0.00000   0.00519   0.00515  -0.08342
    D2       -2.37630  -0.00035   0.00000   0.00334   0.00324  -2.37306
    D3        2.84451   0.00125   0.00000   0.00696   0.00687   2.85138
    D4        0.55679  -0.00095   0.00000   0.00512   0.00496   0.56175
    D5        0.05022  -0.00125   0.00000  -0.00234  -0.00235   0.04788
    D6       -2.86731  -0.00147   0.00000  -0.00491  -0.00477  -2.87208
    D7        0.06863   0.00187   0.00000  -0.00064  -0.00067   0.06796
    D8       -3.08508   0.00027   0.00000   0.00071   0.00086  -3.08422
    D9        2.96983   0.00301   0.00000   0.00284   0.00270   2.97253
   D10       -0.18389   0.00141   0.00000   0.00418   0.00423  -0.17966
   D11        0.08833  -0.00143   0.00000  -0.00542  -0.00538   0.08295
   D12       -3.13499   0.00048   0.00000  -0.00143  -0.00137  -3.13636
   D13        2.41022  -0.00424   0.00000  -0.00469  -0.00478   2.40544
   D14       -0.81310  -0.00233   0.00000  -0.00070  -0.00078  -0.81388
   D15        1.28179  -0.00176   0.00000   0.00520   0.00518   1.28697
   D16       -0.60390   0.00028   0.00000   0.00424   0.00408  -0.59982
   D17       -0.82829   0.00123   0.00000   0.00274   0.00269  -0.82560
   D18       -2.71398   0.00327   0.00000   0.00178   0.00160  -2.71238
   D19       -0.06436   0.00066   0.00000   0.00426   0.00421  -0.06014
   D20        3.07123   0.00145   0.00000   0.00371   0.00371   3.07493
   D21       -3.11180  -0.00167   0.00000  -0.00078  -0.00081  -3.11261
   D22        0.02378  -0.00089   0.00000  -0.00133  -0.00132   0.02246
   D23        0.00978   0.00023   0.00000  -0.00142  -0.00137   0.00841
   D24       -3.12635  -0.00049   0.00000  -0.00093  -0.00092  -3.12727
   D25       -1.86750   0.00128   0.00000   0.03336   0.03373  -1.83378
   D26        1.28846   0.00297   0.00000   0.03158   0.03175   1.32021
   D27       -2.56406  -0.00765   0.00000  -0.03089  -0.03083  -2.59489
   D28        1.71445  -0.00480   0.00000  -0.03637  -0.03618   1.67827
   D29       -1.78093  -0.00295   0.00000  -0.01344  -0.01354  -1.79446
   D30        2.65966   0.00006   0.00000  -0.01125  -0.01137   2.64829
   D31        0.01557  -0.00414   0.00000  -0.00451  -0.00442   0.01115
   D32       -1.82703  -0.00113   0.00000  -0.00232  -0.00225  -1.82928
         Item               Value     Threshold  Converged?
 Maximum Force            0.052781     0.000450     NO 
 RMS     Force            0.013382     0.000300     NO 
 Maximum Displacement     0.117914     0.001800     NO 
 RMS     Displacement     0.038433     0.001200     NO 
 Predicted change in Energy=-2.380802D-02
 GradGradGradGradGradGradGradGradGradGradGradGradGradGradGradGradGradGrad

                          Input orientation:                          
 ---------------------------------------------------------------------
 Center     Atomic      Atomic             Coordinates (Angstroms)
 Number     Number       Type             X           Y           Z
 ---------------------------------------------------------------------
      1          7           0        0.973510    0.451639    0.195201
      2          7           0        0.703293   -0.850082    0.623768
      3          6           0        1.792646   -1.587344    0.178422
      4          6           0        2.680994   -0.695021   -0.377880
      5          7           0        2.200731    0.565384   -0.386822
      6          1           0        1.861117   -2.647699    0.362082
      7          1           0        3.665917   -0.897377   -0.776733
      8          1           0       -0.699004   -1.467589    0.342760
      9          6           0       -0.077089    1.430045    0.154057
     10          8           0       -1.165268    0.961622    0.615846
     11          8           0        0.195939    2.547369   -0.289504
     12          8           0       -3.263776    0.074161   -0.367109
     13          1           0       -3.955629    0.298177    0.263617
     14          1           0       -2.287859    0.558546    0.045199
     15          8           0       -1.792500   -2.129062   -0.151977
     16          1           0       -1.570772   -2.298275   -1.074704
     17          1           0       -2.591738   -1.087835   -0.151274
 ---------------------------------------------------------------------
                    Distance matrix (angstroms):
                    1          2          3          4          5
     1  N    0.000000
     2  N    1.396841   0.000000
     3  C    2.197434   1.388732   0.000000
     4  C    2.135124   2.222306   1.376544   0.000000
     5  N    1.362997   2.295029   2.262802   1.348835   0.000000
     6  H    3.228249   2.154173   1.078319   2.243366   3.316640
     7  H    3.164421   3.277313   2.213034   1.081714   2.106768
     8  H    2.550002   1.557792   2.499933   3.541267   3.615762
     9  C    1.436221   2.455322   3.549809   3.522200   2.495728
    10  O    2.238614   2.602663   3.929099   4.304148   3.534444
    11  O    2.287277   3.554454   4.456935   4.086123   2.820802
    12  O    4.291069   4.192100   5.350290   5.994334   5.486577
    13  H    4.932002   4.811836   6.050216   6.741123   6.196390
    14  H    3.266567   3.356482   4.612279   5.141977   4.509338
    15  O    3.798863   2.909734   3.640864   4.703153   4.822975
    16  H    3.955763   3.186447   3.659006   4.597119   4.785182
    17  H    3.898848   3.393294   4.425046   5.292197   5.075074
                    6          7          8          9         10
     6  H    0.000000
     7  H    2.760042   0.000000
     8  H    2.819087   4.542130   0.000000
     9  C    4.519725   4.504816   2.969624   0.000000
    10  O    4.717053   5.360550   2.488582   1.271535   0.000000
    11  O    5.494188   4.913697   4.161798   1.232762   2.277529
    12  O    5.848484   7.009445   3.075542   3.502143   2.481436
    13  H    6.520922   7.784578   3.705375   4.041807   2.889696
    14  H    5.253040   6.184072   2.591954   2.378837   1.322241
    15  O    3.725876   5.630425   1.370418   3.962769   3.245813
    16  H    3.736886   5.429016   1.859900   4.200157   3.694499
    17  H    4.746012   6.291718   1.992668   3.571611   2.612195
                   11         12         13         14         15
    11  O    0.000000
    12  O    4.253517   0.000000
    13  H    4.753981   0.962633   0.000000
    14  H    3.199484   1.164920   1.702045   0.000000
    15  O    5.083484   2.658031   3.277704   2.739982   0.000000
    16  H    5.217095   2.999235   3.770970   3.151163   0.963961
    17  H    4.583116   1.359579   1.988307   1.685679   1.312607
                   16         17
    16  H    0.000000
    17  H    1.833102   0.000000
 Stoichiometry    C3H7N3O4(1-,2)
 Framework group  C1[X(C3H7N3O4)]
 Deg. of freedom    45
 Full point group                 C1      NOp   1
 Largest Abelian subgroup         C1      NOp   1
 Largest concise Abelian subgroup C1      NOp   1
                         Standard orientation:                         
 ---------------------------------------------------------------------
 Center     Atomic      Atomic             Coordinates (Angstroms)
 Number     Number       Type             X           Y           Z
 ---------------------------------------------------------------------
      1          7           0        0.972296    0.456506    0.199460
      2          7           0        0.708812   -0.847936    0.623928
      3          6           0        1.806343   -1.576436    0.184280
      4          6           0        2.691731   -0.676653   -0.364677
      5          7           0        2.202374    0.580244   -0.374438
      6          1           0        1.881348   -2.636603    0.366464
      7          1           0        3.680645   -0.871107   -0.757541
      8          1           0       -0.687117   -1.475095    0.332778
      9          6           0       -0.085111    1.427326    0.153315
     10          8           0       -1.172797    0.950153    0.607237
     11          8           0        0.182624    2.547423   -0.286462
     12          8           0       -3.258427    0.049287   -0.390817
     13          1           0       -3.955934    0.267101    0.235843
     14          1           0       -2.288733    0.539987    0.028643
     15          8           0       -1.772566   -2.143581   -0.170187
     16          1           0       -1.543685   -2.309470   -1.091770
     17          1           0       -2.579350   -1.108192   -0.172754
 ---------------------------------------------------------------------
 Rotational constants (GHZ):           1.6395535           0.9587131           0.6393462
 Standard basis: 6-31+G(d,p) (6D, 7F)
 There are   225 symmetry adapted cartesian basis functions of A   symmetry.
 There are   225 symmetry adapted basis functions of A   symmetry.
   225 basis functions,   369 primitive gaussians,   225 cartesian basis functions
    40 alpha electrons       39 beta electrons
       nuclear repulsion energy       552.0772189398 Hartrees.
 NAtoms=   17 NActive=   17 NUniq=   17 SFac= 1.00D+00 NAtFMM=   60 NAOKFM=F Big=F
 Integral buffers will be    131072 words long.
 Raffenetti 2 integral format.
 Two-electron integral symmetry is turned on.
 ------------------------------------------------------------------------------
 Polarizable Continuum Model (PCM)
 =================================
 Model                : PCM.
 Atomic radii         : SMD-Coulomb.
 Polarization charges : Total charges.
 Charge compensation  : None.
 Solution method      : Matrix inversion.
 Cavity type          : VdW (van der Waals Surface) (Alpha=1.000).
 Cavity algorithm     : GePol (No added spheres)
                        Default sphere list used, NSphG=   17.
                        Lebedev-Laikov grids with approx.  5.0 points / Ang**2.
                        Smoothing algorithm: York/Karplus (Gamma=1.0000).
                        Polarization charges: spherical gaussians, with
                                              point-specific exponents (IZeta= 3).
                        Self-potential: point-specific (ISelfS= 7).
                        Self-field    : sphere-specific E.n sum rule (ISelfD= 2).
 1st derivatives      : Analytical E(r).r(x)/FMM algorithm (CHGder, D1EAlg=3).
                        Cavity 1st derivative terms included.
 Solvent              : Water, Eps=  78.355300 Eps(inf)=   1.777849
 ------------------------------------------------------------------------------
 Spheres list:
 ISph  on   Nord     Re0    Alpha      Xe            Ye            Ze
    1   N      1    1.8900  1.000      0.972296      0.456506      0.199460
    2   N      2    1.8900  1.000      0.708812     -0.847936      0.623928
    3   C      3    1.8500  1.000      1.806343     -1.576436      0.184280
    4   C      4    1.8500  1.000      2.691731     -0.676653     -0.364677
    5   N      5    1.8900  1.000      2.202374      0.580244     -0.374438
    6   H      6    1.2000  1.000      1.881348     -2.636603      0.366464
    7   H      7    1.2000  1.000      3.680645     -0.871107     -0.757541
    8   H      8    1.2000  1.000     -0.687117     -1.475095      0.332778
    9   C      9    1.8500  1.000     -0.085111      1.427326      0.153315
   10   O     10    1.5200  1.000     -1.172797      0.950153      0.607237
   11   O     11    1.5200  1.000      0.182624      2.547423     -0.286462
   12   O     12    1.5200  1.000     -3.258427      0.049287     -0.390817
   13   H     13    1.2000  1.000     -3.955934      0.267101      0.235843
   14   H     14    1.2000  1.000     -2.288733      0.539987      0.028643
   15   O     15    1.5200  1.000     -1.772566     -2.143581     -0.170187
   16   H     16    1.2000  1.000     -1.543685     -2.309470     -1.091770
   17   H     17    1.2000  1.000     -2.579350     -1.108192     -0.172754
 ------------------------------------------------------------------------------
 ------------------------------------------------------------------------------
 Atomic radii for non-electrostatic terms: SMD-CDS.
 ------------------------------------------------------------------------------
 Nuclear repulsion after PCM non-electrostatic terms =      552.0856347218 Hartrees.
 One-electron integrals computed using PRISM.
 NBasis=   225 RedAO= T EigKep=  3.09D-05  NBF=   225
 NBsUse=   225 1.00D-06 EigRej= -1.00D+00 NBFU=   225
 Initial guess from the checkpoint file:  "/scratch/gongke2021/TS-2/Gau-4454.chk"
 B after Tr=     0.000000   -0.000000    0.000000
         Rot=    0.999990   -0.000268    0.001725   -0.004165 Ang=  -0.52 deg.
 Initial guess <Sx>= 0.0000 <Sy>= 0.0000 <Sz>= 0.5000 <S**2>= 0.7619 S= 0.5059
 ExpMin= 4.38D-02 ExpMax= 5.48D+03 ExpMxC= 8.25D+02 IAcc=2 IRadAn=         4 AccDes= 0.00D+00
 Harris functional with IExCor= 1009 and IRadAn=       4 diagonalized for initial guess.
 HarFok:  IExCor= 1009 AccDes= 0.00D+00 IRadAn=         4 IDoV= 1 UseB2=F ITyADJ=14
 ICtDFT=  3500011 ScaDFX=  1.000000  1.000000  1.000000  1.000000
 FoFCou: FMM=F IPFlag=           0 FMFlag=      100000 FMFlg1=           0
         NFxFlg=           0 DoJE=T BraDBF=F KetDBF=T FulRan=T
         wScrn=  0.000000 ICntrl=       500 IOpCl=  0 I1Cent=   200000004 NGrid=           0
         NMat0=    1 NMatS0=      1 NMatT0=    0 NMatD0=    1 NMtDS0=    0 NMtDT0=    0
 Petite list used in FoFCou.
 Requested convergence on RMS density matrix=1.00D-08 within 128 cycles.
 Requested convergence on MAX density matrix=1.00D-06.
 Requested convergence on             energy=1.00D-06.
 No special actions if energy rises.
 Inv3:  Mode=1 IEnd=     5499948.
 Iteration    1 A*A^-1 deviation from unit magnitude is 2.78D-15 for     10.
 Iteration    1 A*A^-1 deviation from orthogonality  is 1.63D-15 for    897    560.
 Iteration    1 A^-1*A deviation from unit magnitude is 2.66D-15 for    583.
 Iteration    1 A^-1*A deviation from orthogonality  is 2.57D-15 for    463    214.
 Error on total polarization charges =  0.06123
 SCF Done:  E(UM062X) =  -583.532826491     A.U. after   16 cycles
            NFock= 16  Conv=0.95D-08     -V/T= 2.0093
 <Sx>= 0.0000 <Sy>= 0.0000 <Sz>= 0.5000 <S**2>= 0.7620 S= 0.5060
 <L.S>=  0.00000000000    
 SMD-CDS (non-electrostatic) energy       (kcal/mol) =       5.28
 (included in total energy above)
 Annihilation of the first spin contaminant:
 S**2 before annihilation     0.7620,   after     0.7501
 D1PCM: PCM CHGder 1st derivatives, ID1Alg=3 FixD1E=F DoIter=F DoCFld=F I1PDM=0.
 Calling FoFJK, ICntrl=      2127 FMM=F ISym2X=0 I1Cent= 0 IOpClX= 1 NMat=1 NMatS=1 NMatT=0.
 ***** Axes restored to original set *****
 -------------------------------------------------------------------
 Center     Atomic                   Forces (Hartrees/Bohr)
 Number     Number              X              Y              Z
 -------------------------------------------------------------------
      1        7          -0.024384179   -0.000699529    0.004772808
      2        7          -0.039091185   -0.027778308   -0.009271375
      3        6          -0.005193961    0.018288069    0.005641719
      4        6           0.006391613   -0.008265984   -0.002330964
      5        7           0.003501954    0.010368093   -0.003940314
      6        1           0.000118177   -0.000599154   -0.000389083
      7        1          -0.000304268    0.000221831   -0.000608907
[...]
   yx         0.197863D+02      0.293203D+01      0.326233D+01
   yy         0.983059D+02      0.145674D+02      0.162085D+02
   zx         0.493903D+01      0.731889D+00      0.814336D+00
   zy         0.253639D+02      0.375854D+01      0.418193D+01
   zz         0.146007D+03      0.216360D+02      0.240733D+02

 ----------------------------------------------------------------------
 1\1\GINC-NODE5\Freq\UM062X\6-31+G(d,p)\C3H7N3O4(1-,2)\GONGKE2021\06-Ju
 l-2023\0\\#N Geom=AllCheck Guess=TCheck SCRF=Check GenChk UM062X/6-31+
 G(d,p) Freq\\TS\\-1,2\N,0.7889249964,0.4052784464,0.0274086814\N,0.517
 2924184,-0.881930633,0.4820974182\C,1.6695136843,-1.5605409196,0.18738
 0991\C,2.5750975822,-0.700340736,-0.3894456802\N,2.057374713,0.5479743
 789,-0.5016566456\H,1.7563399534,-2.6151114147,0.4064243775\H,3.579658
 4507,-0.9057703446,-0.7310619885\H,-0.7440902424,-1.5284921369,0.16766
 53825\C,-0.057383924,1.4791349465,0.2145382958\O,-1.182472112,1.235576
 887,0.8138253164\O,0.3076670307,2.616338892,-0.1809969098\O,-2.9455669
 247,0.0127862237,-0.3526751946\H,-3.7637100073,0.0373370774,0.16564235
 59\H,-2.2038504677,0.6116374127,0.1455674307\O,-1.6883974687,-2.001321
 9609,-0.0805887049\H,-1.5622862391,-2.491520821,-0.9062856913\H,-2.433
 5981133,-1.0343751078,-0.2628906846\\Version=ES64L-G16RevA.03\State=2-
 A\HF=-583.585318\S2=0.762534\S2-1=0.\S2A=0.750063\RMSD=2.446e-09\RMSF=
 1.468e-05\ZeroPoint=0.1147036\Thermal=0.1246463\Dipole=-2.3075382,-4.9
 002342,-0.6391574\DipoleDeriv=-0.6516649,0.7955253,0.0038042,0.7452849
 ,-0.942147,-0.1285511,0.1118158,-0.3250562,-0.0886204,-1.2675893,-1.10
 8188,0.3339115,-0.1606949,-0.5032567,-0.1042942,0.0471758,0.3205517,-0
 .4758618,0.2213048,0.4578827,-0.3325989,-0.2396353,-0.3130702,0.057643
 3,-0.1624692,-0.239302,-0.1588821,0.0113757,-0.1993044,-0.0521257,0.47
 47544,0.4280472,-0.3336839,-0.1972691,-0.1075782,-0.105034,-0.4585965,
 0.1992956,0.0259073,-0.6026556,-0.750286,0.321982,0.1917428,0.0659604,
 -0.4235628,0.146198,0.0295748,0.0402711,0.0456091,-0.0009939,0.0472893
 ,0.0308609,0.0627564,0.2358765,-0.0069744,0.072453,0.0767637,0.0424554
 ,0.1359888,0.0083887,0.0835248,0.011036,0.2052257,1.905414,1.0663935,0
 .1514035,0.8383862,0.8777721,0.0659008,0.3946588,0.2060482,0.455289,2.
 9505851,-0.5729689,-0.9440048,-0.8303967,4.0538059,-0.3393647,-1.11186
 92,-0.3815116,0.9752975,-2.8954391,0.1617566,0.460342,-0.4901593,-1.06
 58248,0.0565179,0.5738606,-0.2572217,-1.0711458,-0.886353,-0.4910723,0
 .1559982,0.3375936,-2.9787855,0.2824871,0.0226319,0.669832,-0.8321686,
 -1.6226327,0.1110118,-0.2147529,-0.03116,-1.488346,-0.0728694,-0.44778
 14,-0.0851415,-0.7437498,0.4747799,-0.0195215,0.0053689,-0.0182664,0.3
 8972,-0.0126857,0.0172139,-0.0144744,0.4032114,1.6675909,0.4831067,0.3
 473557,0.8542635,0.731501,0.1920008,0.7002596,0.2257157,0.5543245,-1.9
 003347,-0.2205355,-0.1241095,-0.1280527,-1.6276729,0.0161006,-0.337949
 2,-0.0763459,-0.703031,0.3666086,0.0268479,0.0288035,0.0243566,0.45946
 68,0.0012599,0.0201714,0.0052145,0.3788796,0.9457277,-0.7922572,0.0376
 621,-0.8616829,1.5940812,-0.0581216,0.0634218,-0.0804836,0.3939521\Pol
 ar=150.507254,-14.0509151,163.2998037,-17.5582671,-7.4676858,90.023881
 2\Quadrupole=9.5121096,-10.7476631,1.2355535,-3.0373372,2.1135945,4.70
 52703\PG=C01 [X(C3H7N3O4)]\NImag=1\\0.60347883,-0.17006081,0.71082233,
 -0.18754311,-0.07106178,0.16539477,-0.10341086,0.00238903,0.02181343,0
 .50356919,-0.05181166,-0.19474796,0.05965447,-0.05691529,0.41684238,0.
 03634942,0.04412198,-0.05571256,-0.11529323,-0.04655448,0.12825688,-0.
 02420402,0.04950471,-0.00184119,-0.25532303,0.10540908,0.05228321,0.54
 834668,0.03320474,-0.07914543,0.00618792,0.06410065,-0.14314787,-0.005
 64101,-0.00526794,0.83882732,0.00277910,0.00260688,-0.00121871,0.06601
 662,-0.02148955,-0.06273568,-0.16904565,-0.17786565,0.21386264,-0.0683
 2470,0.03938052,0.01834412,-0.07843150,0.02406407,0.03190206,-0.221011
 67,-0.13682498,0.09629024,0.80410785,0.05603928,-0.03324018,-0.0121794
 7,0.00252818,0.00967770,0.00286009,-0.12882906,-0.18386442,0.08010115,
 -0.04133175,0.56082695,0.01357302,-0.00686500,-0.00138650,0.03912509,-
 0.00556685,0.00703685,0.09529337,0.08456966,-0.12117938,-0.25983831,-0
 .09759391,0.24323379,-0.18941983,-0.04363052,0.07684328,-0.02883014,-0
 .02809581,0.01599799,0.02170531,0.01949873,-0.00493826,-0.12330316,0.0
 8772228,0.00611929,0.35782551,0.01213993,-0.10351010,0.01099399,-0.029
 90344,-0.02000577,0.01342475,-0.01780853,-0.09937051,0.03824968,0.0607
 1967,-0.28206833,0.03546070,-0.06879492,0.50202610,0.05550586,0.032447
 10,-0.06563170,0.01844690,0.01550333,-0.01314150,0.00562956,0.02387568
 ,0.01780104,0.01345901,0.02479799,-0.06034075,-0.10171523,-0.08200072,
 0.12269585,-0.00610298,0.00449763,0.00334482,0.00334497,0.02504780,-0.
 00922135,-0.05594865,0.01930210,0.00805751,0.01015551,-0.01813079,0.00
 044787,-0.00205776,-0.00266874,0.00418014,0.04929538,0.00134268,0.0000
 5274,0.00040392,-0.00099437,-0.00865766,0.00149793,0.02416590,-0.34950
 576,0.06850652,0.00592678,-0.00632810,-0.00070361,-0.00037907,0.000671
 05,0.00162275,-0.02949939,0.36444040,0.00338953,-0.00028123,0.00338005
 ,-0.00214502,-0.00990737,-0.00138353,0.00547161,0.07071490,-0.04365458
 ,-0.00507986,0.00925162,0.00005287,0.00384320,0.00249397,0.00443016,-0
 .00495492,-0.07136070,0.03870934,0.00096590,0.00153246,0.00191455,0.00
 021255,-0.00075284,0.00239653,-0.00686835,0.00777765,0.00102039,-0.320
 48115,0.05287847,0.10083649,-0.00628395,0.00034982,0.00020397,-0.00040
 125,-0.00050263,-0.00076286,0.33278753,0.00445813,-0.00708461,0.001371
 37,-0.00288514,-0.00280694,0.00314481,-0.01694111,0.01189605,0.0039614
 0,0.04825672,-0.06632840,-0.00921514,0.02628971,0.00028571,-0.01160029
 ,0.00055524,-0.00025797,-0.00084136,-0.06103160,0.06267336,0.00075077,
 0.00250786,0.00537781,0.00347783,0.00329798,0.00518839,0.00735965,-0.0
 0567215,-0.00087233,0.10163783,-0.01100573,-0.06667196,-0.00580798,-0.
 00179226,-0.00261287,-0.00103036,-0.00038570,-0.00213356,-0.10611320,0
 .01355644,0.06104340,0.00522127,-0.00516001,0.00901225,0.01721500,0.02
 308207,0.00656774,-0.01764477,0.00845108,0.00251092,0.00556460,-0.0006
 2953,-0.00366012,0.00401391,0.00706185,-0.00401463,0.00058274,-0.00028
 710,0.00097633,0.00049024,0.00025937,-0.00062928,0.09855282,-0.0071289
 2,-0.00756133,0.00259733,0.02853980,-0.01622819,0.00731984,-0.00098887
 ,0.01178094,0.00337465,0.00564806,-0.00190703,-0.00258561,0.00211548,0
 .00258791,-0.00189835,0.00012238,-0.00037646,0.00048347,0.00020841,0.0
 0039175,-0.00095196,-0.00260996,0.06982791,0.00842108,-0.00092743,0.00
 017578,-0.00154051,0.00484911,-0.01340862,0.00296223,0.00412633,-0.000
 70210,0.00190047,-0.00021759,-0.00036538,0.00163113,0.00273412,-0.0012
 5182,0.00000173,-0.00017753,-0.00003546,0.00032557,0.00032591,-0.00024
 219,0.00665535,0.01043603,0.06539602,-0.16511940,0.08483785,0.03034861
 ,0.00098189,0.00080500,-0.00296220,0.00734862,-0.00824592,-0.00182390,
 -0.00472612,-0.01181601,0.00465692,-0.02519906,0.02731651,0.00510338,0
 .00191437,-0.00092437,0.00000375,0.00068547,0.00033398,0.00001622,0.01
 057129,0.00327516,0.00194635,0.60026003,0.08385850,-0.20684173,0.00504
 036,0.03293569,-0.02002921,-0.01163394,-0.01852138,0.00196384,0.007668
 13,-0.00498025,0.01053448,-0.00038551,0.00270856,-0.00118970,-0.004382
 93,-0.00036678,0.00082980,-0.00019158,-0.00149321,0.00226042,-0.000024
 99,-0.01623111,-0.00895351,-0.00288102,0.05518417,0.70843919,0.0399370
 3,-0.00825956,-0.06173913,-0.00920289,0.00717812,-0.00177995,-0.000222
 93,0.00388424,-0.00232488,0.00234923,0.00307377,-0.00148559,0.00456860
 ,-0.01149031,-0.00420526,-0.00080106,0.00060494,0.00080425,0.00019674,
 -0.00015867,0.00092023,-0.00329004,-0.00137580,-0.00012404,-0.19073230
 ,-0.12845966,0.30694417,-0.06125831,0.01257789,0.03937713,0.01415268,0
 .00382888,-0.00804959,-0.00846816,0.00294408,0.00378665,-0.00152106,0.
 00293798,0.00063135,-0.00962001,0.00460656,0.00427278,-0.00046900,0.00
 048510,-0.00014872,-0.00092197,0.00103041,-0.00026742,-0.01138284,-0.0
 0541598,-0.00192814,-0.27446143,-0.03849022,0.10323859,0.40620317,0.03
 300437,0.00559030,-0.01100123,0.00883644,-0.00036816,-0.00544317,-0.00
 157993,0.00173143,-0.00035733,0.00361364,0.00114176,-0.00128129,-0.004
 84965,-0.00544453,0.00404700,-0.00002468,-0.00010793,-0.00001859,0.000
 28381,-0.00031894,0.00001853,0.00017822,0.00132335,0.00090769,-0.04041
 616,-0.09393077,0.01932305,0.08076492,0.12843531,0.02716931,-0.0035881
 7,-0.00236506,-0.00867327,-0.00147409,0.00349604,0.00383223,-0.0014704
 5,-0.00093694,0.00041058,-0.00099212,0.00103323,0.00619032,-0.00027263
 ,0.00207812,0.00015322,-0.00016099,0.00000992,0.00018805,-0.00046732,-
 0.00016705,0.00316909,0.00147622,-0.00018872,0.11577154,0.02241898,-0.
 13293474,-0.15871461,-0.02402951,0.15752141,0.00988569,0.02173772,-0.0
 0503076,-0.00633371,-0.00423078,0.00643241,0.00288269,0.00226234,-0.00
 136603,0.00135069,-0.00061119,-0.00022454,0.00281026,0.01082010,-0.002
 96505,-0.00006310,0.00023787,-0.00001966,-0.00001415,-0.00003341,0.000
 05074,0.00141933,0.00108756,-0.00007288,-0.12166089,-0.09726711,0.0438
 3130,-0.03315576,-0.06028419,0.03364397,0.14024610,0.00247494,-0.08682
 153,0.01157005,-0.00579152,-0.01253450,0.00592185,0.00769742,-0.005006
 74,-0.00235602,-0.00155142,-0.00860915,0.00237190,0.00799194,0.0079109
 3,-0.00292656,0.00128336,-0.00086535,-0.00003014,0.00080649,-0.0004703
 9,-0.00006919,0.01177025,0.00575188,0.00186737,-0.09775438,-0.39367509
 ,0.10880298,-0.04971670,-0.02117404,0.02887299,0.12553821,0.51721830,0
 .00138637,0.00872522,0.01549720,0.00685031,0.00553334,-0.00030375,-0.0
 0241411,0.00008086,0.00237880,-0.00016684,0.00185910,-0.00037356,-0.00
 258059,-0.00611239,-0.00036419,-0.00015187,0.00002506,-0.00004967,-0.0
 0014742,0.00009173,-0.00003333,-0.00291529,-0.00114457,-0.00043094,0.0
 4131023,0.10829406,-0.11135138,0.03682511,0.03638397,0.00061895,-0.076
 43208,-0.15440899,0.09632755,-0.00204968,0.00182713,0.00201985,-0.0007
 7394,-0.00006075,-0.00171267,-0.00074152,0.00000509,0.00037475,-0.0002
 5982,0.00077813,0.00002866,-0.00192313,-0.00053082,0.00079031,-0.00008
 231,0.00009501,-0.00002670,-0.00013126,0.00008555,0.00003500,0.0053279
 8,0.00158386,0.00211364,0.02168306,0.00163497,-0.01770812,-0.06415820,
 -0.03702921,-0.02554709,-0.00439192,-0.00537351,0.00510656,0.57594258,
 -0.00187436,0.00054118,0.00295884,0.00661612,0.00406100,0.00024400,-0.
 00220384,0.00113326,0.00080747,0.00034906,0.00071588,-0.00036906,-0.00
 123987,0.00018529,0.00032056,-0.00009102,0.00002157,0.00002722,-0.0000
 6915,0.00011455,-0.00006619,-0.01306870,-0.01007716,-0.00432360,0.0168
 4110,0.00067216,-0.01546922,-0.05762411,-0.01988842,-0.01525354,-0.003
 05646,-0.00294177,0.00307423,0.02648218,0.24612521,-0.00144453,0.00058
 056,0.00114078,0.00104554,0.00076068,-0.00058049,-0.00074598,0.0002142
 9,0.00029501,-0.00004307,0.00043802,-0.00004296,-0.00113853,-0.0001811
 6,0.00048151,-0.00005344,0.00004598,-0.00000886,-0.00006939,0.00005965
 ,0.00000272,-0.00116439,-0.00087942,-0.00016380,0.00974493,-0.00121021
 ,-0.01051457,-0.04171672,-0.01877852,-0.00215837,-0.00274302,-0.002552
 99,0.00274955,-0.15725027,0.06470352,0.27228465,0.00012880,-0.00000307
 ,0.00005069,0.00006643,0.00009635,-0.00000126,0.00001799,0.00002023,-0
 .00000034,0.00001612,-0.00002553,-0.00000473,0.00005175,0.00000896,-0.
 00007790,-0.00000045,-0.00000382,-0.00000008,0.00000593,-0.00000192,-0
 .00000075,-0.00033145,-0.00023850,-0.00011208,-0.00003943,0.00001380,0
 .00029602,0.00109672,-0.00037067,-0.00122529,0.00009927,0.00013104,-0.
 00007811,-0.37169288,0.00372390,0.21220351,0.39341117,-0.00002151,0.00
 008144,0.00017060,0.00030444,0.00017275,0.00003277,-0.00008783,0.00005
 071,0.00004007,0.00001439,0.00004760,-0.00002008,-0.00004144,-0.000008
 74,-0.00001951,-0.00000290,0.00000170,0.00000162,-0.00000331,0.0000050
 1,-0.00000370,-0.00093675,-0.00009238,-0.00031009,0.00143344,0.0002176
 0,-0.00087864,-0.00290150,-0.00179535,-0.00254536,-0.00016015,-0.00029
 421,0.00029473,0.00374633,-0.03832553,-0.01499310,-0.00670135,0.032284
 69,-0.00006324,0.00014778,0.00014919,0.00000618,0.00000608,-0.00008131
 ,-0.00004685,0.00000756,0.00001175,-0.00001022,0.00004140,-0.00000085,
 -0.00008799,-0.00001601,0.00001186,-0.00000438,0.00000634,0.00000118,-
 0.00000642,0.00000479,0.00000134,0.00030943,-0.00002431,0.00015620,0.0
 0143200,0.00031455,-0.00103787,-0.00337313,-0.00265145,-0.00247523,-0.
 00020418,-0.00037148,0.00037407,0.24315452,-0.01631977,-0.16610361,-0.
 22799917,0.01436418,0.15829067,0.00418832,-0.00295511,-0.00389426,-0.0
 0367132,-0.00275334,0.00140010,0.00251934,-0.00072061,-0.00108477,0.00
 025546,-0.00152659,0.00024577,0.00316903,0.00046582,-0.00064789,0.0001
 8207,-0.00015624,0.00001352,0.00023126,-0.00019267,-0.00001565,0.00515
 968,0.00352379,0.00121121,-0.04744452,-0.00802741,0.02625789,0.0416313
 0,0.01886910,0.00671230,0.00794772,0.00931649,-0.00830007,-0.09038603,
 -0.02123871,-0.01739576,-0.01626304,-0.01160538,-0.01032968,0.08357212
 ,0.00394923,-0.00156500,-0.00395075,-0.00345861,-0.00148882,0.00146442
 ,0.00198046,-0.00075277,-0.00084887,-0.00008520,-0.00095042,0.00012511
 ,0.00237950,0.00024251,-0.00113369,0.00012010,-0.00008897,0.00002117,0
 .00015976,-0.00013139,0.00002884,0.00445181,0.00126561,0.00104986,-0.0
 2407730,-0.00615561,0.01925898,0.03352812,0.00057269,-0.00299980,0.003
 90492,0.00514100,-0.00279254,-0.04110624,-0.07111600,-0.03783549,0.001
 98699,0.00395953,0.00451230,0.02631240,0.09273645,0.00283600,-0.000761
 44,-0.00222421,-0.00203210,-0.00161784,0.00069156,0.00130608,-0.000414
 07,-0.00058691,0.00012011,-0.00072676,0.00005963,0.00184136,0.00003749
 ,-0.00070307,0.00009671,-0.00007936,0.00002042,0.00013153,-0.00011221,
 0.00000605,0.00282730,0.00157314,0.00080590,-0.01254540,0.00304098,0.0
 1826797,0.02422515,0.00213712,-0.02326198,0.00509183,0.00486525,-0.005
 27707,-0.04245733,-0.05010317,-0.07521137,0.01293744,0.01523695,0.0109
 6631,0.00443914,0.03334599,0.07619410,-0.00311830,0.00388861,-0.005911
 60,-0.06506618,-0.03859625,-0.01788520,0.00868990,-0.00733540,-0.00323
 008,-0.00367898,-0.00000402,0.00301118,-0.00290912,-0.00411414,0.00201
 613,-0.00030192,0.00049799,-0.00054620,-0.00028317,-0.00021391,0.00058
 933,-0.11217025,-0.02215281,0.00785014,-0.00804323,0.00997699,0.004001
 91,0.01160353,0.00183599,-0.00107416,-0.00057325,-0.00692627,0.0012804
 9,-0.02677312,0.07466676,0.00028170,0.00210814,0.00300550,-0.00124283,
 -0.01132765,-0.00554491,-0.00554953,0.26853952,0.00040178,0.00321208,-
 0.00121730,-0.03723741,-0.00584375,-0.00919977,0.00189386,-0.00515000,
 -0.00187161,-0.00260812,0.00047596,0.00160164,-0.00153478,-0.00153162,
 0.00094878,-0.00018781,0.00013059,-0.00029414,-0.00011602,-0.00014794,
 0.00044408,-0.03813519,-0.06082497,-0.01422234,0.00005608,0.00474617,-
 0.00064179,-0.00276348,-0.00220289,-0.00270477,-0.00095647,-0.00373158
 ,0.00112592,0.05644725,-0.07939252,0.00265472,-0.00151556,-0.00686871,
 0.00252213,0.00806639,0.00669778,0.00426310,-0.00033110,0.29133031,-0.
 00279129,0.00090515,-0.00115814,-0.01994781,-0.01064036,0.00333526,0.0
 0064240,-0.00293322,-0.00023528,-0.00146034,0.00031802,0.00055346,-0.0
 0090255,-0.00168094,0.00093756,-0.00003274,0.00015942,-0.00015589,-0.0
 0013099,-0.00013262,0.00022437,-0.01347737,-0.01895882,-0.04258328,-0.
 00216339,0.00285426,0.00059809,0.00257600,0.00031413,-0.00025523,-0.00
 014349,-0.00196104,0.00041999,-0.00465450,0.00720656,0.01436337,-0.000
 01101,0.00265526,-0.00006556,-0.00203381,0.00009412,-0.00100124,-0.015
 16287,0.23922843,0.45287822,-0.00029859,0.00026112,0.00003773,-0.00393
 155,-0.00090433,0.00023361,-0.00011304,-0.00044129,0.00014876,-0.00031
 092,-0.00000568,0.00013869,-0.00018892,-0.00017807,0.00015870,-0.00002
 151,0.00002741,-0.00006567,-0.00001599,-0.00002623,0.00005370,0.011826
 18,-0.01134676,-0.02329809,-0.00026207,0.00030655,0.00010764,0.0003995
 0,0.00011862,0.00002940,-0.00001613,-0.00018930,0.00000225,-0.00219882
 ,0.00452096,-0.00219930,0.00020530,-0.00010558,-0.00001583,-0.00035811
 ,-0.00056570,-0.00021313,-0.04659287,0.04161333,0.06175370,0.03967921,
 -0.00007039,-0.00013635,0.00004693,0.00010441,0.00097007,0.00065022,-0
 .00047541,-0.00002700,0.00007688,-0.00001611,0.00004145,-0.00004548,0.
 00009644,0.00006522,-0.00002526,-0.00000045,-0.00001283,0.00000290,0.0
 0000554,-0.00000600,0.00000700,0.00262798,-0.00711716,-0.01072237,0.00
 013614,-0.00026504,-0.00007690,-0.00015755,-0.00000313,0.00011510,0.00
 001204,0.00016106,-0.00004010,0.00163283,-0.00193059,0.00191674,0.0000
 8399,0.00013381,0.00012852,0.00010009,0.00034798,0.00001288,0.02910958
 ,-0.13858531,-0.20767122,-0.03246810,0.15158548,-0.00015389,-0.0001637
 6,0.00019416,0.00134229,0.00052713,0.00088640,-0.00036100,0.00013315,0
 .00004818,0.00008822,-0.00000579,-0.00008724,0.00010197,0.00009411,-0.
 00011964,-0.00002666,0.00000021,0.00001393,0.00001027,0.00000295,-0.00
 001834,0.00076492,-0.00235613,-0.00662758,0.00000326,-0.00036958,0.000
 06643,0.00010959,0.00021745,0.00016792,0.00006708,0.00027784,-0.000102
 14,-0.00300062,0.00499430,-0.00102002,0.00007043,0.00011216,-0.0000491
 6,-0.00043504,-0.00056358,-0.00021098,0.04669700,-0.22846268,-0.384836
 71,-0.04983770,0.22889486,0.38690126,-0.00056214,-0.00062517,0.0011144
 6,0.00622953,0.00178779,0.00156243,-0.00118731,0.00126944,0.00050408,0
 .00059885,0.00002582,-0.00038002,0.00015933,0.00050943,-0.00034604,-0.
 00002611,-0.00003175,0.00005176,0.00002236,0.00005689,-0.00010641,-0.0
 2441573,0.00377731,-0.00806719,0.00351140,-0.00124176,-0.00282760,-0.0
 0967017,-0.00295062,-0.00203558,-0.00043285,0.00029295,0.00042506,-0.0
 3739098,-0.03273387,0.00268873,-0.00888035,0.01406361,-0.00151820,0.02
 059438,-0.00393532,0.00694484,-0.01010306,-0.02309276,-0.00205994,0.00
 219830,-0.00072103,0.00455989,0.05935456,0.00009407,0.00035414,-0.0015
 8525,-0.00916900,-0.00586507,-0.00221030,0.00205247,-0.00141303,-0.000
 60380,-0.00057507,-0.00016575,0.00050252,-0.00023657,-0.00084543,0.000
 42412,0.00004396,0.00005318,-0.00007176,-0.00003366,-0.00007426,0.0001
 1113,0.01917570,0.02020884,0.00748555,-0.00698530,0.00137699,0.0046844
 7,0.01436562,0.00643933,0.00307547,0.00099901,-0.00005881,-0.00098962,
 -0.01021782,-0.02989811,0.00505672,0.00279516,0.01043009,-0.00267262,-
 0.01747803,-0.02871456,-0.01069805,-0.03776262,-0.00231360,-0.00975712
 ,-0.00061696,-0.00522166,-0.00333266,0.04354904,0.03570773,-0.00010141
 ,-0.00013417,0.00012628,0.00071064,-0.00005970,0.00023600,-0.00010261,
 0.00020196,0.00004938,0.00009676,-0.00001978,-0.00003567,0.00003399,0.
 00005762,-0.00006527,-0.00000522,-0.00000519,-0.00000056,0.00000618,0.
 00000857,-0.00001267,-0.00364221,0.00291430,-0.00040997,-0.00010998,-0
 .00009189,-0.00010374,-0.00084402,0.00021213,-0.00018228,0.00008436,0.
 00012617,-0.00008007,-0.00126598,0.01756787,-0.03551353,0.00395265,-0.
 01413787,-0.00014896,0.00385700,-0.00977607,0.00146491,-0.01512543,0.0
 0582560,-0.04301898,0.01296555,-0.01327072,0.00479352,-0.00051028,0.01
 058120,0.07290162\\-0.00000363,0.00000167,0.00000781,0.00000021,0.0000
 0243,0.00000023,0.00000992,0.00001585,0.00000005,0.00000449,0.00002642
 ,0.00000926,-0.00000593,0.00002359,0.00001330,0.00001788,0.00001487,-0
 .00000492,0.00000700,0.00003724,0.00001119,0.00000476,-0.00001146,-0.0
 0000907,-0.00002335,0.00000896,0.00001233,-0.00001519,-0.00001489,0.00
 000250,-0.00002563,0.00000384,0.00001901,-0.00000991,-0.00002070,-0.00
 001100,-0.00000394,-0.00003392,-0.00001075,-0.00000744,-0.00001519,0.0
 0000060,0.00002062,-0.00001375,-0.00001262,0.00002352,-0.00000737,-0.0
 0001680,0.00000664,-0.00001759,-0.00001111\\\@


 THE FIRST MORNING OF CREATION WROTE WHAT THE LAST DAWN OF
 RECKONING SHALL READ. -- OMAR KHAYYAM
 Job cpu time:       0 days  0 hours 56 minutes 23.1 seconds.
 Elapsed time:       0 days  0 hours  2 minutes 21.7 seconds.
 File lengths (MBytes):  RWF=    223 Int=      0 D2E=      0 Chk=     14 Scr=      1
 Normal termination of Gaussian 16 at Thu Jul  6 13:03:17 2023.
