 Entering Gaussian System, Link 0=/opt/soft/g16/g16
 Initial command:
 /opt/soft/g16/l1.exe "/scratch/gongke2021/PC-2-N/Gau-16032.inp" -scrdir="/scratch/gongke2021/PC-2-N/"
 Entering Link 1 = /opt/soft/g16/l1.exe PID=     16033.
  
 Copyright (c) 1988,1990,1992,1993,1995,1998,2003,2009,2016,
            Gaussian, Inc.  All Rights Reserved.
  
 This is part of the Gaussian(R) 16 program.  It is based on
 the Gaussian(R) 09 system (copyright 2009, Gaussian, Inc.),
 the Gaussian(R) 03 system (copyright 2003, Gaussian, Inc.),
 the Gaussian(R) 98 system (copyright 1998, Gaussian, Inc.),
 the Gaussian(R) 94 system (copyright 1995, Gaussian, Inc.),
 the Gaussian 92(TM) system (copyright 1992, Gaussian, Inc.),
 the Gaussian 90(TM) system (copyright 1990, Gaussian, Inc.),
 the Gaussian 88(TM) system (copyright 1988, Gaussian, Inc.),
 the Gaussian 86(TM) system (copyright 1986, Carnegie Mellon
 University), and the Gaussian 82(TM) system (copyright 1983,
 Carnegie Mellon University). Gaussian is a federally registered
 trademark of Gaussian, Inc.
  
 This software contains proprietary and confidential information,
 including trade secrets, belonging to Gaussian, Inc.
  
 This software is provided under written license and may be
 used, copied, transmitted, or stored only in accord with that
 written license.
  
 The following legend is applicable only to US Government
 contracts under FAR:
  
                    RESTRICTED RIGHTS LEGEND
  
 Use, reproduction and disclosure by the US Government is
 subject to restrictions as set forth in subparagraphs (a)
 and (c) of the Commercial Computer Software - Restricted
 Rights clause in FAR 52.227-19.
  
 Gaussian, Inc.
 340 Quinnipiac St., Bldg. 40, Wallingford CT 06492
  
  
 ---------------------------------------------------------------
 Warning -- This program may not be used in any manner that
 competes with the business of Gaussian, Inc. or will provide
 assistance to any competitor of Gaussian, Inc.  The licensee
 of this program is prohibited from giving any competitor of
 Gaussian, Inc. access to this program.  By using this program,
 the user acknowledges that Gaussian, Inc. is engaged in the
 business of creating and licensing software in the field of
 computational chemistry and represents and warrants to the
 licensee that it is not a competitor of Gaussian, Inc. and that
 it will not use this program in any manner prohibited above.
 ---------------------------------------------------------------
  

 Cite this work as:
 Gaussian 16, Revision A.03,
 M. J. Frisch, G. W. Trucks, H. B. Schlegel, G. E. Scuseria, 
 M. A. Robb, J. R. Cheeseman, G. Scalmani, V. Barone, 
 G. A. Petersson, H. Nakatsuji, X. Li, M. Caricato, A. V. Marenich, 
 J. Bloino, B. G. Janesko, R. Gomperts, B. Mennucci, H. P. Hratchian, 
 J. V. Ortiz, A. F. Izmaylov, J. L. Sonnenberg, D. Williams-Young, 
 F. Ding, F. Lipparini, F. Egidi, J. Goings, B. Peng, A. Petrone, 
 T. Henderson, D. Ranasinghe, V. G. Zakrzewski, J. Gao, N. Rega, 
 G. Zheng, W. Liang, M. Hada, M. Ehara, K. Toyota, R. Fukuda, 
 J. Hasegawa, M. Ishida, T. Nakajima, Y. Honda, O. Kitao, H. Nakai, 
 T. Vreven, K. Throssell, J. A. Montgomery, Jr., J. E. Peralta, 
 F. Ogliaro, M. J. Bearpark, J. J. Heyd, E. N. Brothers, K. N. Kudin, 
 V. N. Staroverov, T. A. Keith, R. Kobayashi, J. Normand, 
 K. Raghavachari, A. P. Rendell, J. C. Burant, S. S. Iyengar, 
 J. Tomasi, M. Cossi, J. M. Millam, M. Klene, C. Adamo, R. Cammi, 
 J. W. Ochterski, R. L. Martin, K. Morokuma, O. Farkas, 
 J. B. Foresman, and D. J. Fox, Gaussian, Inc., Wallingford CT, 2016.
 
 ******************************************
 Gaussian 16:  ES64L-G16RevA.03 25-Dec-2016
                19-Oct-2023 
 ******************************************
 %mem=10GB
 %nprocshared=24
 Will use up to   24 processors via shared memory.
 -----------------------------------------------------
 # opt freq 6-31+g(d,p) scrf=(smd,solvent=water) m062x
 -----------------------------------------------------
 1/18=20,19=15,26=3,38=1/1,3;
 2/9=110,12=2,17=6,18=5,40=1/2;
 3/5=1,6=6,7=111,11=2,25=1,30=1,70=32201,71=1,72=1,74=-55/1,2,3;
 4//1;
 5/5=2,38=5,53=1/2;
 6/7=2,8=2,9=2,10=2,28=1/1;
 7//1,2,3,16;
 1/18=20,19=15,26=3/3(2);
 2/9=110/2;
 99//99;
 2/9=110/2;
 3/5=1,6=6,7=111,11=2,25=1,30=1,70=32205,71=1,72=1,74=-55/1,2,3;
 4/5=5,16=3,69=1/1;
 5/5=2,38=5,53=1/2;
 7//1,2,3,16;
 1/18=20,19=15,26=3/3(-5);
 2/9=110/2;
 6/7=2,8=2,9=2,10=2,19=2,28=1/1;
 99/9=1/99;
 ----
 test
 ----
 Symbolic Z-matrix:
 Charge =  0 Multiplicity = 1
 N                    -0.95841   0.17326  -0.03973 
 N                     0.19462   0.64718  -0.51003 
 C                     0.03139   1.95726  -0.49208 
 C                    -1.2618    2.23806   0.00443 
 N                    -1.86545   1.09667   0.27892 
 H                     0.80828   2.6293   -0.82638 
 H                    -1.75053   3.18739   0.16286 
 H                     2.54203   1.46365   0.72718 
 C                    -1.2308   -1.22854   0.09191 
 O                    -2.34784  -1.58501   0.40466 
 O                    -0.23762  -2.01846  -0.15455 
 O                     2.13755  -1.50245  -0.42093 
 H                     0.76572  -1.65743  -0.27124 
 H                     2.61441  -2.2262    0.01045 
 O                     3.17168   0.72982   0.70807 
 H                     2.47856  -0.66272  -0.0239 
 H                     3.92322   1.05431   0.19323 
 
 Add virtual bond connecting atoms H13        and O12        Dist= 2.62D+00.
 Add virtual bond connecting atoms H16        and O15        Dist= 3.25D+00.

 GradGradGradGradGradGradGradGradGradGradGradGradGradGradGradGradGradGrad
 Berny optimization.
 Initialization pass.
                           ----------------------------
                           !    Initial Parameters    !
                           ! (Angstroms and Degrees)  !
 --------------------------                            --------------------------
 ! Name  Definition              Value          Derivative Info.                !
 --------------------------------------------------------------------------------
 ! R1    R(1,2)                  1.3324         estimate D2E/DX2                !
 ! R2    R(1,5)                  1.333          estimate D2E/DX2                !
 ! R3    R(1,9)                  1.4341         estimate D2E/DX2                !
 ! R4    R(2,3)                  1.3203         estimate D2E/DX2                !
 ! R5    R(3,4)                  1.4134         estimate D2E/DX2                !
 ! R6    R(3,6)                  1.0803         estimate D2E/DX2                !
 ! R7    R(4,5)                  1.32           estimate D2E/DX2                !
 ! R8    R(4,7)                  1.0794         estimate D2E/DX2                !
 ! R9    R(8,15)                 0.9671         estimate D2E/DX2                !
 ! R10   R(9,10)                 1.2135         estimate D2E/DX2                !
 ! R11   R(9,11)                 1.2927         estimate D2E/DX2                !
 ! R12   R(11,13)                1.0727         estimate D2E/DX2                !
 ! R13   R(12,13)                1.3887         estimate D2E/DX2                !
 ! R14   R(12,14)                0.9681         estimate D2E/DX2                !
 ! R15   R(12,16)                0.9895         estimate D2E/DX2                !
 ! R16   R(15,16)                1.7191         estimate D2E/DX2                !
 ! R17   R(15,17)                0.967          estimate D2E/DX2                !
 ! A1    A(2,1,5)              115.2659         estimate D2E/DX2                !
 ! A2    A(2,1,9)              122.9881         estimate D2E/DX2                !
 ! A3    A(5,1,9)              121.7317         estimate D2E/DX2                !
 ! A4    A(1,2,3)              103.9542         estimate D2E/DX2                !
 ! A5    A(2,3,4)              108.3619         estimate D2E/DX2                !
 ! A6    A(2,3,6)              121.6118         estimate D2E/DX2                !
 ! A7    A(4,3,6)              130.025          estimate D2E/DX2                !
 ! A8    A(3,4,5)              108.6429         estimate D2E/DX2                !
 ! A9    A(3,4,7)              129.832          estimate D2E/DX2                !
 ! A10   A(5,4,7)              121.5251         estimate D2E/DX2                !
 ! A11   A(1,5,4)              103.7744         estimate D2E/DX2                !
 ! A12   A(1,9,10)             119.054          estimate D2E/DX2                !
 ! A13   A(1,9,11)             115.7134         estimate D2E/DX2                !
 ! A14   A(10,9,11)            125.2284         estimate D2E/DX2                !
 ! A15   A(9,11,13)            122.256          estimate D2E/DX2                !
 ! A16   A(13,12,14)           110.8011         estimate D2E/DX2                !
 ! A17   A(13,12,16)           113.0739         estimate D2E/DX2                !
 ! A18   A(14,12,16)           106.6123         estimate D2E/DX2                !
 ! A19   A(8,15,16)            111.1342         estimate D2E/DX2                !
 ! A20   A(8,15,17)            105.1818         estimate D2E/DX2                !
 ! A21   A(16,15,17)           111.0052         estimate D2E/DX2                !
 ! A22   L(11,13,12,2,-1)      193.2034         estimate D2E/DX2                !
 ! A23   L(12,16,15,1,-1)      183.8452         estimate D2E/DX2                !
 ! A24   L(11,13,12,2,-2)      181.2886         estimate D2E/DX2                !
 ! A25   L(12,16,15,1,-2)      178.1424         estimate D2E/DX2                !
 ! D1    D(5,1,2,3)              0.2453         estimate D2E/DX2                !
 ! D2    D(9,1,2,3)            178.8916         estimate D2E/DX2                !
 ! D3    D(2,1,5,4)             -0.2954         estimate D2E/DX2                !
 ! D4    D(9,1,5,4)           -178.9603         estimate D2E/DX2                !
 ! D5    D(2,1,9,10)          -172.9032         estimate D2E/DX2                !
 ! D6    D(2,1,9,11)             6.3845         estimate D2E/DX2                !
 ! D7    D(5,1,9,10)             5.6574         estimate D2E/DX2                !
 ! D8    D(5,1,9,11)          -175.0549         estimate D2E/DX2                !
 ! D9    D(1,2,3,4)             -0.0902         estimate D2E/DX2                !
 ! D10   D(1,2,3,6)           -179.7125         estimate D2E/DX2                !
 ! D11   D(2,3,4,5)             -0.0823         estimate D2E/DX2                !
 ! D12   D(2,3,4,7)            179.9757         estimate D2E/DX2                !
 ! D13   D(6,3,4,5)            179.4976         estimate D2E/DX2                !
 ! D14   D(6,3,4,7)             -0.4444         estimate D2E/DX2                !
 ! D15   D(3,4,5,1)              0.2151         estimate D2E/DX2                !
 ! D16   D(7,4,5,1)           -179.8371         estimate D2E/DX2                !
 ! D17   D(1,9,11,13)           10.8942         estimate D2E/DX2                !
 ! D18   D(10,9,11,13)        -169.8681         estimate D2E/DX2                !
 ! D19   D(9,11,12,14)         141.1036         estimate D2E/DX2                !
 ! D20   D(9,11,12,16)          21.9403         estimate D2E/DX2                !
 ! D21   D(13,12,15,8)         -29.9246         estimate D2E/DX2                !
 ! D22   D(13,12,15,17)       -147.3064         estimate D2E/DX2                !
 ! D23   D(14,12,15,8)        -151.3548         estimate D2E/DX2                !
 ! D24   D(14,12,15,17)         91.2635         estimate D2E/DX2                !
 --------------------------------------------------------------------------------
 Trust Radius=3.00D-01 FncErr=1.00D-07 GrdErr=1.00D-06 EigMax=2.50D+02 EigMin=1.00D-04
 Number of steps in this run=     76 maximum allowed number of steps=    102.
 GradGradGradGradGradGradGradGradGradGradGradGradGradGradGradGradGradGrad

                          Input orientation:                          
 ---------------------------------------------------------------------
 Center     Atomic      Atomic             Coordinates (Angstroms)
 Number     Number       Type             X           Y           Z
 ---------------------------------------------------------------------
      1          7           0       -0.958408    0.173257   -0.039726
      2          7           0        0.194624    0.647183   -0.510028
      3          6           0        0.031388    1.957264   -0.492081
      4          6           0       -1.261796    2.238062    0.004428
      5          7           0       -1.865451    1.096668    0.278916
      6          1           0        0.808276    2.629300   -0.826379
      7          1           0       -1.750526    3.187389    0.162863
      8          1           0        2.542030    1.463654    0.727180
      9          6           0       -1.230800   -1.228538    0.091911
     10          8           0       -2.347838   -1.585010    0.404660
     11          8           0       -0.237618   -2.018458   -0.154546
     12          8           0        2.137554   -1.502453   -0.420925
     13          1           0        0.765721   -1.657431   -0.271236
     14          1           0        2.614412   -2.226200    0.010452
     15          8           0        3.171678    0.729823    0.708074
     16          1           0        2.478559   -0.662722   -0.023895
     17          1           0        3.923221    1.054308    0.193225
 ---------------------------------------------------------------------
                    Distance matrix (angstroms):
                    1          2          3          4          5
     1  N    0.000000
     2  N    1.332394   0.000000
     3  C    2.089737   1.320333   0.000000
     4  C    2.087442   2.217368   1.413398   0.000000
     5  N    1.333022   2.251306   2.221049   1.320047   0.000000
     6  H    3.126043   2.098913   1.080251   2.264620   3.274058
     7  H    3.123057   3.269409   2.262162   1.079435   2.097091
     8  H    3.808718   2.776261   2.834356   3.948566   4.445392
     9  C    1.434069   2.431562   3.476133   3.467842   2.417506
    10  O    2.284622   3.504776   4.360340   3.994440   2.727619
    11  O    2.310051   2.723755   3.999082   4.380888   3.541432
    12  O    3.540946   2.898940   4.051005   5.072273   4.823822
    13  H    2.525398   2.386298   3.695137   4.400191   3.848480
    14  H    4.304063   3.792440   4.942259   5.912247   5.584147
    15  O    4.233979   3.217678   3.578883   4.735567   5.068670
    16  H    3.537210   2.677412   3.615546   4.733456   4.696549
    17  H    4.965966   3.816117   4.053559   5.321778   5.789461
                    6          7          8          9         10
     6  H    0.000000
     7  H    2.799559   0.000000
     8  H    2.603494   4.660016   0.000000
     9  C    4.459148   4.446972   4.678217   0.000000
    10  O    5.407118   4.815708   5.771411   1.213531   0.000000
    11  O    4.811123   5.430514   4.541915   1.292720   2.225672
    12  O    4.359215   6.119852   3.206172   3.418163   4.561485
    13  H    4.322737   5.476515   3.727369   2.074107   3.186900
    14  H    5.247694   6.955779   3.759516   3.973364   5.019009
    15  O    3.398268   5.528560   0.967124   4.857638   5.992960
    16  H    3.777729   5.722184   2.256018   3.754052   4.932381
    17  H    3.636355   6.061548   1.536347   5.637870   6.807120
                   11         12         13         14         15
    11  O    0.000000
    12  O    2.445130   0.000000
    13  H    1.072682   1.388651   0.000000
    14  H    2.864342   0.968137   1.954611   0.000000
    15  O    4.463234   2.706863   3.527982   3.087927   0.000000
    16  H    3.038537   0.989477   1.996106   1.569745   1.719120
    17  H    5.184151   3.178492   4.187966   3.536682   0.967045
                   16         17
    16  H    0.000000
    17  H    2.254414   0.000000
 Stoichiometry    C3H7N3O4
 Framework group  C1[X(C3H7N3O4)]
 Deg. of freedom    45
 Full point group                 C1      NOp   1
 Largest Abelian subgroup         C1      NOp   1
 Largest concise Abelian subgroup C1      NOp   1
                         Standard orientation:                         
 ---------------------------------------------------------------------
 Center     Atomic      Atomic             Coordinates (Angstroms)
 Number     Number       Type             X           Y           Z
 ---------------------------------------------------------------------
      1          7           0       -0.958408    0.173257   -0.039726
      2          7           0        0.194624    0.647183   -0.510028
      3          6           0        0.031388    1.957264   -0.492081
      4          6           0       -1.261796    2.238062    0.004428
      5          7           0       -1.865451    1.096668    0.278916
      6          1           0        0.808276    2.629300   -0.826379
      7          1           0       -1.750526    3.187389    0.162863
      8          1           0        2.542030    1.463654    0.727180
      9          6           0       -1.230800   -1.228538    0.091911
     10          8           0       -2.347838   -1.585010    0.404660
     11          8           0       -0.237618   -2.018458   -0.154546
     12          8           0        2.137554   -1.502453   -0.420925
     13          1           0        0.765721   -1.657431   -0.271236
     14          1           0        2.614412   -2.226200    0.010452
     15          8           0        3.171678    0.729823    0.708074
     16          1           0        2.478559   -0.662722   -0.023895
     17          1           0        3.923221    1.054308    0.193225
 ---------------------------------------------------------------------
 Rotational constants (GHZ):           1.4491422           1.0438432           0.6421977
 Standard basis: 6-31+G(d,p) (6D, 7F)
 There are   225 symmetry adapted cartesian basis functions of A   symmetry.
 There are   225 symmetry adapted basis functions of A   symmetry.
   225 basis functions,   369 primitive gaussians,   225 cartesian basis functions
    39 alpha electrons       39 beta electrons
       nuclear repulsion energy       555.6191784984 Hartrees.
 NAtoms=   17 NActive=   17 NUniq=   17 SFac= 1.00D+00 NAtFMM=   60 NAOKFM=F Big=F
 Integral buffers will be    131072 words long.
 Raffenetti 2 integral format.
 Two-electron integral symmetry is turned on.
 ------------------------------------------------------------------------------
 Polarizable Continuum Model (PCM)
 =================================
 Model                : PCM.
 Atomic radii         : SMD-Coulomb.
 Polarization charges : Total charges.
 Charge compensation  : None.
 Solution method      : On-the-fly selection.
 Cavity type          : VdW (van der Waals Surface) (Alpha=1.000).
 Cavity algorithm     : GePol (No added spheres)
                        Default sphere list used, NSphG=   17.
                        Lebedev-Laikov grids with approx.  5.0 points / Ang**2.
                        Smoothing algorithm: York/Karplus (Gamma=1.0000).
                        Polarization charges: spherical gaussians, with
                                              point-specific exponents (IZeta= 3).
                        Self-potential: point-specific (ISelfS= 7).
                        Self-field    : sphere-specific E.n sum rule (ISelfD= 2).
 1st derivatives      : Analytical E(r).r(x)/FMM algorithm (CHGder, D1EAlg=3).
                        Cavity 1st derivative terms included.
 Solvent              : Water, Eps=  78.355300 Eps(inf)=   1.777849
 ------------------------------------------------------------------------------
 Spheres list:
 ISph  on   Nord     Re0    Alpha      Xe            Ye            Ze
    1   N      1    1.8900  1.000     -0.958408      0.173257     -0.039726
    2   N      2    1.8900  1.000      0.194624      0.647183     -0.510028
    3   C      3    1.8500  1.000      0.031388      1.957264     -0.492081
    4   C      4    1.8500  1.000     -1.261796      2.238062      0.004428
    5   N      5    1.8900  1.000     -1.865451      1.096668      0.278916
    6   H      6    1.2000  1.000      0.808276      2.629300     -0.826379
    7   H      7    1.2000  1.000     -1.750526      3.187389      0.162863
    8   H      8    1.2000  1.000      2.542030      1.463654      0.727180
    9   C      9    1.8500  1.000     -1.230800     -1.228538      0.091911
   10   O     10    1.5200  1.000     -2.347838     -1.585010      0.404660
   11   O     11    1.5200  1.000     -0.237618     -2.018458     -0.154546
   12   O     12    1.5200  1.000      2.137554     -1.502453     -0.420925
   13   H     13    1.2000  1.000      0.765721     -1.657431     -0.271236
   14   H     14    1.2000  1.000      2.614412     -2.226200      0.010452
   15   O     15    1.5200  1.000      3.171678      0.729823      0.708074
   16   H     16    1.2000  1.000      2.478559     -0.662722     -0.023895
   17   H     17    1.2000  1.000      3.923221      1.054308      0.193225
 ------------------------------------------------------------------------------
 ------------------------------------------------------------------------------
 Atomic radii for non-electrostatic terms: SMD-CDS.
 ------------------------------------------------------------------------------
 Nuclear repulsion after PCM non-electrostatic terms =      555.6279892600 Hartrees.
 One-electron integrals computed using PRISM.
 NBasis=   225 RedAO= T EigKep=  2.21D-05  NBF=   225
 NBsUse=   225 1.00D-06 EigRej= -1.00D+00 NBFU=   225
 ExpMin= 4.38D-02 ExpMax= 5.48D+03 ExpMxC= 8.25D+02 IAcc=3 IRadAn=         5 AccDes= 0.00D+00
 Harris functional with IExCor= 1009 and IRadAn=       5 diagonalized for initial guess.
 HarFok:  IExCor= 1009 AccDes= 0.00D+00 IRadAn=         5 IDoV= 1 UseB2=F ITyADJ=14
 ICtDFT=  3500011 ScaDFX=  1.000000  1.000000  1.000000  1.000000
 FoFCou: FMM=F IPFlag=           0 FMFlag=      100000 FMFlg1=           0
         NFxFlg=           0 DoJE=T BraDBF=F KetDBF=T FulRan=T
         wScrn=  0.000000 ICntrl=       500 IOpCl=  0 I1Cent=   200000004 NGrid=           0
         NMat0=    1 NMatS0=      1 NMatT0=    0 NMatD0=    1 NMtDS0=    0 NMtDT0=    0
 Petite list used in FoFCou.
 Requested convergence on RMS density matrix=1.00D-08 within 128 cycles.
 Requested convergence on MAX density matrix=1.00D-06.
 Requested convergence on             energy=1.00D-06.
 No special actions if energy rises.
 Inv3:  Mode=1 IEnd=     5573307.
 Iteration    1 A*A^-1 deviation from unit magnitude is 3.00D-15 for    372.
 Iteration    1 A*A^-1 deviation from orthogonality  is 2.04D-15 for    947    724.
 Iteration    1 A^-1*A deviation from unit magnitude is 3.11D-15 for   1017.
 Iteration    1 A^-1*A deviation from orthogonality  is 1.86D-15 for   1064    987.
 Error on total polarization charges =  0.04667
 SCF Done:  E(RM062X) =  -583.509110397     A.U. after   14 cycles
            NFock= 14  Conv=0.53D-08     -V/T= 2.0084
 SMD-CDS (non-electrostatic) energy       (kcal/mol) =       5.53
 (included in total energy above)

 **********************************************************************

            Population analysis using the SCF density.

 **********************************************************************

 Orbital symmetries:
       Occupied  (A) (A) (A) (A) (A) (A) (A) (A) (A) (A) (A) (A)
                 (A) (A) (A) (A) (A) (A) (A) (A) (A) (A) (A) (A)
                 (A) (A) (A) (A) (A) (A) (A) (A) (A) (A) (A) (A)
                 (A) (A) (A)
       Virtual   (A) (A) (A) (A) (A) (A) (A) (A) (A) (A) (A) (A)
                 (A) (A) (A) (A) (A) (A) (A) (A) (A) (A) (A) (A)
                 (A) (A) (A) (A) (A) (A) (A) (A) (A) (A) (A) (A)
                 (A) (A) (A) (A) (A) (A) (A) (A) (A) (A) (A) (A)
                 (A) (A) (A) (A) (A) (A) (A) (A) (A) (A) (A) (A)
                 (A) (A) (A) (A) (A) (A) (A) (A) (A) (A) (A) (A)
                 (A) (A) (A) (A) (A) (A) (A) (A) (A) (A) (A) (A)
                 (A) (A) (A) (A) (A) (A) (A) (A) (A) (A) (A) (A)
                 (A) (A) (A) (A) (A) (A) (A) (A) (A) (A) (A) (A)
                 (A) (A) (A) (A) (A) (A) (A) (A) (A) (A) (A) (A)
                 (A) (A) (A) (A) (A) (A) (A) (A) (A) (A) (A) (A)
                 (A) (A) (A) (A) (A) (A) (A) (A) (A) (A) (A) (A)
                 (A) (A) (A) (A) (A) (A) (A) (A) (A) (A) (A) (A)
                 (A) (A) (A) (A) (A) (A) (A) (A) (A) (A) (A) (A)
                 (A) (A) (A) (A) (A) (A) (A) (A) (A) (A) (A) (A)
                 (A) (A) (A) (A) (A) (A)
 The electronic state is 1-A.
 Alpha  occ. eigenvalues --  -19.68353 -19.66615 -19.66288 -19.65454 -14.89733
 Alpha  occ. eigenvalues --  -14.82641 -14.82484 -10.74296 -10.59663 -10.59539
 Alpha  occ. eigenvalues --   -1.27463  -1.22473  -1.16593  -1.14966  -1.13820
 Alpha  occ. eigenvalues --   -1.02253  -0.96129  -0.77211  -0.73425  -0.71066
 Alpha  occ. eigenvalues --   -0.65571  -0.62556  -0.61466  -0.60293  -0.57328
 Alpha  occ. eigenvalues --   -0.55450  -0.53469  -0.52717  -0.51853  -0.48693
 Alpha  occ. eigenvalues --   -0.45909  -0.42441  -0.41961  -0.41564  -0.40307
 Alpha  occ. eigenvalues --   -0.39645  -0.38502  -0.37473  -0.34690
 Alpha virt. eigenvalues --   -0.02004   0.01692   0.03542   0.03945   0.04531
 Alpha virt. eigenvalues --    0.06184   0.06285   0.06440   0.08209   0.08360
 Alpha virt. eigenvalues --    0.09471   0.10438   0.10755   0.10995   0.12477
 Alpha virt. eigenvalues --    0.14965   0.15430   0.17203   0.18266   0.18920
 Alpha virt. eigenvalues --    0.19489   0.20120   0.21169   0.21588   0.22128
 Alpha virt. eigenvalues --    0.23024   0.23374   0.23971   0.24516   0.25058
 Alpha virt. eigenvalues --    0.25422   0.26528   0.27091   0.27713   0.27905
 Alpha virt. eigenvalues --    0.29118   0.29514   0.30665   0.30951   0.31322
 Alpha virt. eigenvalues --    0.32351   0.32538   0.33309   0.34152   0.35575
 Alpha virt. eigenvalues --    0.36469   0.37629   0.38926   0.39977   0.40871
 Alpha virt. eigenvalues --    0.41731   0.43286   0.44185   0.45811   0.49117
 Alpha virt. eigenvalues --    0.51341   0.55062   0.64437   0.72519   0.73269
 Alpha virt. eigenvalues --    0.77125   0.79742   0.81116   0.86559   0.88491
 Alpha virt. eigenvalues --    0.89580   0.92886   0.94401   0.96509   0.97848
 Alpha virt. eigenvalues --    0.98767   1.00878   1.01485   1.04450   1.06126
 Alpha virt. eigenvalues --    1.06994   1.09906   1.11674   1.13044   1.15883
 Alpha virt. eigenvalues --    1.16601   1.18097   1.19497   1.19713   1.22595
 Alpha virt. eigenvalues --    1.23162   1.24745   1.25182   1.26911   1.27535
 Alpha virt. eigenvalues --    1.30465   1.31175   1.34004   1.34385   1.35827
 Alpha virt. eigenvalues --    1.35995   1.37828   1.38433   1.41352   1.42936
 Alpha virt. eigenvalues --    1.43713   1.46268   1.46809   1.50028   1.51282
 Alpha virt. eigenvalues --    1.54065   1.55947   1.57367   1.58709   1.60407
 Alpha virt. eigenvalues --    1.61768   1.64716   1.66948   1.68456   1.73975
 Alpha virt. eigenvalues --    1.78665   1.80781   1.82920   1.86244   1.88130
 Alpha virt. eigenvalues --    1.89443   1.94492   1.94947   2.00228   2.01955
 Alpha virt. eigenvalues --    2.03322   2.05138   2.08771   2.14681   2.19527
 Alpha virt. eigenvalues --    2.25015   2.25830   2.27403   2.28385   2.30119
 Alpha virt. eigenvalues --    2.31472   2.32007   2.35031   2.40317   2.42530
 Alpha virt. eigenvalues --    2.46744   2.47722   2.52731   2.53569   2.54556
 Alpha virt. eigenvalues --    2.57026   2.58512   2.62891   2.63927   2.67094
 Alpha virt. eigenvalues --    2.68951   2.70327   2.70906   2.74637   2.75708
 Alpha virt. eigenvalues --    2.78648   2.80483   2.80907   2.82207   2.89511
 Alpha virt. eigenvalues --    2.94851   3.00659   3.05601   3.06717   3.08668
 Alpha virt. eigenvalues --    3.14424   3.16635   3.24833   3.31663   3.33595
 Alpha virt. eigenvalues --    3.40520   3.49135   3.60236   3.64508   3.73316
 Alpha virt. eigenvalues --    3.80256   4.03831   4.18991   4.24102   4.27544
 Alpha virt. eigenvalues --    4.38410   4.41718   4.51011   4.55663   4.66909
 Alpha virt. eigenvalues --    4.86851
          Condensed to atoms (all electrons):
               1          2          3          4          5          6
     1  N    7.602550  -0.209331  -0.048195  -0.055724  -0.167068   0.010272
     2  N   -0.209331   7.596319   0.281691   0.045831  -0.347281  -0.052897
     3  C   -0.048195   0.281691   5.491212   0.076821  -0.051854   0.398316
     4  C   -0.055724   0.045831   0.076821   5.422438   0.305008  -0.020003
     5  N   -0.167068  -0.347281  -0.051854   0.305008   7.552681  -0.004156
     6  H    0.010272  -0.052897   0.398316  -0.020003  -0.004156   0.430424
     7  H    0.006714   0.000374  -0.019020   0.392950  -0.050144   0.000418
     8  H   -0.003025   0.002071   0.006279  -0.000327   0.000023   0.000114
     9  C    0.066320   0.014120   0.001430  -0.011509  -0.030111   0.000516
    10  O   -0.056300   0.020698  -0.004788   0.000398  -0.053021   0.000014
    11  O   -0.060872  -0.081019   0.014465  -0.014213   0.029660   0.000055
    12  O   -0.008035   0.002318  -0.010881   0.005911   0.003761  -0.000151
    13  H    0.000585   0.011134   0.004614  -0.002391   0.000006  -0.000003
    14  H   -0.000076   0.001644   0.000095  -0.000033  -0.000125  -0.000001
    15  O   -0.015842   0.017332  -0.003179  -0.004462   0.001081  -0.000284
    16  H   -0.000464   0.000374  -0.000545   0.000187   0.000779  -0.000010
    17  H    0.000968  -0.002715   0.000587   0.000304   0.000002  -0.000003
               7          8          9         10         11         12
     1  N    0.006714  -0.003025   0.066320  -0.056300  -0.060872  -0.008035
     2  N    0.000374   0.002071   0.014120   0.020698  -0.081019   0.002318
     3  C   -0.019020   0.006279   0.001430  -0.004788   0.014465  -0.010881
     4  C    0.392950  -0.000327  -0.011509   0.000398  -0.014213   0.005911
     5  N   -0.050144   0.000023  -0.030111  -0.053021   0.029660   0.003761
     6  H    0.000418   0.000114   0.000516   0.000014   0.000055  -0.000151
     7  H    0.431220   0.000000   0.000410  -0.000106   0.000018   0.000000
     8  H    0.000000   0.290596  -0.000265  -0.000000   0.000047   0.001682
     9  C    0.000410  -0.000265   4.392693   0.459323   0.283160  -0.001366
    10  O   -0.000106  -0.000000   0.459323   8.263978  -0.072969  -0.001974
    11  O    0.000018   0.000047   0.283160  -0.072969   8.391994  -0.055902
    12  O    0.000000   0.001682  -0.001366  -0.001974  -0.055902   8.413460
    13  H   -0.000000  -0.000038  -0.005836   0.004047   0.166898   0.046830
    14  H   -0.000000   0.000017  -0.000115   0.000056   0.002631   0.275682
    15  O    0.000003   0.281515   0.002419  -0.000074  -0.000839  -0.047900
    16  H   -0.000000  -0.001809  -0.000870  -0.000008   0.000071   0.256600
    17  H   -0.000000  -0.017004  -0.000109   0.000001  -0.000026   0.001955
              13         14         15         16         17
     1  N    0.000585  -0.000076  -0.015842  -0.000464   0.000968
     2  N    0.011134   0.001644   0.017332   0.000374  -0.002715
     3  C    0.004614   0.000095  -0.003179  -0.000545   0.000587
     4  C   -0.002391  -0.000033  -0.004462   0.000187   0.000304
     5  N    0.000006  -0.000125   0.001081   0.000779   0.000002
     6  H   -0.000003  -0.000001  -0.000284  -0.000010  -0.000003
     7  H   -0.000000  -0.000000   0.000003  -0.000000  -0.000000
     8  H   -0.000038   0.000017   0.281515  -0.001809  -0.017004
     9  C   -0.005836  -0.000115   0.002419  -0.000870  -0.000109
    10  O    0.004047   0.000056  -0.000074  -0.000008   0.000001
    11  O    0.166898   0.002631  -0.000839   0.000071  -0.000026
    12  O    0.046830   0.275682  -0.047900   0.256600   0.001955
    13  H    0.214967  -0.004391   0.000558  -0.002796  -0.000002
    14  H   -0.004391   0.273628   0.002422  -0.013902  -0.000026
    15  O    0.000558   0.002422   8.312105   0.023200   0.286708
    16  H   -0.002796  -0.013902   0.023200   0.235515  -0.002857
    17  H   -0.000002  -0.000026   0.286708  -0.002857   0.281720
 Mulliken charges:
               1
     1  N   -0.062476
     2  N   -0.300666
     3  C   -0.137049
     4  C   -0.141187
     5  N   -0.189239
     6  H    0.237380
     7  H    0.237163
     8  H    0.440123
     9  C    0.829790
    10  O   -0.559274
    11  O   -0.603159
    12  O   -0.881989
    13  H    0.565818
    14  H    0.462493
    15  O   -0.854762
    16  H    0.506535
    17  H    0.450497
 Sum of Mulliken charges =  -0.00000
 Mulliken charges with hydrogens summed into heavy atoms:
               1
     1  N   -0.062476
     2  N   -0.300666
     3  C    0.100332
     4  C    0.095976
     5  N   -0.189239
     9  C    0.829790
    10  O   -0.559274
    11  O   -0.037341
    12  O    0.087039
    15  O    0.035859
 Electronic spatial extent (au):  <R**2>=           1694.4185
 Charge=             -0.0000 electrons
 Dipole moment (field-independent basis, Debye):
    X=             10.1489    Y=              7.4387    Z=             -0.6368  Tot=             12.5992
 Quadrupole moment (field-independent basis, Debye-Ang):
   XX=            -56.6685   YY=            -47.5126   ZZ=            -62.8374
   XY=             -6.4745   XZ=              2.7184   YZ=             -2.0780
 Traceless Quadrupole moment (field-independent basis, Debye-Ang):
   XX=             -0.9957   YY=              8.1603   ZZ=             -7.1645
   XY=             -6.4745   XZ=              2.7184   YZ=             -2.0780
 Octapole moment (field-independent basis, Debye-Ang**2):
  XXX=            135.8262  YYY=             41.9655  ZZZ=              0.9652  XYY=             44.6690
  XXY=             25.3465  XXZ=            -16.1536  XZZ=             -0.5275  YZZ=             -2.8044
  YYZ=              0.5143  XYZ=            -10.4733
 Hexadecapole moment (field-independent basis, Debye-Ang**3):
 XXXX=           -951.3289 YYYY=           -735.8102 ZZZZ=           -118.5980 XXXY=             -0.6528
 XXXZ=             -8.6388 YYYX=            -81.7283 YYYZ=             -3.6606 ZZZX=             -0.1043
 ZZZY=              0.1021 XXYY=           -251.3113 XXZZ=           -240.5050 YYZZ=           -164.7093
 XXYZ=             -8.0086 YYXZ=             12.2357 ZZXY=              6.3708
 N-N= 5.556279892600D+02 E-N=-2.478212076525D+03  KE= 5.786602534378D+02
 D1PCM: PCM CHGder 1st derivatives, ID1Alg=3 FixD1E=F DoIter=F DoCFld=F I1PDM=0.
 Calling FoFJK, ICntrl=      2127 FMM=F ISym2X=0 I1Cent= 0 IOpClX= 0 NMat=1 NMatS=1 NMatT=0.
 ***** Axes restored to original set *****
 -------------------------------------------------------------------
 Center     Atomic                   Forces (Hartrees/Bohr)
 Number     Number              X              Y              Z
 -------------------------------------------------------------------
      1        7          -0.000012965   -0.000005216    0.000001716
      2        7           0.000011740   -0.000000780    0.000007839
      3        6           0.000001159    0.000003794    0.000007821
      4        6          -0.000001515   -0.000003578    0.000020698
      5        7          -0.000000017    0.000003391    0.000008774
      6        1          -0.000003256    0.000005565    0.000016403
      7        1           0.000005551    0.000002275    0.000024659
      8        1          -0.000009180    0.000013055    0.000004626
      9        6          -0.000016820    0.000018808   -0.000013599
     10        8           0.000010558   -0.000000244   -0.000003222
     11        8           0.000016337    0.000004420   -0.000024366
     12        8           0.000005013   -0.000015906   -0.000020095
     13        1          -0.000012371    0.000001358   -0.000004408
     14        1           0.000000193    0.000005494   -0.000022006
     15        8           0.000004948   -0.000028507    0.000012374
     16        1          -0.000007085   -0.000003029   -0.000008772
     17        1           0.000007710   -0.000000899   -0.000008442
 -------------------------------------------------------------------
 Cartesian Forces:  Max     0.000028507 RMS     0.000011453

 GradGradGradGradGradGradGradGradGradGradGradGradGradGradGradGradGradGrad
 Berny optimization.
 FormGI is forming the generalized inverse of G from B-inverse, IUseBI=4.
 Internal  Forces:  Max     0.000022619 RMS     0.000005798
 Search for a local minimum.
 Step number   1 out of a maximum of   76
 All quantities printed in internal units (Hartrees-Bohrs-Radians)
 Mixed Optimization -- En-DIIS/RFO-DIIS
 Second derivative matrix not updated -- first step.
 ITU=  0
     Eigenvalues ---    0.00230   0.00230   0.00230   0.00230   0.00230
     Eigenvalues ---    0.00230   0.01241   0.01744   0.01922   0.02082
     Eigenvalues ---    0.02167   0.02296   0.02399   0.03102   0.04019
     Eigenvalues ---    0.05114   0.07134   0.13682   0.14782   0.16000
     Eigenvalues ---    0.16000   0.16000   0.16000   0.16000   0.16000
     Eigenvalues ---    0.22616   0.24747   0.24995   0.24999   0.24999
     Eigenvalues ---    0.35964   0.36063   0.36893   0.40410   0.40541
     Eigenvalues ---    0.49587   0.53759   0.53969   0.53985   0.54204
     Eigenvalues ---    0.54572   0.59872   0.61622   0.69256   0.98308
 RFO step:  Lambda=-1.68408660D-08 EMin= 2.30000000D-03
 Linear search not attempted -- first point.
 Iteration  1 RMS(Cart)=  0.00099841 RMS(Int)=  0.00000022
 Iteration  2 RMS(Cart)=  0.00000036 RMS(Int)=  0.00000001
 Variable       Old X    -DE/DX   Delta X   Delta X   Delta X     New X
                                 (Linear)    (Quad)   (Total)
    R1        2.51786   0.00000   0.00000   0.00001   0.00001   2.51787
    R2        2.51905   0.00000   0.00000   0.00000   0.00000   2.51905
    R3        2.71000  -0.00001   0.00000  -0.00003  -0.00003   2.70997
    R4        2.49507   0.00000   0.00000   0.00000   0.00000   2.49507
    R5        2.67093   0.00000   0.00000   0.00000   0.00000   2.67094
    R6        2.04138  -0.00000   0.00000  -0.00001  -0.00001   2.04137
    R7        2.49453  -0.00000   0.00000  -0.00001  -0.00001   2.49452
    R8        2.03984   0.00000   0.00000   0.00000   0.00000   2.03984
    R9        1.82760   0.00002   0.00000   0.00004   0.00004   1.82764
   R10        2.29324  -0.00001   0.00000  -0.00001  -0.00001   2.29323
   R11        2.44289   0.00001   0.00000   0.00002   0.00002   2.44290
   R12        2.02707  -0.00001   0.00000  -0.00003  -0.00003   2.02704
   R13        2.62417   0.00000   0.00000   0.00001   0.00001   2.62418
   R14        1.82951  -0.00000   0.00000  -0.00001  -0.00001   1.82950
   R15        1.86984   0.00000   0.00000  -0.00000  -0.00000   1.86984
   R16        3.24867   0.00000   0.00000   0.00004   0.00004   3.24871
   R17        1.82745   0.00001   0.00000   0.00002   0.00002   1.82747
    A1        2.01177   0.00000   0.00000   0.00002   0.00002   2.01179
    A2        2.14655  -0.00001   0.00000  -0.00003  -0.00003   2.14652
    A3        2.12462   0.00000   0.00000   0.00001   0.00001   2.12463
    A4        1.81434  -0.00001   0.00000  -0.00002  -0.00002   1.81432
    A5        1.89127   0.00000   0.00000   0.00001   0.00001   1.89128
    A6        2.12253   0.00000   0.00000   0.00001   0.00001   2.12254
    A7        2.26936  -0.00000   0.00000  -0.00002  -0.00002   2.26935
    A8        1.89618   0.00000   0.00000   0.00001   0.00001   1.89618
    A9        2.26600  -0.00000   0.00000  -0.00002  -0.00002   2.26598
   A10        2.12101   0.00000   0.00000   0.00001   0.00001   2.12103
   A11        1.81120  -0.00000   0.00000  -0.00001  -0.00001   1.81119
   A12        2.07788   0.00000   0.00000   0.00001   0.00001   2.07789
   A13        2.01958   0.00000   0.00000   0.00001   0.00001   2.01959
   A14        2.18565  -0.00001   0.00000  -0.00002  -0.00002   2.18563
   A15        2.13377   0.00001   0.00000   0.00007   0.00007   2.13384
   A16        1.93384   0.00001   0.00000   0.00004   0.00004   1.93389
   A17        1.97351  -0.00002   0.00000  -0.00012  -0.00012   1.97339
   A18        1.86074  -0.00000   0.00000  -0.00004  -0.00004   1.86070
   A19        1.93966   0.00000   0.00000   0.00002   0.00002   1.93968
   A20        1.83577  -0.00000   0.00000  -0.00004  -0.00004   1.83573
   A21        1.93741  -0.00001   0.00000  -0.00005  -0.00005   1.93736
   A22        3.37204   0.00000   0.00000   0.00056   0.00056   3.37260
   A23        3.20870  -0.00000   0.00000  -0.00009  -0.00009   3.20861
   A24        3.16408  -0.00000   0.00000  -0.00042  -0.00042   3.16366
   A25        3.10917  -0.00000   0.00000  -0.00071  -0.00071   3.10846
    D1        0.00428  -0.00000   0.00000  -0.00012  -0.00012   0.00416
    D2        3.12225  -0.00000   0.00000  -0.00005  -0.00005   3.12220
    D3       -0.00515   0.00000   0.00000   0.00004   0.00004  -0.00511
    D4       -3.12345  -0.00000   0.00000  -0.00002  -0.00002  -3.12347
    D5       -3.01773  -0.00000   0.00000  -0.00024  -0.00024  -3.01797
    D6        0.11143   0.00000   0.00000   0.00001   0.00001   0.11144
    D7        0.09874  -0.00000   0.00000  -0.00017  -0.00017   0.09857
    D8       -3.05528   0.00000   0.00000   0.00008   0.00008  -3.05521
    D9       -0.00158   0.00000   0.00000   0.00014   0.00014  -0.00144
   D10       -3.13658   0.00000   0.00000   0.00006   0.00006  -3.13651
   D11       -0.00144  -0.00000   0.00000  -0.00012  -0.00012  -0.00156
   D12        3.14117  -0.00000   0.00000  -0.00009  -0.00009   3.14108
   D13        3.13282  -0.00000   0.00000  -0.00004  -0.00004   3.13278
   D14       -0.00776   0.00000   0.00000  -0.00000  -0.00000  -0.00776
   D15        0.00375   0.00000   0.00000   0.00005   0.00005   0.00380
   D16       -3.13875   0.00000   0.00000   0.00002   0.00002  -3.13873
   D17        0.19014   0.00000   0.00000   0.00007   0.00007   0.19021
   D18       -2.96476   0.00001   0.00000   0.00034   0.00034  -2.96442
   D19        2.46272  -0.00000   0.00000  -0.00021  -0.00021   2.46251
   D20        0.38293   0.00000   0.00000   0.00007   0.00007   0.38300
   D21       -0.52228  -0.00000   0.00000  -0.00020  -0.00020  -0.52249
   D22       -2.57098   0.00000   0.00000  -0.00029  -0.00029  -2.57127
   D23       -2.64164  -0.00000   0.00000   0.00011   0.00011  -2.64152
   D24        1.59285   0.00000   0.00000   0.00003   0.00003   1.59288
         Item               Value     Threshold  Converged?
 Maximum Force            0.000023     0.000450     YES
 RMS     Force            0.000006     0.000300     YES
 Maximum Displacement     0.002846     0.001800     NO 
 RMS     Displacement     0.000998     0.001200     YES
 Predicted change in Energy=-8.420253D-09
 GradGradGradGradGradGradGradGradGradGradGradGradGradGradGradGradGradGrad

                          Input orientation:                          
 ---------------------------------------------------------------------
 Center     Atomic      Atomic             Coordinates (Angstroms)
 Number     Number       Type             X           Y           Z
 ---------------------------------------------------------------------
      1          7           0       -0.958574    0.173476   -0.039766
      2          7           0        0.194126    0.647553   -0.510741
      3          6           0        0.030580    1.957599   -0.493007
      4          6           0       -1.262360    2.238213    0.004243
      5          7           0       -1.865633    1.096745    0.279245
      6          1           0        0.807110    2.629754   -0.827885
      7          1           0       -1.751171    3.187476    0.162813
      8          1           0        2.542787    1.462987    0.728288
      9          6           0       -1.230571   -1.228342    0.092256
     10          8           0       -2.347295   -1.585015    0.405878
     11          8           0       -0.237333   -2.018096   -0.154556
     12          8           0        2.137786   -1.502497   -0.421414
     13          1           0        0.765886   -1.656951   -0.271756
     14          1           0        2.614393   -2.226402    0.009965
     15          8           0        3.172220    0.728947    0.708973
     16          1           0        2.479004   -0.662906   -0.024271
     17          1           0        3.924069    1.053553    0.194628
 ---------------------------------------------------------------------
                    Distance matrix (angstroms):
                    1          2          3          4          5
     1  N    0.000000
     2  N    1.332398   0.000000
     3  C    2.089725   1.320334   0.000000
     4  C    2.087429   2.217376   1.413399   0.000000
     5  N    1.333023   2.251324   2.221052   1.320043   0.000000
     6  H    3.126032   2.098916   1.080247   2.264607   3.274051
     7  H    3.123050   3.269413   2.262152   1.079435   2.097096
     8  H    3.809498   2.777829   2.836792   3.950235   4.446341
     9  C    1.434052   2.431533   3.476098   3.467818   2.417499
    10  O    2.284608   3.504764   4.360321   3.994429   2.727613
    11  O    2.310055   2.723731   3.999060   4.380875   3.541438
    12  O    3.541467   2.899743   4.051877   5.072976   4.824350
    13  H    2.525479   2.386370   3.695213   4.400257   3.848550
    14  H    4.304414   3.793210   4.943171   5.912870   5.584483
    15  O    4.234692   3.219218   3.581095   4.737090   5.069507
    16  H    3.537898   2.678549   3.616842   4.734460   4.697273
    17  H    4.966858   3.817703   4.055786   5.323412   5.790482
                    6          7          8          9         10
     6  H    0.000000
     7  H    2.799524   0.000000
     8  H    2.606837   4.661727   0.000000
     9  C    4.459116   4.446960   4.678250   0.000000
    10  O    5.407099   4.815715   5.771236   1.213526   0.000000
    11  O    4.811106   5.430507   4.541632   1.292729   2.225665
    12  O    4.360209   6.120552   3.206234   3.418311   4.561488
    13  H    4.322825   5.476577   3.727127   2.074139   3.186889
    14  H    5.248859   6.956406   3.759349   3.973241   5.018612
    15  O    3.401286   5.530138   0.967147   4.857560   5.992606
    16  H    3.779238   5.723183   2.256066   3.754231   4.932391
    17  H    3.639420   6.063249   1.536349   5.638071   6.807105
                   11         12         13         14         15
    11  O    0.000000
    12  O    2.445045   0.000000
    13  H    1.072665   1.388655   0.000000
    14  H    2.864053   0.968132   1.954640   0.000000
    15  O    4.462844   2.706875   3.527716   3.087697   0.000000
    16  H    3.038421   0.989477   1.996033   1.569720   1.719142
    17  H    5.184035   3.178633   4.187895   3.536588   0.967056
                   16         17
    16  H    0.000000
    17  H    2.254409   0.000000
 Stoichiometry    C3H7N3O4
 Framework group  C1[X(C3H7N3O4)]
 Deg. of freedom    45
 Full point group                 C1      NOp   1
 Largest Abelian subgroup         C1      NOp   1
 Largest concise Abelian subgroup C1      NOp   1
                         Standard orientation:                         
 ---------------------------------------------------------------------
 Center     Atomic      Atomic             Coordinates (Angstroms)
 Number     Number       Type             X           Y           Z
 ---------------------------------------------------------------------
      1          7           0       -0.958746    0.172510   -0.039829
      2          7           0        0.193498    0.647695   -0.510804
      3          6           0        0.028692    1.957583   -0.493071
      4          6           0       -1.264517    2.236954    0.004180
      5          7           0       -1.866693    1.094906    0.279181
      6          1           0        0.804575    2.630485   -0.827948
      7          1           0       -1.754241    3.185746    0.162749
      8          1           0        2.541374    1.465387    0.728225
      9          6           0       -1.229395   -1.229569    0.092192
     10          8           0       -2.345775   -1.587316    0.405814
     11          8           0       -0.235398   -2.018368   -0.154619
     12          8           0        2.139225   -1.500485   -0.421478
     13          1           0        0.767474   -1.656258   -0.271819
     14          1           0        2.616527   -2.223931    0.009902
     15          8           0        3.171512    0.731953    0.708910
     16          1           0        2.479635   -0.660566   -0.024334
     17          1           0        3.923049    1.057281    0.194564
 ---------------------------------------------------------------------
 Rotational constants (GHZ):           1.4488678           1.0435698           0.6421581
 Standard basis: 6-31+G(d,p) (6D, 7F)
 There are   225 symmetry adapted cartesian basis functions of A   symmetry.
 There are   225 symmetry adapted basis functions of A   symmetry.
   225 basis functions,   369 primitive gaussians,   225 cartesian basis functions
    39 alpha electrons       39 beta electrons
       nuclear repulsion energy       555.5940501445 Hartrees.
 NAtoms=   17 NActive=   17 NUniq=   17 SFac= 1.00D+00 NAtFMM=   60 NAOKFM=F Big=F
 Integral buffers will be    131072 words long.
 Raffenetti 2 integral format.
 Two-electron integral symmetry is turned on.
 ------------------------------------------------------------------------------
 Polarizable Continuum Model (PCM)
 =================================
 Model                : PCM.
 Atomic radii         : SMD-Coulomb.
 Polarization charges : Total charges.
 Charge compensation  : None.
 Solution method      : On-the-fly selection.
 Cavity type          : VdW (van der Waals Surface) (Alpha=1.000).
 Cavity algorithm     : GePol (No added spheres)
                        Default sphere list used, NSphG=   17.
                        Lebedev-Laikov grids with approx.  5.0 points / Ang**2.
                        Smoothing algorithm: York/Karplus (Gamma=1.0000).
                        Polarization charges: spherical gaussians, with
                                              point-specific exponents (IZeta= 3).
                        Self-potential: point-specific (ISelfS= 7).
                        Self-field    : sphere-specific E.n sum rule (ISelfD= 2).
 1st derivatives      : Analytical E(r).r(x)/FMM algorithm (CHGder, D1EAlg=3).
                        Cavity 1st derivative terms included.
 Solvent              : Water, Eps=  78.355300 Eps(inf)=   1.777849
 ------------------------------------------------------------------------------
 Spheres list:
 ISph  on   Nord     Re0    Alpha      Xe            Ye            Ze
    1   N      1    1.8900  1.000     -0.958746      0.172510     -0.039829
    2   N      2    1.8900  1.000      0.193498      0.647695     -0.510804
    3   C      3    1.8500  1.000      0.028692      1.957583     -0.493071
    4   C      4    1.8500  1.000     -1.264517      2.236954      0.004180
    5   N      5    1.8900  1.000     -1.866693      1.094906      0.279181
    6   H      6    1.2000  1.000      0.804575      2.630485     -0.827948
    7   H      7    1.2000  1.000     -1.754241      3.185746      0.162749
    8   H      8    1.2000  1.000      2.541374      1.465387      0.728225
    9   C      9    1.8500  1.000     -1.229395     -1.229569      0.092192
   10   O     10    1.5200  1.000     -2.345775     -1.587316      0.405814
   11   O     11    1.5200  1.000     -0.235398     -2.018368     -0.154619
   12   O     12    1.5200  1.000      2.139225     -1.500485     -0.421478
   13   H     13    1.2000  1.000      0.767474     -1.656258     -0.271819
   14   H     14    1.2000  1.000      2.616527     -2.223931      0.009902
   15   O     15    1.5200  1.000      3.171512      0.731953      0.708910
   16   H     16    1.2000  1.000      2.479635     -0.660566     -0.024334
   17   H     17    1.2000  1.000      3.923049      1.057281      0.194564
 ------------------------------------------------------------------------------
 ------------------------------------------------------------------------------
 Atomic radii for non-electrostatic terms: SMD-CDS.
 ------------------------------------------------------------------------------
 Nuclear repulsion after PCM non-electrostatic terms =      555.6028619489 Hartrees.
 One-electron integrals computed using PRISM.
 NBasis=   225 RedAO= T EigKep=  2.21D-05  NBF=   225
 NBsUse=   225 1.00D-06 EigRej= -1.00D+00 NBFU=   225
 Initial guess from the checkpoint file:  "/scratch/gongke2021/PC-2-N/Gau-16033.chk"
 B after Tr=    -0.000000    0.000000    0.000000
         Rot=    1.000000    0.000029   -0.000037   -0.000486 Ang=   0.06 deg.
 Requested convergence on RMS density matrix=1.00D-08 within 128 cycles.
 Requested convergence on MAX density matrix=1.00D-06.
 Requested convergence on             energy=1.00D-06.
 No special actions if energy rises.
 Inv3:  Mode=1 IEnd=     5573307.
 Iteration    1 A*A^-1 deviation from unit magnitude is 3.22D-15 for    185.
 Iteration    1 A*A^-1 deviation from orthogonality  is 3.06D-15 for    766    173.
 Iteration    1 A^-1*A deviation from unit magnitude is 3.11D-15 for    185.
 Iteration    1 A^-1*A deviation from orthogonality  is 1.78D-15 for   1111    952.
 Error on total polarization charges =  0.04667
 SCF Done:  E(RM062X) =  -583.509110114     A.U. after    8 cycles
            NFock=  8  Conv=0.45D-08     -V/T= 2.0084
 SMD-CDS (non-electrostatic) energy       (kcal/mol) =       5.53
 (included in total energy above)
 D1PCM: PCM CHGder 1st derivatives, ID1Alg=3 FixD1E=F DoIter=F DoCFld=F I1PDM=0.
 Calling FoFJK, ICntrl=      2127 FMM=F ISym2X=0 I1Cent= 0 IOpClX= 0 NMat=1 NMatS=1 NMatT=0.
 ***** Axes restored to original set *****
 -------------------------------------------------------------------
 Center     Atomic                   Forces (Hartrees/Bohr)
 Number     Number              X              Y              Z
 -------------------------------------------------------------------
      1        7          -0.000005890   -0.000010595    0.000001220
      2        7           0.000009711    0.000003957   -0.000007128
      3        6           0.000026569    0.000006076    0.000030216
      4        6          -0.000003090   -0.000000841    0.000008998
      5        7           0.000007167   -0.000004836    0.000009620
      6        1          -0.000000268    0.000003715    0.000020547
      7        1           0.000004192    0.000001425    0.000023896
      8        1          -0.000015827   -0.000001008   -0.000006288
      9        6           0.000001240    0.000012295    0.000025923
     10        8          -0.000007197    0.000000969   -0.000016636
     11        8          -0.000003267    0.000010487   -0.000043481
     12        8           0.000004553    0.000017554   -0.000038802
     13        1          -0.000009545   -0.000018218    0.000012327
     14        1          -0.000003260   -0.000000024   -0.000019133
     15        8          -0.000003545   -0.000006038    0.000000880
     16        1          -0.000002819   -0.000008865    0.000000584
     17        1           0.000001276   -0.000006053   -0.000002744
 -------------------------------------------------------------------
 Cartesian Forces:  Max     0.000043481 RMS     0.000013774

 GradGradGradGradGradGradGradGradGradGradGradGradGradGradGradGradGradGrad
 Berny optimization.
 Using GEDIIS/GDIIS optimizer.
 FormGI is forming the generalized inverse of G from B-inverse, IUseBI=4.
 Internal  Forces:  Max     0.000181743 RMS     0.000043671
 Search for a local minimum.
 Step number   2 out of a maximum of   76
 All quantities printed in internal units (Hartrees-Bohrs-Radians)
 Mixed Optimization -- En-DIIS/RFO-DIIS
 Swapping is turned off.
 Update second derivatives using D2CorX and points    1    2
 DE=  2.84D-07 DEPred=-8.42D-09 R=-3.37D+01
 Trust test=-3.37D+01 RLast= 1.23D-03 DXMaxT set to 1.50D-01
 ITU= -1  0
     Eigenvalues ---    0.00091   0.00230   0.00230   0.00230   0.00230
     Eigenvalues ---    0.00758   0.01294   0.01716   0.01995   0.02082
     Eigenvalues ---    0.02187   0.02375   0.02541   0.03869   0.05038
     Eigenvalues ---    0.07025   0.08091   0.11420   0.14189   0.14795
     Eigenvalues ---    0.16000   0.16000   0.16000   0.16000   0.22431
     Eigenvalues ---    0.22837   0.24101   0.24885   0.24998   0.35617
     Eigenvalues ---    0.36062   0.36115   0.39607   0.40523   0.49527
     Eigenvalues ---    0.50646   0.53764   0.53949   0.54197   0.54551
     Eigenvalues ---    0.59325   0.61610   0.67078   0.83809   0.98221
 En-DIIS/RFO-DIIS/Sim-DIIS IScMMF=       -3 using points:     2    1
 RFO step:  Lambda=-3.28759448D-07.
 DidBck=F Rises=T En-DIIS coefs:    1.00000    0.00000
 Iteration  1 RMS(Cart)=  0.00717732 RMS(Int)=  0.00001632
 Iteration  2 RMS(Cart)=  0.00002440 RMS(Int)=  0.00000090
 Iteration  3 RMS(Cart)=  0.00000000 RMS(Int)=  0.00000090
 Variable       Old X    -DE/DX   Delta X   Delta X   Delta X     New X
                                 (Linear)    (Quad)   (Total)
    R1        2.51787   0.00001   0.00000   0.00010   0.00010   2.51797
    R2        2.51905  -0.00001   0.00000   0.00002   0.00002   2.51906
    R3        2.70997  -0.00001   0.00000  -0.00034  -0.00034   2.70963
    R4        2.49507  -0.00001   0.00000   0.00001   0.00001   2.49508
    R5        2.67094   0.00001   0.00000   0.00002   0.00002   2.67096
    R6        2.04137  -0.00000   0.00000  -0.00009  -0.00009   2.04128
    R7        2.49452   0.00001   0.00000  -0.00007  -0.00007   2.49445
    R8        2.03984  -0.00000   0.00000   0.00000   0.00000   2.03984
    R9        1.82764   0.00002   0.00000   0.00045   0.00045   1.82809
   R10        2.29323   0.00000   0.00000  -0.00010  -0.00010   2.29313
   R11        2.44290  -0.00002   0.00000   0.00018   0.00018   2.44309
   R12        2.02704  -0.00002   0.00000  -0.00034  -0.00034   2.02671
   R13        2.62418  -0.00001   0.00000   0.00008   0.00008   2.62426
   R14        1.82950  -0.00000   0.00000  -0.00010  -0.00010   1.82941
   R15        1.86984  -0.00001   0.00000  -0.00000  -0.00000   1.86984
   R16        3.24871  -0.00001   0.00000   0.00043   0.00043   3.24913
   R17        1.82747   0.00000   0.00000   0.00022   0.00022   1.82769
    A1        2.01179   0.00000   0.00000   0.00020   0.00020   2.01199
    A2        2.14652  -0.00003   0.00000  -0.00030  -0.00030   2.14622
    A3        2.12463   0.00003   0.00000   0.00012   0.00012   2.12475
    A4        1.81432   0.00000   0.00000  -0.00021  -0.00021   1.81411
    A5        1.89128  -0.00001   0.00000   0.00009   0.00009   1.89137
    A6        2.12254   0.00000   0.00000   0.00012   0.00012   2.12266
    A7        2.26935   0.00000   0.00000  -0.00021  -0.00021   2.26914
    A8        1.89618   0.00001   0.00000   0.00006   0.00006   1.89624
    A9        2.26598  -0.00000   0.00000  -0.00022  -0.00022   2.26576
   A10        2.12103  -0.00000   0.00000   0.00016   0.00016   2.12119
   A11        1.81119  -0.00000   0.00000  -0.00014  -0.00014   1.81105
   A12        2.07789   0.00005   0.00000   0.00010   0.00010   2.07799
   A13        2.01959  -0.00010   0.00000   0.00012   0.00012   2.01971
   A14        2.18563   0.00005   0.00000  -0.00019  -0.00019   2.18544
   A15        2.13384  -0.00018   0.00000   0.00059   0.00059   2.13443
   A16        1.93389   0.00002   0.00000   0.00046   0.00046   1.93435
   A17        1.97339  -0.00010   0.00000  -0.00135  -0.00135   1.97204
   A18        1.86070   0.00003   0.00000  -0.00037  -0.00037   1.86033
   A19        1.93968  -0.00002   0.00000   0.00018   0.00018   1.93986
   A20        1.83573   0.00001   0.00000  -0.00041  -0.00041   1.83532
   A21        1.93736   0.00000   0.00000  -0.00049  -0.00050   1.93686
   A22        3.37260  -0.00018   0.00000  -0.00117  -0.00117   3.37143
   A23        3.20861  -0.00010   0.00000  -0.00487  -0.00487   3.20374
   A24        3.16366   0.00005   0.00000  -0.00248  -0.00248   3.16118
   A25        3.10846   0.00005   0.00000  -0.00574  -0.00574   3.10272
    D1        0.00416   0.00001   0.00000  -0.00123  -0.00123   0.00293
    D2        3.12220   0.00002   0.00000  -0.00043  -0.00043   3.12177
    D3       -0.00511   0.00000   0.00000   0.00045   0.00045  -0.00466
    D4       -3.12347  -0.00002   0.00000  -0.00034  -0.00034  -3.12381
    D5       -3.01797  -0.00003   0.00000  -0.00272  -0.00272  -3.02069
    D6        0.11144  -0.00001   0.00000  -0.00004  -0.00004   0.11139
    D7        0.09857  -0.00001   0.00000  -0.00186  -0.00186   0.09671
    D8       -3.05521   0.00000   0.00000   0.00082   0.00082  -3.05439
    D9       -0.00144  -0.00001   0.00000   0.00144   0.00144   0.00001
   D10       -3.13651  -0.00000   0.00000   0.00066   0.00066  -3.13586
   D11       -0.00156   0.00001   0.00000  -0.00127  -0.00127  -0.00283
   D12        3.14108   0.00000   0.00000  -0.00091  -0.00091   3.14017
   D13        3.13278   0.00000   0.00000  -0.00040  -0.00040   3.13239
   D14       -0.00776  -0.00000   0.00000  -0.00003  -0.00003  -0.00779
   D15        0.00380  -0.00001   0.00000   0.00049   0.00049   0.00430
   D16       -3.13873  -0.00000   0.00000   0.00016   0.00016  -3.13857
   D17        0.19021  -0.00007   0.00000   0.00057   0.00057   0.19078
   D18       -2.96442  -0.00005   0.00000   0.00343   0.00343  -2.96099
   D19        2.46251  -0.00003   0.00000  -0.00329  -0.00329   2.45922
   D20        0.38300  -0.00006   0.00000  -0.00177  -0.00177   0.38122
   D21       -0.52249  -0.00001   0.00000  -0.00230  -0.00229  -0.52478
   D22       -2.57127   0.00000   0.00000  -0.00257  -0.00257  -2.57384
   D23       -2.64152  -0.00001   0.00000   0.00054   0.00054  -2.64098
   D24        1.59288   0.00001   0.00000   0.00027   0.00027   1.59314
         Item               Value     Threshold  Converged?
 Maximum Force            0.000182     0.000450     YES
 RMS     Force            0.000044     0.000300     YES
 Maximum Displacement     0.026340     0.001800     NO 
 RMS     Displacement     0.007184     0.001200     NO 
 Predicted change in Energy=-1.643603D-07
 GradGradGradGradGradGradGradGradGradGradGradGradGradGradGradGradGradGrad

                          Input orientation:                          
 ---------------------------------------------------------------------
 Center     Atomic      Atomic             Coordinates (Angstroms)
 Number     Number       Type             X           Y           Z
 ---------------------------------------------------------------------
      1          7           0       -0.955949    0.173907   -0.039454
      2          7           0        0.195687    0.646603   -0.514551
      3          6           0        0.032878    1.956761   -0.497783
      4          6           0       -1.257654    2.238805    0.004913
      5          7           0       -1.860987    1.098085    0.282687
      6          1           0        0.808389    2.628185   -0.836318
      7          1           0       -1.744721    3.188706    0.165036
      8          1           0        2.528849    1.460212    0.731238
      9          6           0       -1.228316   -1.227478    0.094432
     10          8           0       -2.343394   -1.583243    0.414669
     11          8           0       -0.236373   -2.018180   -0.155049
     12          8           0        2.138679   -1.504036   -0.425835
     13          1           0        0.766831   -1.658549   -0.275363
     14          1           0        2.615980   -2.226892    0.006417
     15          8           0        3.161608    0.728695    0.713154
     16          1           0        2.478775   -0.663841   -0.029011
     17          1           0        3.914743    1.058354    0.203710
 ---------------------------------------------------------------------
                    Distance matrix (angstroms):
                    1          2          3          4          5
     1  N    0.000000
     2  N    1.332450   0.000000
     3  C    2.089596   1.320341   0.000000
     4  C    2.087294   2.217465   1.413410   0.000000
     5  N    1.333032   2.251518   2.221078   1.320005   0.000000
     6  H    3.125918   2.098954   1.080201   2.264470   3.273981
     7  H    3.122977   3.269451   2.262052   1.079437   2.097154
     8  H    3.793726   2.767236   2.826114   3.933365   4.427527
     9  C    1.433873   2.431219   3.475732   3.467563   2.417427
    10  O    2.284471   3.504654   4.360145   3.994344   2.727573
    11  O    2.310065   2.723414   3.998765   4.380699   3.541481
    12  O    3.541398   2.899713   4.051751   5.072423   4.823936
    13  H    2.526167   2.386869   3.695758   4.400734   3.849140
    14  H    4.304024   3.792914   4.942629   5.911641   5.583461
    15  O    4.222379   3.211026   3.572599   4.723550   5.054525
    16  H    3.535429   2.676846   3.615206   4.731534   4.694153
    17  H    4.956311   3.810094   4.045751   5.309113   5.776407
                    6          7          8          9         10
     6  H    0.000000
     7  H    2.799155   0.000000
     8  H    2.604107   4.644532   0.000000
     9  C    4.458767   4.446835   4.663206   0.000000
    10  O    5.406925   4.815830   5.753398   1.213474   0.000000
    11  O    4.810859   5.430399   4.531133   1.292827   2.225598
    12  O    4.360438   6.119783   3.205903   3.418160   4.560887
    13  H    4.323481   5.477018   3.720836   2.074411   3.186740
    14  H    5.248749   6.954824   3.758682   3.973058   5.017604
    15  O    3.398024   5.515810   0.967382   4.845706   5.978227
    16  H    3.778805   5.719938   2.256565   3.751727   4.929043
    17  H    3.632556   6.047267   1.536385   5.629212   6.796088
                   11         12         13         14         15
    11  O    0.000000
    12  O    2.445105   0.000000
    13  H    1.072487   1.388698   0.000000
    14  H    2.864533   0.968080   1.954934   0.000000
    15  O    4.454815   2.707170   3.522933   3.087504   0.000000
    16  H    3.036799   0.989476   1.995216   1.569461   1.719368
    17  H    5.179337   3.180656   4.185740   3.538156   0.967171
                   16         17
    16  H    0.000000
    17  H    2.254355   0.000000
 Stoichiometry    C3H7N3O4
 Framework group  C1[X(C3H7N3O4)]
 Deg. of freedom    45
 Full point group                 C1      NOp   1
 Largest Abelian subgroup         C1      NOp   1
 Largest concise Abelian subgroup C1      NOp   1
                         Standard orientation:                         
 ---------------------------------------------------------------------
 Center     Atomic      Atomic             Coordinates (Angstroms)
 Number     Number       Type             X           Y           Z
 ---------------------------------------------------------------------
      1          7           0       -0.957210    0.171210   -0.041114
      2          7           0        0.193683    0.647216   -0.514705
      3          6           0        0.027327    1.956923   -0.497544
      4          6           0       -1.264526    2.235268    0.003821
      5          7           0       -1.865097    1.092804    0.280413
      6          1           0        0.801408    2.630583   -0.834909
      7          1           0       -1.754329    3.183783    0.163812
      8          1           0        2.523241    1.466552    0.734071
      9          6           0       -1.225953   -1.230963    0.091848
     10          8           0       -2.340428   -1.589871    0.410671
     11          8           0       -0.231603   -2.018880   -0.156863
     12          8           0        2.142358   -1.498222   -0.424746
     13          1           0        0.770764   -1.656496   -0.275888
     14          1           0        2.621118   -2.219982    0.007726
     15          8           0        3.157988    0.736750    0.716379
     16          1           0        2.479744   -0.657290   -0.027169
     17          1           0        3.910805    1.068662    0.207929
 ---------------------------------------------------------------------
 Rotational constants (GHZ):           1.4470571           1.0468799           0.6437683
 Standard basis: 6-31+G(d,p) (6D, 7F)
 There are   225 symmetry adapted cartesian basis functions of A   symmetry.
 There are   225 symmetry adapted basis functions of A   symmetry.
   225 basis functions,   369 primitive gaussians,   225 cartesian basis functions
    39 alpha electrons       39 beta electrons
       nuclear repulsion energy       555.7829736475 Hartrees.
 NAtoms=   17 NActive=   17 NUniq=   17 SFac= 1.00D+00 NAtFMM=   60 NAOKFM=F Big=F
 Integral buffers will be    131072 words long.
 Raffenetti 2 integral format.
 Two-electron integral symmetry is turned on.
 ------------------------------------------------------------------------------
 Polarizable Continuum Model (PCM)
 =================================
 Model                : PCM.
 Atomic radii         : SMD-Coulomb.
 Polarization charges : Total charges.
 Charge compensation  : None.
 Solution method      : On-the-fly selection.
 Cavity type          : VdW (van der Waals Surface) (Alpha=1.000).
 Cavity algorithm     : GePol (No added spheres)
                        Default sphere list used, NSphG=   17.
                        Lebedev-Laikov grids with approx.  5.0 points / Ang**2.
                        Smoothing algorithm: York/Karplus (Gamma=1.0000).
                        Polarization charges: spherical gaussians, with
                                              point-specific exponents (IZeta= 3).
                        Self-potential: point-specific (ISelfS= 7).
                        Self-field    : sphere-specific E.n sum rule (ISelfD= 2).
 1st derivatives      : Analytical E(r).r(x)/FMM algorithm (CHGder, D1EAlg=3).
                        Cavity 1st derivative terms included.
 Solvent              : Water, Eps=  78.355300 Eps(inf)=   1.777849
 ------------------------------------------------------------------------------
 Spheres list:
 ISph  on   Nord     Re0    Alpha      Xe            Ye            Ze
    1   N      1    1.8900  1.000     -0.957210      0.171210     -0.041114
    2   N      2    1.8900  1.000      0.193683      0.647216     -0.514705
    3   C      3    1.8500  1.000      0.027327      1.956923     -0.497544
    4   C      4    1.8500  1.000     -1.264526      2.235268      0.003821
    5   N      5    1.8900  1.000     -1.865097      1.092804      0.280413
    6   H      6    1.2000  1.000      0.801408      2.630583     -0.834909
    7   H      7    1.2000  1.000     -1.754329      3.183783      0.163812
    8   H      8    1.2000  1.000      2.523241      1.466552      0.734071
    9   C      9    1.8500  1.000     -1.225953     -1.230963      0.091848
   10   O     10    1.5200  1.000     -2.340428     -1.589871      0.410671
   11   O     11    1.5200  1.000     -0.231603     -2.018880     -0.156863
   12   O     12    1.5200  1.000      2.142358     -1.498222     -0.424746
   13   H     13    1.2000  1.000      0.770764     -1.656496     -0.275888
   14   H     14    1.2000  1.000      2.621118     -2.219982      0.007726
   15   O     15    1.5200  1.000      3.157988      0.736750      0.716379
   16   H     16    1.2000  1.000      2.479744     -0.657290     -0.027169
   17   H     17    1.2000  1.000      3.910805      1.068662      0.207929
 ------------------------------------------------------------------------------
 ------------------------------------------------------------------------------
 Atomic radii for non-electrostatic terms: SMD-CDS.
 ------------------------------------------------------------------------------
 Nuclear repulsion after PCM non-electrostatic terms =      555.7917781817 Hartrees.
 One-electron integrals computed using PRISM.
 NBasis=   225 RedAO= T EigKep=  2.21D-05  NBF=   225
 NBsUse=   225 1.00D-06 EigRej= -1.00D+00 NBFU=   225
 Initial guess from the checkpoint file:  "/scratch/gongke2021/PC-2-N/Gau-16033.chk"
 B after Tr=    -0.000000    0.000000    0.000000
         Rot=    1.000000   -0.000001    0.000311   -0.000789 Ang=  -0.10 deg.
 ExpMin= 4.38D-02 ExpMax= 5.48D+03 ExpMxC= 8.25D+02 IAcc=2 IRadAn=         4 AccDes= 0.00D+00
 Harris functional with IExCor= 1009 and IRadAn=       4 diagonalized for initial guess.
 HarFok:  IExCor= 1009 AccDes= 0.00D+00 IRadAn=         4 IDoV= 1 UseB2=F ITyADJ=14
 ICtDFT=  3500011 ScaDFX=  1.000000  1.000000  1.000000  1.000000
 FoFCou: FMM=F IPFlag=           0 FMFlag=      100000 FMFlg1=           0
         NFxFlg=           0 DoJE=T BraDBF=F KetDBF=T FulRan=T
         wScrn=  0.000000 ICntrl=       500 IOpCl=  0 I1Cent=   200000004 NGrid=           0
         NMat0=    1 NMatS0=      1 NMatT0=    0 NMatD0=    1 NMtDS0=    0 NMtDT0=    0
 Petite list used in FoFCou.
 Requested convergence on RMS density matrix=1.00D-08 within 128 cycles.
 Requested convergence on MAX density matrix=1.00D-06.
 Requested convergence on             energy=1.00D-06.
 No special actions if energy rises.
 Inv3:  Mode=1 IEnd=     5573307.
 Iteration    1 A*A^-1 deviation from unit magnitude is 3.44D-15 for    552.
 Iteration    1 A*A^-1 deviation from orthogonality  is 2.25D-15 for    783    196.
 Iteration    1 A^-1*A deviation from unit magnitude is 3.11D-15 for    369.
 Iteration    1 A^-1*A deviation from orthogonality  is 1.88D-15 for    772    172.
 Error on total polarization charges =  0.04666
 SCF Done:  E(RM062X) =  -583.509107178     A.U. after    9 cycles
            NFock=  9  Conv=0.83D-08     -V/T= 2.0084
 SMD-CDS (non-electrostatic) energy       (kcal/mol) =       5.52
 (included in total energy above)
 D1PCM: PCM CHGder 1st derivatives, ID1Alg=3 FixD1E=F DoIter=F DoCFld=F I1PDM=0.
 Calling FoFJK, ICntrl=      2127 FMM=F ISym2X=0 I1Cent= 0 IOpClX= 0 NMat=1 NMatS=1 NMatT=0.
 ***** Axes restored to original set *****
 -------------------------------------------------------------------
 Center     Atomic                   Forces (Hartrees/Bohr)
 Number     Number              X              Y              Z
 -------------------------------------------------------------------
      1        7           0.000083160   -0.000045068   -0.000011743
      2        7          -0.000206147    0.000052894   -0.000207160
      3        6           0.000029148    0.000030503    0.000176964
      4        6          -0.000026525    0.000042077   -0.000095272
      5        7           0.000059100   -0.000026067    0.000000950
      6        1           0.000044295    0.000024008    0.000023079
      7        1          -0.000013242   -0.000005888    0.000015290
      8        1           0.000175844   -0.000192798    0.000018667
      9        6           0.000231228   -0.000071879    0.000457423
     10        8          -0.000153161   -0.000020361   -0.000178984
     11        8          -0.000153671   -0.000048379   -0.000182831
     12        8           0.000060443    0.000086476   -0.000118368
     13        1           0.000015320    0.000074682    0.000067569
     14        1          -0.000002585   -0.000065743   -0.000010446
     15        8          -0.000004763    0.000220626   -0.000092947
     16        1          -0.000083115   -0.000001088    0.000074746
     17        1          -0.000055330   -0.000053994    0.000063063
 -------------------------------------------------------------------
 Cartesian Forces:  Max     0.000457423 RMS     0.000118898

 GradGradGradGradGradGradGradGradGradGradGradGradGradGradGradGradGradGrad
 Berny optimization.
 Using GEDIIS/GDIIS optimizer.
 FormGI is forming the generalized inverse of G from B-inverse, IUseBI=4.
 Internal  Forces:  Max     0.000403957 RMS     0.000120596
 Search for a local minimum.
 Step number   3 out of a maximum of   76
 All quantities printed in internal units (Hartrees-Bohrs-Radians)
 Mixed Optimization -- En-DIIS/RFO-DIIS
 Swapping is turned off.
 Update second derivatives using D2CorX and points    1    2    3
 DE=  2.94D-06 DEPred=-1.64D-07 R=-1.79D+01
 Trust test=-1.79D+01 RLast= 1.12D-02 DXMaxT set to 7.50D-02
 ITU= -1 -1  0
     Eigenvalues ---    0.00200   0.00230   0.00230   0.00230   0.00470
     Eigenvalues ---    0.01178   0.01714   0.01836   0.02079   0.02182
     Eigenvalues ---    0.02331   0.02393   0.03712   0.04894   0.05422
     Eigenvalues ---    0.07023   0.08313   0.12113   0.14219   0.15007
     Eigenvalues ---    0.16000   0.16000   0.16000   0.16077   0.22543
     Eigenvalues ---    0.22941   0.24694   0.24889   0.25032   0.35699
     Eigenvalues ---    0.36062   0.36108   0.39584   0.40523   0.49529
     Eigenvalues ---    0.51596   0.53765   0.53949   0.54196   0.54594
     Eigenvalues ---    0.59533   0.61631   0.67877   0.92840   0.98182
 En-DIIS/RFO-DIIS/Sim-DIIS IScMMF=       -3 using points:     3    2    1
 RFO step:  Lambda=-5.05166836D-06.
 EnCoef did   100 forward-backward iterations
 DidBck=T Rises=T En-DIIS coefs:    0.20321    0.00000    0.79679
 Iteration  1 RMS(Cart)=  0.00592123 RMS(Int)=  0.00001184
 Iteration  2 RMS(Cart)=  0.00001713 RMS(Int)=  0.00000018
 Iteration  3 RMS(Cart)=  0.00000000 RMS(Int)=  0.00000018
 Variable       Old X    -DE/DX   Delta X   Delta X   Delta X     New X
                                 (Linear)    (Quad)   (Total)
    R1        2.51797  -0.00004  -0.00009   0.00000  -0.00009   2.51788
    R2        2.51906  -0.00001  -0.00001   0.00000  -0.00001   2.51905
    R3        2.70963   0.00006   0.00030   0.00000   0.00030   2.70992
    R4        2.49508   0.00003  -0.00001   0.00000  -0.00001   2.49507
    R5        2.67096  -0.00003  -0.00002   0.00000  -0.00002   2.67094
    R6        2.04128   0.00004   0.00008   0.00000   0.00008   2.04136
    R7        2.49445   0.00002   0.00006   0.00000   0.00006   2.49451
    R8        2.03984  -0.00000  -0.00000   0.00000  -0.00000   2.03984
    R9        1.82809  -0.00025  -0.00039   0.00000  -0.00039   1.82770
   R10        2.29313   0.00010   0.00009   0.00000   0.00009   2.29322
   R11        2.44309  -0.00004  -0.00016   0.00000  -0.00016   2.44293
   R12        2.02671   0.00012   0.00029   0.00000   0.00029   2.02700
   R13        2.62426   0.00010  -0.00007   0.00000  -0.00007   2.62419
   R14        1.82941   0.00005   0.00009   0.00000   0.00009   1.82949
   R15        1.86984   0.00004   0.00000   0.00000   0.00000   1.86984
   R16        3.24913   0.00003  -0.00037   0.00000  -0.00037   3.24876
   R17        1.82769  -0.00009  -0.00019   0.00000  -0.00019   1.82750
    A1        2.01199  -0.00008  -0.00017   0.00000  -0.00017   2.01181
    A2        2.14622   0.00015   0.00026   0.00000   0.00026   2.14648
    A3        2.12475  -0.00007  -0.00010   0.00000  -0.00010   2.12465
    A4        1.81411   0.00007   0.00019   0.00000   0.00019   1.81429
    A5        1.89137  -0.00003  -0.00008   0.00000  -0.00008   1.89129
    A6        2.12266   0.00000  -0.00010   0.00000  -0.00010   2.12255
    A7        2.26914   0.00002   0.00018   0.00000   0.00018   2.26932
    A8        1.89624  -0.00003  -0.00005   0.00000  -0.00005   1.89619
    A9        2.26576   0.00003   0.00019   0.00000   0.00019   2.26595
   A10        2.12119   0.00000  -0.00014   0.00000  -0.00014   2.12105
   A11        1.81105   0.00007   0.00012   0.00000   0.00012   1.81117
   A12        2.07799  -0.00009  -0.00009   0.00000  -0.00009   2.07791
   A13        2.01971   0.00014  -0.00010   0.00000  -0.00010   2.01961
   A14        2.18544  -0.00005   0.00017   0.00000   0.00017   2.18561
   A15        2.13443   0.00030  -0.00053   0.00000  -0.00053   2.13390
   A16        1.93435  -0.00012  -0.00040   0.00000  -0.00040   1.93395
   A17        1.97204   0.00033   0.00117   0.00000   0.00117   1.97321
   A18        1.86033  -0.00008   0.00032   0.00000   0.00032   1.86065
   A19        1.93986   0.00003  -0.00016   0.00000  -0.00016   1.93970
   A20        1.83532   0.00000   0.00036   0.00000   0.00036   1.83568
[...]
   zy         0.128171D+02      0.189929D+01      0.211325D+01
   zz         0.125217D+03      0.185552D+02      0.206455D+02

 ----------------------------------------------------------------------
 1\1\GINC-NODE5\Freq\RM062X\6-31+G(d,p)\C3H7N3O4\GONGKE2021\19-Oct-2023
 \0\\#N Geom=AllCheck Guess=TCheck SCRF=Check GenChk RM062X/6-31+G(d,p)
  Freq\\test\\0,1\N,-0.9582279932,0.1733637278,-0.0396037916\N,0.194587
 5914,0.6471615744,-0.5106242236\C,0.0313622631,1.9572486238,-0.4928483
 097\C,-1.2615751568,2.2381620561,0.0042449955\N,-1.8650951634,1.096849
 5561,0.2793211648\H,0.8080236013,2.6292509757,-0.8277118572\H,-1.75014
 51118,3.1875624261,0.1627384473\H,2.541092031,1.4632558707,0.728116365
 1\C,-1.2304666862,-1.2283561637,0.0925263194\O,-2.3472391695,-1.584852
 6756,0.4061520678\O,-0.2374739544,-2.018315687,-0.154719784\O,2.137680
 9317,-1.5025102062,-0.421791769\H,0.7658567546,-1.6574896774,-0.271576
 0313\H,2.6148216317,-2.2261607729,0.0094122761\O,3.1708197247,0.729424
 6269,0.7090151908\H,2.4783994571,-0.6627987457,-0.0244737005\H,3.92260
 52486,1.0543004909,0.1947156401\\Version=ES64L-G16RevA.03\State=1-A\HF
 =-583.5091103\RMSD=2.983e-09\RMSF=1.268e-05\ZeroPoint=0.1218273\Therma
 l=0.1336699\Dipole=3.9923222,2.9270406,-0.2514892\DipoleDeriv=-0.02852
 12,-0.4027295,-0.0013552,-0.458831,-2.1664015,0.2527846,0.0265722,0.23
 1502,0.0220193,-0.3795681,0.7390061,0.0111243,0.3153509,0.22455,-0.128
 2093,0.0249477,-0.2841947,-0.2370605,0.3246318,0.4254853,-0.171995,-0.
 1176617,-0.4232302,0.0547514,-0.1618775,-0.1677609,0.0212122,0.0985787
 ,-0.657931,-0.030273,-0.1369544,-0.1556298,0.0580064,-0.0496964,0.2582
 036,-0.0327703,-0.5764252,-0.3682515,0.1447613,0.134331,0.5464485,-0.0
 747607,0.1254272,0.0983669,-0.2917271,0.1068414,-0.0382211,0.0384039,-
 0.0077685,0.1454966,0.0032177,0.0400307,0.0155186,0.1925847,0.1344672,
 0.0485891,0.0273054,0.0175955,0.1183782,-0.0034932,0.0286843,-0.011766
 5,0.1970672,0.4858089,0.0059786,0.0203778,0.0151955,0.3355869,0.028361
 7,0.0323254,0.0470959,0.4443181,3.1122614,0.3085821,-0.6559507,0.00099
 32,3.701453,-0.1829114,-0.6964882,-0.2323296,0.8153308,-1.9149468,-0.6
 07327,0.3697459,-0.4345698,-1.2522552,0.158676,0.3772097,0.2177067,-0.
 6821716,-2.4553755,0.5948032,0.3316621,0.4745776,-1.3329314,-0.0956163
 ,0.3691258,-0.1389676,-0.6291231,-1.5310457,-0.0934273,0.1067281,-0.17
 23492,-1.0641522,-0.1427633,0.073125,-0.1369511,-0.762966,2.1572282,-0
 .0810367,-0.1573181,0.259549,0.4319196,-0.0339918,-0.1679441,0.0112446
 ,0.4645971,0.3898426,-0.0016461,-0.0388981,-0.0396949,0.4368612,0.0093
 863,-0.0418244,0.0192998,0.4080438,-0.8984046,-0.1022553,-0.0918949,-0
 .1152151,-0.9083012,-0.1757861,-0.098662,-0.1914099,-0.8586352,0.53981
 32,0.2338669,0.0704108,0.2941288,0.9985044,0.2324018,0.0971386,0.23079
 5,0.506364,0.4348138,-0.0034857,0.027165,-0.0286769,0.3637031,0.039946
 3,0.021906,0.0336472,0.4229166\Polar=113.4243623,6.0882389,127.0019015
 ,-14.4121954,-3.4026538,68.683959\Quadrupole=-0.7341347,6.0670764,-5.3
 329418,-4.8125774,2.0303258,-1.5409401\PG=C01 [X(C3H7N3O4)]\NImag=0\\0
 .60783776,0.01804524,0.76181974,-0.18398519,-0.02630812,0.18557391,-0.
 24777536,0.00337115,0.06883808,0.45667053,-0.07943702,-0.09770918,0.03
 202361,-0.04816329,0.64668028,0.07442110,0.00060861,-0.09876801,-0.133
 31101,-0.00177647,0.15817131,-0.02065421,-0.00090384,0.01192154,-0.118
 55508,0.04959668,0.01663933,0.67641271,-0.06140461,-0.11633138,0.02912
 769,0.04461487,-0.41981276,-0.00520511,0.13699789,0.77912391,0.0136523
 5,0.00452100,0.00552895,0.01726175,-0.00651489,-0.07880128,-0.21323414
 ,-0.07786059,0.23095040,-0.00757670,-0.03900838,0.00926901,-0.00005884
 ,0.10670873,0.00519441,-0.26064652,0.01052197,0.07299705,0.58700181,0.
 02435708,-0.11698195,-0.00490431,0.02121710,-0.02036150,-0.00681082,0.
 05445167,-0.12739712,-0.01950169,-0.10223032,0.88088244,0.00592228,0.0
 2009317,0.00682854,0.00786859,-0.04044975,0.02013824,0.07127470,-0.002
 04862,-0.10195315,-0.16991981,0.01461616,0.20972198,-0.20147934,0.0448
 9445,0.04887116,-0.08714612,0.00057299,0.04411399,-0.04147242,-0.00764
 363,0.02492617,-0.18487144,-0.12449128,0.04833102,0.49461153,0.1216454
 2,-0.15129897,-0.04591304,0.02125828,-0.05724977,-0.00574787,-0.092614
 69,0.03206430,0.03593421,-0.12755163,-0.34250371,0.05882112,0.06939450
 ,0.59346744,0.04564923,-0.01558452,-0.08657076,0.04414669,0.00331966,0
 .00909160,0.02872616,0.00208881,0.01098177,0.04793676,0.05710532,-0.09
 282631,-0.15422500,-0.04284918,0.16536541,0.00241618,0.00453966,0.0026
 1962,0.00811935,0.00532965,-0.00647413,-0.22344254,-0.14284504,0.08068
 654,-0.00405950,-0.01489471,0.00231875,-0.00358168,-0.00034998,0.00364
 606,0.21943902,0.00107591,-0.00599281,0.00021460,-0.02340924,-0.014956
 98,0.00951421,-0.13473811,-0.17233722,0.05859925,0.00602172,0.01119748
 ,-0.00282514,0.00428532,0.00039381,-0.00143558,0.14819955,0.18193584,0
 .00262735,-0.00138433,0.00838973,-0.00524789,-0.00206629,-0.00485454,0
 .08115550,0.06242025,-0.06811026,0.00128968,0.00536890,-0.00060133,0.0
 0335835,0.00037466,0.00427624,-0.08257475,-0.06508400,0.06108080,-0.00
 001165,-0.00608264,0.00383190,-0.00410096,0.00296263,0.00369323,0.0004
 7461,0.01884930,-0.00077251,-0.12602202,0.13453701,0.03104246,0.010974
 81,-0.01674339,-0.00649600,-0.00015002,-0.00049243,-0.00040266,0.11739
 636,-0.00238080,-0.00284298,0.00126458,-0.00181965,0.00107872,0.000875
 09,-0.00228623,0.00549144,0.00070567,0.12576669,-0.29637262,-0.0398817
 1,0.01218486,-0.01793563,-0.00437075,0.00031386,-0.00036248,-0.0001522
 5,-0.13273542,0.31130489,0.00369405,0.00304170,0.00787297,0.00386366,-
 0.00102723,0.00422965,-0.00006060,-0.00754676,0.00047824,0.03137119,-0
 .04328217,-0.04502427,-0.00734898,0.00683485,-0.00443321,-0.00044974,0
 .00016166,-0.00103583,-0.03094571,0.04182179,0.03659592,0.00032896,0.0
 0028108,0.00021642,-0.00100679,-0.00122832,-0.00007980,-0.00324851,0.0
 0104945,-0.00104993,-0.00041164,0.00017959,0.00033584,0.00067416,0.000
 19862,-0.00058076,0.00015861,0.00048381,-0.00057014,0.00006052,0.00000
 718,-0.00001823,0.26059726,-0.00037520,-0.00039980,0.00047042,0.000038
 79,0.00027168,-0.00001272,0.00081375,-0.00016451,-0.00005540,0.0000054
 8,-0.00001667,-0.00008227,0.00029777,-0.00019213,-0.00022551,-0.000100
 34,-0.00021613,0.00026098,0.00001345,-0.00000116,-0.00000923,-0.250642
 81,0.31824951,0.00016234,-0.00000443,0.00022305,-0.00024650,-0.0000122
 3,-0.00036344,-0.00186428,0.00006199,-0.00084367,-0.00013494,0.0001250
 4,0.00017651,0.00044616,0.00006911,-0.00038332,0.00009867,0.00032434,-
 0.00029415,0.00003466,0.00000083,-0.00000936,-0.02373641,0.00172687,0.
 01595673,-0.10098086,0.00565843,0.01897988,-0.00954978,-0.03509820,-0.
 00191871,-0.01147478,0.00475150,0.00627172,0.00009379,0.01179083,0.001
 31675,0.01299744,0.01296027,-0.01161214,0.00089781,-0.00089598,0.00064
 191,0.00140583,0.00110230,0.00024439,-0.00018224,-0.00008586,-0.000126
 87,0.96049402,-0.00479024,-0.16397545,0.00472263,-0.03794576,-0.032322
 57,0.01479752,-0.01524541,0.03481696,0.00543005,0.02974564,0.02208006,
 -0.01251952,0.01812436,-0.06255793,-0.00456291,-0.00033840,0.00118767,
 0.00025055,0.00022130,0.00038354,-0.00020904,-0.00123303,-0.00005009,-
 0.00055368,0.03005974,0.54881933,0.02033527,0.00036758,-0.05395203,-0.
 00157625,0.01480125,-0.01572568,0.00658485,-0.00277334,0.00167591,0.00
 079568,-0.00460445,0.00429591,-0.01121948,-0.00407378,-0.01056158,0.00
 062494,0.00046223,0.00219661,0.00038027,-0.00030072,0.00224381,0.00013
 182,0.00001356,0.00010009,-0.20171964,-0.01539196,0.27211623,-0.032711
 40,-0.05126270,0.01636016,0.01041906,0.00134312,-0.00254840,0.00361304
 ,-0.00862518,-0.00132747,-0.00696318,-0.00623823,0.00305997,-0.0041375
 9,0.01508661,0.00154785,0.00020760,-0.00052984,-0.00034208,-0.00005920
 ,-0.00011660,0.00000566,0.00028691,0.00002461,0.00016573,-0.57286215,-
 0.16503535,0.13640433,0.71423802,-0.05842097,-0.04189104,0.01918987,0.
 00932924,-0.00275241,-0.00425981,-0.00041816,-0.00869384,0.00054373,-0
 .00731283,-0.00313917,0.00302761,-0.00663095,0.00404184,0.00186424,0.0
 0021153,-0.00074500,0.00003447,0.00008035,-0.00015947,-0.00001708,0.00
 037886,0.00003045,0.00018319,-0.15468959,-0.14497503,0.04262757,0.1871
 6752,0.17208981,0.01573355,0.01786720,0.01128612,-0.00125957,-0.001064
 53,0.00651421,-0.00180640,0.00314239,-0.00005447,0.00251584,0.00226477
 ,-0.00112329,0.00187774,-0.00488610,0.00072620,-0.00041815,0.00009803,
 -0.00078893,-0.00004222,0.00002276,-0.00017836,-0.00009962,-0.00001943
 ,-0.00006693,0.13780556,0.04477411,-0.12096173,-0.18967386,-0.05537076
 ,0.08854882,-0.00046152,0.02585836,0.00346328,-0.00536715,-0.00645465,
 0.00238369,-0.00212027,0.00622605,0.00080796,0.00450439,0.00337036,-0.
 00197006,0.00617923,-0.00409327,-0.00029014,-0.00001390,0.00013171,-0.
 00004273,0.00016890,0.00010701,-0.00039060,-0.00043430,-0.00000598,-0.
 00007666,-0.24382331,0.13114634,0.04222439,-0.12669632,0.03090301,0.03
 867454,0.58538941,0.03909446,-0.06172073,-0.00882371,0.00717749,0.0025
 7544,-0.00241040,0.00442918,-0.00565244,-0.00188769,-0.00228781,-0.007
 36228,0.00095489,-0.01019187,0.00089348,0.00445462,-0.00009971,-0.0001
 3398,0.00002194,-0.00054429,-0.00058656,0.00018458,0.00031275,0.000054
 60,0.00016834,0.10758148,-0.21646923,-0.03017278,0.02089581,0.02810898
 ,-0.00439820,-0.09285199,0.33155628,0.00185927,-0.00467484,0.01373948,
 0.00145389,0.00292937,-0.00017819,0.00066917,-0.00177556,0.00038949,-0
 .00176715,-0.00064879,0.00047592,0.00079861,0.00200037,0.00479391,-0.0
 0007845,-0.00004715,-0.00026109,-0.00038811,0.00000164,-0.00083427,0.0
 0006408,0.00002232,-0.00000404,0.04202995,-0.03558023,-0.07166424,0.03
 665981,-0.00689470,0.01007728,-0.10459035,0.03531796,0.05897170,-0.000
 58590,0.00368012,-0.00013148,-0.00331359,0.00174852,-0.00037436,-0.001
 16296,0.00100604,0.00046817,0.00075632,0.00123313,-0.00019974,0.000715
 94,-0.00024248,-0.00011162,0.00000244,0.00006557,-0.00005564,-0.000017
 24,0.00004647,0.00000376,-0.00184889,-0.00094067,-0.00077282,0.0163409
 8,-0.02405007,-0.00580921,-0.01344052,0.00281798,0.00437916,-0.0928311
 1,-0.00322614,0.01021215,0.29461270,-0.00076528,0.00040160,0.00036258,
 0.00315264,-0.00473279,0.00101539,0.00068140,0.00068255,-0.00038255,0.
 00041510,-0.00004636,-0.00027938,0.00113541,-0.00069664,-0.00058725,-0
 .00000426,0.00000829,0.00007275,0.00011991,0.00002868,-0.00006871,-0.0
 0211177,-0.00012977,-0.00019977,-0.00011709,-0.00493729,-0.00044807,-0
 .00205941,0.00083928,0.00067426,-0.01670479,0.01080150,0.00203839,-0.0
 5211913,0.66292302,0.00016654,-0.00007407,-0.00020147,-0.00107888,0.00
 144487,0.00006440,-0.00025403,-0.00021765,0.00009198,-0.00018341,0.000
 04252,0.00006565,-0.00034323,0.00021880,0.00021813,0.00002204,0.000021
 51,-0.00001934,-0.00003727,-0.00000670,0.00001994,-0.00120287,-0.00057
 570,-0.00026500,-0.00117266,0.00183834,0.00167942,0.00057152,-0.000119
 81,-0.00078434,0.00536332,-0.00056127,0.00742078,0.19368707,-0.0238553
 5,0.22322584,0.00250068,-0.00919339,-0.00020021,0.00254651,0.00209692,
 -0.00163526,0.00184604,-0.00331863,-0.00059515,-0.00210297,-0.00318125
 ,0.00094535,-0.00352463,0.00144581,0.00153331,0.00000118,-0.00014812,-
 0.00004347,-0.00013881,-0.00019357,0.00005306,0.00058296,0.00002061,0.
 00005943,-0.05315464,0.04017507,0.01251081,0.02853752,-0.00361723,-0.0
 0768875,-0.11896097,-0.06932194,0.01082356,0.03529136,0.00885979,0.000
 53283,0.10738838,0.00298561,-0.00330087,-0.00105146,0.00168777,-0.0000
 6053,-0.00049103,-0.00088875,-0.00134855,0.00034563,-0.00072166,0.0000
 9750,0.00046957,-0.00144240,0.00130195,0.00049339,-0.00002691,0.000015
 37,-0.00005524,-0.00016115,-0.00002571,0.00010268,-0.00012609,-0.00014
 094,-0.00013585,0.01707970,0.01716693,-0.00050461,0.00909590,-0.002576
 11,-0.00302411,-0.07925586,-0.08108356,0.00736664,0.01081343,-0.030275
 28,0.00121490,0.04030533,0.09720125,0.00007748,0.00159432,0.00008398,-
 0.00084384,-0.00066344,0.00024752,-0.00020165,0.00064578,-0.00028995,0
 .00056260,0.00039172,-0.00001614,0.00044439,-0.00064512,-0.00073787,-0
 .00001588,0.00001381,-0.00002686,0.00008465,0.00001939,0.00008376,-0.0
 0009589,-0.00006217,0.00000646,0.00996745,-0.00373026,-0.01180592,-0.0
 0141996,-0.00070021,0.00703359,0.01020037,0.00644227,-0.02264684,0.004
 67510,0.00099646,-0.01861349,-0.01183379,-0.00350332,0.04670386,0.0001
 2104,-0.00001784,0.00000452,-0.00018550,0.00065912,-0.00026009,-0.0001
 8685,-0.00004293,0.00007808,-0.00003201,0.00005755,0.00003418,-0.00009
 167,0.00006839,0.00004313,-0.00000136,0.00000381,-0.00000986,-0.000017
 45,-0.00000438,0.00000890,-0.00001067,0.00009964,0.00006488,0.00032982
 ,-0.00015834,0.00013360,-0.00016581,0.00004540,-0.00002904,-0.00231187
 ,-0.00207802,0.00111611,-0.14978048,0.18351554,-0.12158288,-0.00129655
 ,0.01011703,-0.00635390,0.14723622,0.00005087,0.00005881,0.00001308,0.
 00014576,0.00011507,0.00016663,-0.00005123,0.00008968,0.00001735,0.000
 06044,0.00007677,-0.00003683,0.00006916,-0.00002453,-0.00004464,-0.000
 00022,0.00000108,0.00000348,0.00000099,0.00000325,-0.00000073,0.000122
 02,0.00014361,0.00003713,0.00128592,-0.00122959,-0.00038732,-0.0008106
 7,0.00012329,0.00022629,-0.00483233,-0.00099375,0.00092513,0.15805946,
 -0.30824310,0.14471957,0.00697660,0.00377428,-0.00198712,-0.18050224,0
 .32874780,-0.00011918,0.00001958,0.00015215,0.00034171,-0.00042745,0.0
 0046191,0.00007374,0.00004922,-0.00003589,0.00001519,-0.00003518,-0.00
 005807,0.00007596,-0.00008563,-0.00011051,0.00000605,0.00000114,0.0000
 1866,0.00001187,-0.00000003,-0.00000856,0.00004712,0.00011533,0.000089
 62,-0.00045168,0.00012884,0.00011871,0.00018861,-0.00000077,-0.0000835
 7,0.00153037,0.00096264,-0.00005214,-0.12939250,0.17883056,-0.11916951
 ,-0.00132326,-0.00293111,-0.00005827,0.12061216,-0.16255790,0.11259197
 ,-0.00000877,0.00035338,-0.00049303,-0.00147342,-0.00015718,-0.0006642
 2,0.00027582,-0.00065242,0.00011489,0.00018810,-0.00006698,-0.00012211
 ,-0.00060989,0.00002097,0.00052970,-0.00004167,-0.00006559,0.00012696,
 -0.00004423,0.00000028,0.00001695,-0.23794029,0.26247783,0.00758276,0.
 00055838,0.00034431,-0.00016556,-0.00044443,-0.00019192,0.00015948,-0.
 00109751,-0.00021278,0.00007980,-0.00075986,-0.01238268,-0.00440916,0.
 00205743,0.00049517,-0.00010050,-0.00101618,-0.00063040,-0.00093031,0.
 56830421,0.00026574,0.00033098,-0.00018195,-0.00043175,-0.00016540,-0.
 00010409,-0.00019892,-0.00010401,0.00008967,0.00000898,0.00010798,0.00
 007860,-0.00006608,0.00008802,0.00004744,0.00011917,0.00005636,-0.0000
 6588,-0.00001096,0.00000163,0.00000129,0.22018021,-0.32349615,0.018267
 65,0.00083849,-0.00097738,-0.00023573,-0.00062031,0.00010556,0.0002035
 7,-0.00317981,0.00009331,0.00040993,-0.01308659,-0.02401296,-0.0106260
 3,0.00532858,0.00021081,-0.00074351,-0.00117772,0.00018145,-0.00079107
 ,-0.11551173,0.43136888,-0.00012698,0.00023793,-0.00019467,-0.00051393
 ,-0.00026681,0.00014414,0.00011063,-0.00008869,0.00002889,0.00000198,-
 0.00001934,-0.00006903,-0.00019099,0.00000236,0.00014953,-0.00000969,-
 0.00001247,-0.00000114,-0.00001375,0.00000244,0.00000326,0.02649809,-0
 .00558393,-0.01277557,0.00040671,-0.00026138,-0.00017522,-0.00034167,-
 0.00001194,0.00013228,-0.00144480,0.00002096,0.00021099,-0.00521395,-0
 .01131825,-0.00064161,0.00243841,0.00003937,-0.00037716,-0.00100703,-0
 .00049477,-0.00069136,-0.22965473,-0.10030177,0.17026513,-0.00096469,-
 0.00023476,0.00049444,0.00095534,-0.00050300,0.00088870,0.00041109,0.0
 0060639,-0.00025442,0.00018832,-0.00009144,-0.00022957,0.00077662,-0.0
 0048429,-0.00046187,0.00004685,-0.00000919,0.00007889,0.00008203,0.000
 00717,-0.00004781,0.00356761,0.00246203,0.00167009,-0.00104127,-0.0010
 6645,0.00035298,0.00014185,0.00035502,-0.00011478,-0.00229747,0.001332
 55,0.00107225,-0.08457905,-0.11272169,-0.07038427,-0.00128253,-0.00993
 686,-0.00517013,0.00733186,0.02007919,0.00930969,-0.00522635,0.0089147
 6,0.00423458,0.08398409,0.00005089,-0.00016032,-0.00019649,-0.00021663
 ,-0.00055578,-0.00017429,0.00041085,-0.00049096,0.00003547,-0.00010530
 ,-0.00025555,0.00003417,-0.00050846,0.00017941,0.00030428,-0.00004155,
 -0.00005487,0.00001751,-0.00001725,-0.00000617,0.00001063,0.00217737,-
 0.00286771,-0.00144828,-0.00224290,0.00307277,0.00062594,0.00169487,-0
 .00041322,-0.00051454,0.00971615,-0.00007854,-0.00140293,-0.08555688,-
 0.30111154,-0.11214525,-0.01640295,-0.00100745,0.00194207,-0.01053001,
 -0.02284531,-0.01326092,0.01145375,0.01483012,0.00877811,0.09281765,0.
 31086388,-0.00013525,-0.00036367,0.00005694,0.00050306,-0.00021329,-0.
 00015996,0.00022256,0.00005546,-0.00008579,0.00003568,-0.00010683,-0.0
 0002502,0.00016733,-0.00008621,-0.00006401,-0.00000298,-0.00000631,0.0
 0002218,0.00002428,-0.00000193,-0.00000590,0.00177632,0.00028973,-0.00
 023128,-0.00072283,0.00082358,0.00043462,0.00073776,-0.00007583,-0.000
 28418,0.00427643,-0.00024024,-0.00043991,-0.07108601,-0.14500104,-0.09
 206067,-0.00580245,0.00157737,0.00041090,0.00718596,0.01944322,0.00690
 965,0.00386575,0.00594371,-0.00403351,0.05925138,0.11487216,0.08724382
 ,0.00000578,0.00002168,-0.00006011,-0.00017821,0.00002331,-0.00006847,
 -0.00006916,-0.00009102,-0.00003105,0.00001210,-0.00000012,-0.00000858
 ,-0.00001494,0.00000087,0.00001865,0.00000163,0.00002109,0.00001058,-0
 .00000146,0.00000082,0.00000005,-0.02117366,-0.01410313,0.01667376,-0.
 00004903,0.00004629,0.00001123,0.00003659,-0.00000726,-0.00001347,0.00
 017378,-0.00000914,-0.00001459,0.00059985,0.00110629,0.00030535,-0.000
 29097,-0.00002028,0.00002350,0.00007745,-0.00002331,0.00000449,-0.3227
 2134,-0.10137206,0.20482712,-0.00209430,-0.00269961,-0.00029700,0.3456
 8590,0.00000290,-0.00000565,-0.00000998,-0.00000676,-0.00004152,0.0000
 1514,-0.00003608,0.00006395,-0.00001921,-0.00003682,-0.00000530,0.0000
 2793,0.00001584,0.00002905,-0.00001742,-0.00001230,0.00000356,-0.00001
 751,0.00000259,0.00000062,0.00000177,0.02997108,0.00892520,-0.01861025
 ,0.00002094,-0.00003270,-0.00000539,-0.00001015,0.00000608,0.00000429,
 -0.00008033,-0.00000253,0.00001243,-0.00024879,-0.00149919,-0.00131868
 ,0.00016838,0.00005091,-0.00001066,-0.00005502,0.00002119,-0.00001724,
 -0.14527401,-0.09861920,0.10927819,-0.00152708,0.00090124,0.00309011,0
 .11710558,0.09020428,0.00006580,0.00004288,-0.00004888,-0.00019955,-0.
 00003637,-0.00021187,0.00004293,-0.00007529,0.00004883,0.00002023,-0.0
 0000085,-0.00000616,-0.00008319,0.00003146,0.00008476,0.00000112,-0.00
 000014,0.00000924,-0.00000508,-0.00000011,0.00000220,-0.00163605,0.003
 72714,-0.00131572,0.00006022,0.00004337,-0.00001492,-0.00004798,-0.000
 01975,0.00000730,-0.00011899,-0.00003392,0.00000115,-0.00027806,-0.001
 85001,-0.00103071,0.00022558,0.00008718,0.00000244,-0.00003872,-0.0000
 4259,-0.00007480,0.22406334,0.08800817,-0.15197495,-0.00069016,0.00252
 238,0.00231213,-0.22138144,-0.09240354,0.15220995\\-0.00000996,-0.0000
 0748,0.00000032,0.00000364,-0.00001355,-0.00001719,0.00000399,0.000000
 08,-0.00000241,-0.00000658,-0.00000609,-0.00002635,-0.00000236,0.00000
 206,-0.00000982,-0.00000500,-0.00000529,-0.00001544,-0.00000021,0.0000
 0075,-0.00002398,-0.00001700,0.00002909,-0.00000432,-0.00000023,0.0000
 1270,0.00003996,0.00000763,-0.00000062,-0.00000583,0.00000951,0.000005
 86,0.00000031,-0.00000672,-0.00001115,0.00001591,0.00000612,-0.0000095
 5,0.00002101,0.00000126,0.00000926,0.00001960,0.00000443,-0.00002665,0
 .00000832,0.00000477,0.00000657,0.00000651,0.00000671,0.00001401,-0.00
 000659\\\@


 AND HERE I AM, FOR ALL MY LORE,
 THE WRETCHED FOOL I WAS BEFORE.
 CALLED MASTER OF ARTS, AND DOCTOR TO BOOT,
 FOR TEN YEARS ALMOST I CONFUTE
 AND UP AND DOWN, WHEREVER IT GOES
 I DRAG MY STUDENTS BY THE NOSE --
 AND SEE THAT FOR ALL OUR SCIENCE AND ART
 WE CAN KNOW NOTHING.  IT BURNS MY HEART.

                                       -- FAUST
 Job cpu time:       0 days  0 hours 34 minutes 45.7 seconds.
 Elapsed time:       0 days  0 hours  1 minutes 27.6 seconds.
 File lengths (MBytes):  RWF=    134 Int=      0 D2E=      0 Chk=     10 Scr=      1
 Normal termination of Gaussian 16 at Thu Oct 19 13:34:09 2023.
