 Entering Gaussian System, Link 0=/opt/soft/g16b/g16/g16
 Initial command:
 /opt/soft/g16b/g16/l1.exe "/scratch/gongke2021/sidanzuo-2/Gau-16796.inp" -scrdir="/scratch/gongke2021/sidanzuo-2/"
 Entering Link 1 = /opt/soft/g16b/g16/l1.exe PID=     16797.
  
 Copyright (c) 1988,1990,1992,1993,1995,1998,2003,2009,2016,
            Gaussian, Inc.  All Rights Reserved.
  
 This is part of the Gaussian(R) 16 program.  It is based on
 the Gaussian(R) 09 system (copyright 2009, Gaussian, Inc.),
 the Gaussian(R) 03 system (copyright 2003, Gaussian, Inc.),
 the Gaussian(R) 98 system (copyright 1998, Gaussian, Inc.),
 the Gaussian(R) 94 system (copyright 1995, Gaussian, Inc.),
 the Gaussian 92(TM) system (copyright 1992, Gaussian, Inc.),
 the Gaussian 90(TM) system (copyright 1990, Gaussian, Inc.),
 the Gaussian 88(TM) system (copyright 1988, Gaussian, Inc.),
 the Gaussian 86(TM) system (copyright 1986, Carnegie Mellon
 University), and the Gaussian 82(TM) system (copyright 1983,
 Carnegie Mellon University). Gaussian is a federally registered
 trademark of Gaussian, Inc.
  
 This software contains proprietary and confidential information,
 including trade secrets, belonging to Gaussian, Inc.
  
 This software is provided under written license and may be
 used, copied, transmitted, or stored only in accord with that
 written license.
  
 The following legend is applicable only to US Government
 contracts under FAR:
  
                    RESTRICTED RIGHTS LEGEND
  
 Use, reproduction and disclosure by the US Government is
 subject to restrictions as set forth in subparagraphs (a)
 and (c) of the Commercial Computer Software - Restricted
 Rights clause in FAR 52.227-19.
  
 Gaussian, Inc.
 340 Quinnipiac St., Bldg. 40, Wallingford CT 06492
  
  
 ---------------------------------------------------------------
 Warning -- This program may not be used in any manner that
 competes with the business of Gaussian, Inc. or will provide
 assistance to any competitor of Gaussian, Inc.  The licensee
 of this program is prohibited from giving any competitor of
 Gaussian, Inc. access to this program.  By using this program,
 the user acknowledges that Gaussian, Inc. is engaged in the
 business of creating and licensing software in the field of
 computational chemistry and represents and warrants to the
 licensee that it is not a competitor of Gaussian, Inc. and that
 it will not use this program in any manner prohibited above.
 ---------------------------------------------------------------
  

 Cite this work as:
 Gaussian 16, Revision A.03,
 M. J. Frisch, G. W. Trucks, H. B. Schlegel, G. E. Scuseria, 
 M. A. Robb, J. R. Cheeseman, G. Scalmani, V. Barone, 
 G. A. Petersson, H. Nakatsuji, X. Li, M. Caricato, A. V. Marenich, 
 J. Bloino, B. G. Janesko, R. Gomperts, B. Mennucci, H. P. Hratchian, 
 J. V. Ortiz, A. F. Izmaylov, J. L. Sonnenberg, D. Williams-Young, 
 F. Ding, F. Lipparini, F. Egidi, J. Goings, B. Peng, A. Petrone, 
 T. Henderson, D. Ranasinghe, V. G. Zakrzewski, J. Gao, N. Rega, 
 G. Zheng, W. Liang, M. Hada, M. Ehara, K. Toyota, R. Fukuda, 
 J. Hasegawa, M. Ishida, T. Nakajima, Y. Honda, O. Kitao, H. Nakai, 
 T. Vreven, K. Throssell, J. A. Montgomery, Jr., J. E. Peralta, 
 F. Ogliaro, M. J. Bearpark, J. J. Heyd, E. N. Brothers, K. N. Kudin, 
 V. N. Staroverov, T. A. Keith, R. Kobayashi, J. Normand, 
 K. Raghavachari, A. P. Rendell, J. C. Burant, S. S. Iyengar, 
 J. Tomasi, M. Cossi, J. M. Millam, M. Klene, C. Adamo, R. Cammi, 
 J. W. Ochterski, R. L. Martin, K. Morokuma, O. Farkas, 
 J. B. Foresman, and D. J. Fox, Gaussian, Inc., Wallingford CT, 2016.
 
 ******************************************
 Gaussian 16:  ES64L-G16RevA.03 25-Dec-2016
                 5-Nov-2023 
 ******************************************
 %mem=10GB
 %nprocshared=20
 Will use up to   20 processors via shared memory.
 -----------------------------------------------------
 # opt freq 6-31+g(d,p) scrf=(smd,solvent=water) m062x
 -----------------------------------------------------
 1/18=20,19=15,26=3,38=1/1,3;
 2/9=110,12=2,17=6,18=5,40=1/2;
 3/5=1,6=6,7=111,11=2,25=1,30=1,70=32201,71=1,72=1,74=-55/1,2,3;
 4//1;
 5/5=2,38=5,53=1/2;
 6/7=2,8=2,9=2,10=2,28=1/1;
 7//1,2,3,16;
 1/18=20,19=15,26=3/3(2);
 2/9=110/2;
 99//99;
 2/9=110/2;
 3/5=1,6=6,7=111,11=2,25=1,30=1,70=32205,71=1,72=1,74=-55/1,2,3;
 4/5=5,16=3,69=1/1;
 5/5=2,38=5,53=1/2;
 7//1,2,3,16;
 1/18=20,19=15,26=3/3(-5);
 2/9=110/2;
 6/7=2,8=2,9=2,10=2,19=2,28=1/1;
 99/9=1/99;
 -------------------
 Title Card Required
 -------------------
 Symbolic Z-matrix:
 Charge =  0 Multiplicity = 1
 N                    -0.918     0.848    -0.001 
 N                    -0.374    -0.368     0. 
 N                    -1.352    -1.204     0. 
 N                    -2.537    -0.56      0.001 
 C                    -2.248     0.726     0. 
 C                     3.38025   0.15891  -0.00821 
 O                     3.69025  -0.96109  -0.00921 
 O                     3.09925   1.28891  -0.00721 
 H                    -0.336     1.682    -0.002 
 H                    -2.941     1.552     0. 
 O                     0.91662   2.88755  -0.19154 
 H                     0.71193   3.97877  -0.17841 
 H                     2.00105   2.71166  -0.03167 
 
 Add virtual bond connecting atoms O11        and H9         Dist= 3.30D+00.
 Add virtual bond connecting atoms H13        and O8         Dist= 3.40D+00.

 GradGradGradGradGradGradGradGradGradGradGradGradGradGradGradGradGradGrad
 Berny optimization.
 Initialization pass.
                           ----------------------------
                           !    Initial Parameters    !
                           ! (Angstroms and Degrees)  !
 --------------------------                            --------------------------
 ! Name  Definition              Value          Derivative Info.                !
 --------------------------------------------------------------------------------
 ! R1    R(1,2)                  1.3321         estimate D2E/DX2                !
 ! R2    R(1,5)                  1.3356         estimate D2E/DX2                !
 ! R3    R(1,9)                  1.017          estimate D2E/DX2                !
 ! R4    R(2,3)                  1.2866         estimate D2E/DX2                !
 ! R5    R(3,4)                  1.3487         estimate D2E/DX2                !
 ! R6    R(4,5)                  1.3181         estimate D2E/DX2                !
 ! R7    R(5,10)                 1.0782         estimate D2E/DX2                !
 ! R8    R(6,7)                  1.1621         estimate D2E/DX2                !
 ! R9    R(6,8)                  1.1644         estimate D2E/DX2                !
 ! R10   R(8,13)                 1.7975         estimate D2E/DX2                !
 ! R11   R(9,11)                 1.7488         estimate D2E/DX2                !
 ! R12   R(11,12)                1.1103         estimate D2E/DX2                !
 ! R13   R(11,13)                1.1102         estimate D2E/DX2                !
 ! A1    A(2,1,5)              108.8612         estimate D2E/DX2                !
 ! A2    A(2,1,9)              120.9888         estimate D2E/DX2                !
 ! A3    A(5,1,9)              130.15           estimate D2E/DX2                !
 ! A4    A(1,2,3)              106.4218         estimate D2E/DX2                !
 ! A5    A(2,3,4)              110.9537         estimate D2E/DX2                !
 ! A6    A(3,4,5)              105.8567         estimate D2E/DX2                !
 ! A7    A(1,5,4)              107.9066         estimate D2E/DX2                !
 ! A8    A(1,5,10)             124.755          estimate D2E/DX2                !
 ! A9    A(4,5,10)             127.3384         estimate D2E/DX2                !
 ! A10   A(6,8,13)             156.2868         estimate D2E/DX2                !
 ! A11   A(9,11,12)            122.9677         estimate D2E/DX2                !
 ! A12   A(9,11,13)            125.0882         estimate D2E/DX2                !
 ! A13   A(12,11,13)           109.5165         estimate D2E/DX2                !
 ! A14   A(8,13,11)            136.4001         estimate D2E/DX2                !
 ! A15   L(7,6,8,2,-1)         181.5067         estimate D2E/DX2                !
 ! A16   L(1,9,11,7,-1)        168.8793         estimate D2E/DX2                !
 ! A17   L(7,6,8,2,-2)         179.9969         estimate D2E/DX2                !
 ! A18   L(1,9,11,7,-2)        173.6936         estimate D2E/DX2                !
 ! D1    D(5,1,2,3)              0.0727         estimate D2E/DX2                !
 ! D2    D(9,1,2,3)           -179.9474         estimate D2E/DX2                !
 ! D3    D(2,1,5,4)             -0.0283         estimate D2E/DX2                !
 ! D4    D(2,1,5,10)           179.9697         estimate D2E/DX2                !
 ! D5    D(9,1,5,4)            179.9943         estimate D2E/DX2                !
 ! D6    D(9,1,5,10)            -0.0078         estimate D2E/DX2                !
 ! D7    D(2,1,11,12)         -177.8332         estimate D2E/DX2                !
 ! D8    D(2,1,11,13)          -13.9687         estimate D2E/DX2                !
 ! D9    D(5,1,11,12)            8.0992         estimate D2E/DX2                !
 ! D10   D(5,1,11,13)          171.9637         estimate D2E/DX2                !
 ! D11   D(1,2,3,4)             -0.0903         estimate D2E/DX2                !
 ! D12   D(2,3,4,5)              0.0735         estimate D2E/DX2                !
 ! D13   D(3,4,5,1)             -0.0255         estimate D2E/DX2                !
 ! D14   D(3,4,5,10)           179.9767         estimate D2E/DX2                !
 ! D15   D(6,8,13,11)           -9.3201         estimate D2E/DX2                !
 ! D16   D(9,11,13,8)           21.2904         estimate D2E/DX2                !
 ! D17   D(12,11,13,8)        -176.0487         estimate D2E/DX2                !
 --------------------------------------------------------------------------------
 Trust Radius=3.00D-01 FncErr=1.00D-07 GrdErr=1.00D-06 EigMax=2.50D+02 EigMin=1.00D-04
 Number of steps in this run=     58 maximum allowed number of steps=    100.
 GradGradGradGradGradGradGradGradGradGradGradGradGradGradGradGradGradGrad

                          Input orientation:                          
 ---------------------------------------------------------------------
 Center     Atomic      Atomic             Coordinates (Angstroms)
 Number     Number       Type             X           Y           Z
 ---------------------------------------------------------------------
      1          7           0       -0.918000    0.848000   -0.001000
      2          7           0       -0.374000   -0.368000    0.000000
      3          7           0       -1.352000   -1.204000    0.000000
      4          7           0       -2.537000   -0.560000    0.001000
      5          6           0       -2.248000    0.726000    0.000000
      6          6           0        3.380255    0.158907   -0.008209
      7          8           0        3.690255   -0.961093   -0.009209
      8          8           0        3.099255    1.288907   -0.007209
      9          1           0       -0.336000    1.682000   -0.002000
     10          1           0       -2.941000    1.552000    0.000000
     11          8           0        0.916621    2.887552   -0.191537
     12          1           0        0.711934    3.978770   -0.178406
     13          1           0        2.001051    2.711662   -0.031669
 ---------------------------------------------------------------------
                    Distance matrix (angstroms):
                    1          2          3          4          5
     1  N    0.000000
     2  N    1.332139   0.000000
     3  N    2.097394   1.286616   0.000000
     4  N    2.145607   2.171505   1.348689   0.000000
     5  C    1.335584   2.169957   2.127843   1.318074   0.000000
     6  C    4.353148   3.791059   4.924614   5.960773   5.656758
     7  O    4.950646   4.107312   5.048111   6.240167   6.173268
     8  O    4.041383   3.848232   5.101795   5.931770   5.376807
     9  H    1.016996   2.050353   3.059617   3.141811   2.137682
    10  H    2.141996   3.205603   3.181267   2.150293   1.078205
    11  O    2.749893   3.507279   4.682320   4.883665   3.837163
    12  H    3.534102   4.483915   5.581465   5.584639   4.401539
    13  H    3.463384   3.889239   5.155226   5.594528   4.690233
                    6          7          8          9         10
     6  C    0.000000
     7  O    1.162111   0.000000
     8  O    1.164415   2.326324   0.000000
     9  H    4.016267   4.816297   3.457676   0.000000
    10  H    6.472947   7.091492   6.045986   2.608243   0.000000
    11  O    3.680843   4.747458   2.711740   1.748811   4.086762
    12  H    4.662644   5.770725   3.600551   2.530699   4.389188
    13  H    2.901604   4.042652   1.797465   2.553995   5.076385
                   11         12         13
    11  O    0.000000
    12  H    1.110327   0.000000
    13  H    1.110173   1.813537   0.000000
 Stoichiometry    C2H4N4O3
 Framework group  C1[X(C2H4N4O3)]
 Deg. of freedom    33
 Full point group                 C1      NOp   1
 Largest Abelian subgroup         C1      NOp   1
 Largest concise Abelian subgroup C1      NOp   1
                         Standard orientation:                         
 ---------------------------------------------------------------------
 Center     Atomic      Atomic             Coordinates (Angstroms)
 Number     Number       Type             X           Y           Z
 ---------------------------------------------------------------------
      1          7           0        1.338810    0.511834   -0.038614
      2          7           0        0.917830   -0.751371    0.002404
      3          7           0        1.973750   -1.485852    0.033222
      4          7           0        3.089192   -0.728047    0.011252
      5          6           0        2.674343    0.522242   -0.033419
      6          6           0       -2.870135   -0.599039   -0.013300
      7          8           0       -3.067777   -1.743521    0.026672
      8          8           0       -2.702340    0.552516   -0.053665
      9          1           0        0.677135    1.283595   -0.067796
     10          1           0        3.282190    1.412331   -0.061498
     11          8           0       -0.689557    2.364988    0.077406
     12          1           0       -0.593802    3.469991    0.026173
     13          1           0       -1.750459    2.077056   -0.077722
 ---------------------------------------------------------------------
 Rotational constants (GHZ):           2.2937819           0.7223143           0.5495946
 Standard basis: 6-31+G(d,p) (6D, 7F)
 There are   191 symmetry adapted cartesian basis functions of A   symmetry.
 There are   191 symmetry adapted basis functions of A   symmetry.
   191 basis functions,   316 primitive gaussians,   191 cartesian basis functions
    34 alpha electrons       34 beta electrons
       nuclear repulsion energy       403.5222105142 Hartrees.
 NAtoms=   13 NActive=   13 NUniq=   13 SFac= 1.00D+00 NAtFMM=   60 NAOKFM=F Big=F
 Integral buffers will be    131072 words long.
 Raffenetti 2 integral format.
 Two-electron integral symmetry is turned on.
 ------------------------------------------------------------------------------
 Polarizable Continuum Model (PCM)
 =================================
 Model                : PCM.
 Atomic radii         : SMD-Coulomb.
 Polarization charges : Total charges.
 Charge compensation  : None.
 Solution method      : On-the-fly selection.
 Cavity type          : VdW (van der Waals Surface) (Alpha=1.000).
 Cavity algorithm     : GePol (No added spheres)
                        Default sphere list used, NSphG=   13.
                        Lebedev-Laikov grids with approx.  5.0 points / Ang**2.
                        Smoothing algorithm: York/Karplus (Gamma=1.0000).
                        Polarization charges: spherical gaussians, with
                                              point-specific exponents (IZeta= 3).
                        Self-potential: point-specific (ISelfS= 7).
                        Self-field    : sphere-specific E.n sum rule (ISelfD= 2).
 1st derivatives      : Analytical E(r).r(x)/FMM algorithm (CHGder, D1EAlg=3).
                        Cavity 1st derivative terms included.
 Solvent              : Water, Eps=  78.355300 Eps(inf)=   1.777849
 ------------------------------------------------------------------------------
 Spheres list:
 ISph  on   Nord     Re0    Alpha      Xe            Ye            Ze
    1   N      1    1.8900  1.000      1.338810      0.511834     -0.038614
    2   N      2    1.8900  1.000      0.917830     -0.751371      0.002404
    3   N      3    1.8900  1.000      1.973750     -1.485852      0.033222
    4   N      4    1.8900  1.000      3.089192     -0.728047      0.011252
    5   C      5    1.8500  1.000      2.674343      0.522242     -0.033419
    6   C      6    1.8500  1.000     -2.870135     -0.599039     -0.013300
    7   O      7    1.5200  1.000     -3.067777     -1.743521      0.026672
    8   O      8    1.5200  1.000     -2.702340      0.552516     -0.053665
    9   H      9    1.2000  1.000      0.677135      1.283595     -0.067796
   10   H     10    1.2000  1.000      3.282190      1.412331     -0.061498
   11   O     11    1.5200  1.000     -0.689557      2.364988      0.077406
   12   H     12    1.2000  1.000     -0.593802      3.469991      0.026173
   13   H     13    1.2000  1.000     -1.750459      2.077056     -0.077722
 ------------------------------------------------------------------------------
 ------------------------------------------------------------------------------
 Atomic radii for non-electrostatic terms: SMD-CDS.
 ------------------------------------------------------------------------------
 Nuclear repulsion after PCM non-electrostatic terms =      403.5328750051 Hartrees.
 One-electron integrals computed using PRISM.
 NBasis=   191 RedAO= T EigKep=  3.31D-05  NBF=   191
 NBsUse=   191 1.00D-06 EigRej= -1.00D+00 NBFU=   191
 ExpMin= 4.38D-02 ExpMax= 5.48D+03 ExpMxC= 8.25D+02 IAcc=3 IRadAn=         5 AccDes= 0.00D+00
 Harris functional with IExCor= 1009 and IRadAn=       5 diagonalized for initial guess.
 HarFok:  IExCor= 1009 AccDes= 0.00D+00 IRadAn=         5 IDoV= 1 UseB2=F ITyADJ=14
 ICtDFT=  3500011 ScaDFX=  1.000000  1.000000  1.000000  1.000000
 FoFCou: FMM=F IPFlag=           0 FMFlag=      100000 FMFlg1=           0
         NFxFlg=           0 DoJE=T BraDBF=F KetDBF=T FulRan=T
         wScrn=  0.000000 ICntrl=       500 IOpCl=  0 I1Cent=   200000004 NGrid=           0
         NMat0=    1 NMatS0=      1 NMatT0=    0 NMatD0=    1 NMtDS0=    0 NMtDT0=    0
 Petite list used in FoFCou.
 Requested convergence on RMS density matrix=1.00D-08 within 128 cycles.
 Requested convergence on MAX density matrix=1.00D-06.
 Requested convergence on             energy=1.00D-06.
 No special actions if energy rises.
 Inv3:  Mode=1 IEnd=     5322672.
 Iteration    1 A*A^-1 deviation from unit magnitude is 4.22D-15 for   1332.
 Iteration    1 A*A^-1 deviation from orthogonality  is 1.53D-15 for   1332   1117.
 Iteration    1 A^-1*A deviation from unit magnitude is 4.44D-15 for   1332.
 Iteration    1 A^-1*A deviation from orthogonality  is 3.84D-14 for   1270    287.
 Error on total polarization charges =  0.03638
 SCF Done:  E(RM062X) =  -523.087121269     A.U. after   14 cycles
            NFock= 14  Conv=0.18D-08     -V/T= 2.0089
 SMD-CDS (non-electrostatic) energy       (kcal/mol) =       6.69
 (included in total energy above)

 **********************************************************************

            Population analysis using the SCF density.

 **********************************************************************

 Orbital symmetries:
       Occupied  (A) (A) (A) (A) (A) (A) (A) (A) (A) (A) (A) (A)
                 (A) (A) (A) (A) (A) (A) (A) (A) (A) (A) (A) (A)
                 (A) (A) (A) (A) (A) (A) (A) (A) (A) (A)
       Virtual   (A) (A) (A) (A) (A) (A) (A) (A) (A) (A) (A) (A)
                 (A) (A) (A) (A) (A) (A) (A) (A) (A) (A) (A) (A)
                 (A) (A) (A) (A) (A) (A) (A) (A) (A) (A) (A) (A)
                 (A) (A) (A) (A) (A) (A) (A) (A) (A) (A) (A) (A)
                 (A) (A) (A) (A) (A) (A) (A) (A) (A) (A) (A) (A)
                 (A) (A) (A) (A) (A) (A) (A) (A) (A) (A) (A) (A)
                 (A) (A) (A) (A) (A) (A) (A) (A) (A) (A) (A) (A)
                 (A) (A) (A) (A) (A) (A) (A) (A) (A) (A) (A) (A)
                 (A) (A) (A) (A) (A) (A) (A) (A) (A) (A) (A) (A)
                 (A) (A) (A) (A) (A) (A) (A) (A) (A) (A) (A) (A)
                 (A) (A) (A) (A) (A) (A) (A) (A) (A) (A) (A) (A)
                 (A) (A) (A) (A) (A) (A) (A) (A) (A) (A) (A) (A)
                 (A) (A) (A) (A) (A) (A) (A) (A) (A) (A) (A) (A)
                 (A)
 The electronic state is 1-A.
 Alpha  occ. eigenvalues --  -19.73988 -19.73777 -19.66727 -14.85781 -14.84828
 Alpha  occ. eigenvalues --  -14.83531 -14.80056 -10.76231 -10.63088  -1.29973
 Alpha  occ. eigenvalues --   -1.27248  -1.25042  -1.08514  -1.05489  -0.99977
 Alpha  occ. eigenvalues --   -0.75954  -0.74779  -0.68014  -0.66744  -0.62649
 Alpha  occ. eigenvalues --   -0.60836  -0.60770  -0.58132  -0.55933  -0.54680
 Alpha  occ. eigenvalues --   -0.47374  -0.45273  -0.45131  -0.44597  -0.40037
 Alpha  occ. eigenvalues --   -0.39083  -0.38704  -0.37646  -0.36934
 Alpha virt. eigenvalues --    0.00601   0.02471   0.03100   0.03918   0.04596
 Alpha virt. eigenvalues --    0.05408   0.05449   0.05820   0.07313   0.07722
 Alpha virt. eigenvalues --    0.08311   0.08365   0.09911   0.10691   0.13559
 Alpha virt. eigenvalues --    0.14382   0.15387   0.15532   0.16685   0.17598
 Alpha virt. eigenvalues --    0.19476   0.19755   0.20585   0.22016   0.22321
 Alpha virt. eigenvalues --    0.22519   0.23378   0.23638   0.24448   0.25098
 Alpha virt. eigenvalues --    0.25203   0.25658   0.26222   0.27518   0.28482
 Alpha virt. eigenvalues --    0.29342   0.31474   0.32242   0.32933   0.34082
 Alpha virt. eigenvalues --    0.35122   0.35590   0.38364   0.40123   0.40595
 Alpha virt. eigenvalues --    0.41374   0.43755   0.44463   0.51923   0.53964
 Alpha virt. eigenvalues --    0.71439   0.73075   0.79153   0.79360   0.83089
 Alpha virt. eigenvalues --    0.86471   0.90691   0.91028   0.92606   0.93185
 Alpha virt. eigenvalues --    0.94456   0.94952   0.96424   0.97963   0.99774
 Alpha virt. eigenvalues --    1.01017   1.01906   1.05073   1.07319   1.10451
 Alpha virt. eigenvalues --    1.12522   1.13677   1.17243   1.18406   1.19693
 Alpha virt. eigenvalues --    1.20600   1.22039   1.23215   1.27684   1.29417
 Alpha virt. eigenvalues --    1.29840   1.31290   1.31665   1.34747   1.38612
 Alpha virt. eigenvalues --    1.38940   1.40278   1.40516   1.41545   1.43667
 Alpha virt. eigenvalues --    1.47427   1.48936   1.50476   1.54988   1.56995
 Alpha virt. eigenvalues --    1.57868   1.57937   1.58856   1.62354   1.66916
 Alpha virt. eigenvalues --    1.68905   1.75624   1.77269   1.79551   1.89543
 Alpha virt. eigenvalues --    1.93793   1.97094   2.07525   2.07630   2.07905
 Alpha virt. eigenvalues --    2.10161   2.13486   2.16039   2.16684   2.18057
 Alpha virt. eigenvalues --    2.19295   2.26247   2.27232   2.29380   2.31118
 Alpha virt. eigenvalues --    2.34752   2.36717   2.41051   2.42757   2.49650
 Alpha virt. eigenvalues --    2.52958   2.53466   2.55682   2.63161   2.66773
 Alpha virt. eigenvalues --    2.69112   2.71783   2.76970   2.81228   2.84149
 Alpha virt. eigenvalues --    2.89128   2.89803   2.96130   3.02822   3.06176
 Alpha virt. eigenvalues --    3.08314   3.18866   3.28410   3.33165   3.36502
 Alpha virt. eigenvalues --    3.38392   3.48847   3.75685   3.93002   4.04545
 Alpha virt. eigenvalues --    4.13506   4.24952   4.27589   4.35427   4.59520
 Alpha virt. eigenvalues --    4.66607   4.87482
          Condensed to atoms (all electrons):
               1          2          3          4          5          6
     1  N    6.865994   0.015536   0.208981  -0.190285   0.243155   0.006723
     2  N    0.015536   6.988928  -0.068073   0.177110  -0.074314  -0.009512
     3  N    0.208981  -0.068073   6.931569   0.028705   0.002334   0.007602
     4  N   -0.190285   0.177110   0.028705   6.987451   0.366017  -0.001488
     5  C    0.243155  -0.074314   0.002334   0.366017   4.999793  -0.001563
     6  C    0.006723  -0.009512   0.007602  -0.001488  -0.001563   4.269812
     7  O    0.002530   0.003400  -0.003259  -0.000231  -0.000035   0.441625
     8  O   -0.014054   0.014532   0.004482   0.000571  -0.000327   0.459928
     9  H    0.277333  -0.014286   0.005879   0.002691  -0.012975   0.000008
    10  H   -0.057928   0.009238  -0.004144  -0.022809   0.413327  -0.000015
    11  O   -0.017588  -0.002868   0.001206  -0.003503   0.002888  -0.001184
    12  H    0.003673   0.000815  -0.000055   0.000159   0.000031  -0.000182
    13  H    0.005086  -0.002135   0.000012   0.000021  -0.000534   0.002612
               7          8          9         10         11         12
     1  N    0.002530  -0.014054   0.277333  -0.057928  -0.017588   0.003673
     2  N    0.003400   0.014532  -0.014286   0.009238  -0.002868   0.000815
     3  N   -0.003259   0.004482   0.005879  -0.004144   0.001206  -0.000055
     4  N   -0.000231   0.000571   0.002691  -0.022809  -0.003503   0.000159
     5  C   -0.000035  -0.000327  -0.012975   0.413327   0.002888   0.000031
     6  C    0.441625   0.459928   0.000008  -0.000015  -0.001184  -0.000182
     7  O    8.041024  -0.106330  -0.000006   0.000000   0.000131   0.000002
     8  O   -0.106330   8.076332  -0.000064   0.000004  -0.005088   0.000890
     9  H   -0.000006  -0.000064   0.261708   0.001334   0.004186  -0.000600
    10  H    0.000000   0.000004   0.001334   0.398104  -0.000239  -0.000005
    11  O    0.000131  -0.005088   0.004186  -0.000239   8.447892   0.242784
    12  H    0.000002   0.000890  -0.000600  -0.000005   0.242784   0.300722
    13  H    0.000018   0.001734   0.000077  -0.000000   0.235583  -0.011225
              13
     1  N    0.005086
     2  N   -0.002135
     3  N    0.000012
     4  N    0.000021
     5  C   -0.000534
     6  C    0.002612
     7  O    0.000018
     8  O    0.001734
     9  H    0.000077
    10  H   -0.000000
    11  O    0.235583
    12  H   -0.011225
    13  H    0.294579
 Mulliken charges:
               1
     1  N   -0.349156
     2  N   -0.038370
     3  N   -0.115238
     4  N   -0.344408
     5  C    0.062203
     6  C    0.825634
     7  O   -0.378868
     8  O   -0.432609
     9  H    0.474715
    10  H    0.263134
    11  O   -0.904199
    12  H    0.462991
    13  H    0.474171
 Sum of Mulliken charges =  -0.00000
 Mulliken charges with hydrogens summed into heavy atoms:
               1
     1  N    0.125558
     2  N   -0.038370
     3  N   -0.115238
     4  N   -0.344408
     5  C    0.325337
     6  C    0.825634
     7  O   -0.378868
     8  O   -0.432609
    11  O    0.032963
 Electronic spatial extent (au):  <R**2>=           1816.6845
 Charge=             -0.0000 electrons
 Dipole moment (field-independent basis, Debye):
    X=             -4.1354    Y=              9.3050    Z=             -0.7036  Tot=             10.2068
 Quadrupole moment (field-independent basis, Debye-Ang):
   XX=            -52.7488   YY=            -45.7578   ZZ=            -52.0456
   XY=              9.1780   XZ=              0.1316   YZ=             -0.8645
 Traceless Quadrupole moment (field-independent basis, Debye-Ang):
   XX=             -2.5647   YY=              4.4262   ZZ=             -1.8615
   XY=              9.1780   XZ=              0.1316   YZ=             -0.8645
 Octapole moment (field-independent basis, Debye-Ang**2):
  XXX=            -75.0458  YYY=             90.1650  ZZZ=             -0.5332  XYY=            -13.5605
  XXY=             59.0327  XXZ=             -2.4709  XZZ=            -10.2865  YZZ=             -0.1900
  YYZ=             -2.8950  XYZ=              0.7289
 Hexadecapole moment (field-independent basis, Debye-Ang**3):
 XXXX=          -1749.1559 YYYY=           -368.1653 ZZZZ=            -48.5725 XXXY=            115.2667
 XXXZ=             -2.2014 YYYX=            -14.1303 YYYZ=             -3.8056 ZZZX=              0.4311
 ZZZY=             -0.6445 XXYY=           -398.3377 XXZZ=           -284.4026 YYZZ=           -109.3574
 XXYZ=             -0.7857 YYXZ=              2.1196 ZZXY=              7.4720
 N-N= 4.035328750051D+02 E-N=-2.031331408220D+03  KE= 5.184488789850D+02
 D1PCM: PCM CHGder 1st derivatives, ID1Alg=3 FixD1E=F DoIter=F DoCFld=F I1PDM=0.
 Calling FoFJK, ICntrl=      2127 FMM=F ISym2X=0 I1Cent= 0 IOpClX= 0 NMat=1 NMatS=1 NMatT=0.
 ***** Axes restored to original set *****
 -------------------------------------------------------------------
 Center     Atomic                   Forces (Hartrees/Bohr)
 Number     Number              X              Y              Z
 -------------------------------------------------------------------
      1        7          -0.008997460   -0.008836537    0.000921745
      2        7           0.000210739    0.002632833   -0.000263759
      3        7          -0.002016087   -0.001447256    0.000261106
      4        7          -0.001644971   -0.002285833   -0.000227785
      5        6           0.003470612   -0.001468868    0.000129396
      6        6           0.003224581   -0.002093291    0.000065887
      7        8          -0.002805229    0.002998807   -0.000020300
      8        8           0.005014659   -0.006464285    0.000450631
      9        1           0.010240332    0.010748180   -0.000821219
     10        1          -0.000264737   -0.000013767   -0.000019800
     11        8           0.061087543    0.073491490    0.011924077
     12        1           0.023623742   -0.090084046    0.000268524
     13        1          -0.091143725    0.022822572   -0.012668503
 -------------------------------------------------------------------
 Cartesian Forces:  Max     0.091143725 RMS     0.026531055

 GradGradGradGradGradGradGradGradGradGradGradGradGradGradGradGradGradGrad
 Berny optimization.
 FormGI is forming the generalized inverse of G from B-inverse, IUseBI=4.
 Internal  Forces:  Max     0.092880061 RMS     0.018745217
 Search for a local minimum.
 Step number   1 out of a maximum of   58
 All quantities printed in internal units (Hartrees-Bohrs-Radians)
 Mixed Optimization -- RFO/linear search
 Second derivative matrix not updated -- first step.
 ITU=  0
     Eigenvalues ---    0.00230   0.00230   0.00230   0.00230   0.00230
     Eigenvalues ---    0.00477   0.01808   0.02389   0.02484   0.02629
     Eigenvalues ---    0.04805   0.04808   0.06143   0.06735   0.15766
     Eigenvalues ---    0.15992   0.16000   0.16000   0.16000   0.22568
     Eigenvalues ---    0.24678   0.24980   0.32565   0.32582   0.36212
     Eigenvalues ---    0.44807   0.49794   0.54528   0.57010   0.60692
     Eigenvalues ---    0.68515   1.24947   1.26422
 RFO step:  Lambda=-4.61251138D-02 EMin= 2.30000000D-03
 Linear search not attempted -- first point.
 Maximum step size (   0.300) exceeded in Quadratic search.
    -- Step size scaled by   0.825
 Iteration  1 RMS(Cart)=  0.08582304 RMS(Int)=  0.00181450
 Iteration  2 RMS(Cart)=  0.00222890 RMS(Int)=  0.00009523
 Iteration  3 RMS(Cart)=  0.00000716 RMS(Int)=  0.00009511
 Iteration  4 RMS(Cart)=  0.00000000 RMS(Int)=  0.00009511
 Variable       Old X    -DE/DX   Delta X   Delta X   Delta X     New X
                                 (Linear)    (Quad)   (Total)
    R1        2.51738  -0.00084   0.00000  -0.00110  -0.00110   2.51627
    R2        2.52389  -0.00060   0.00000  -0.00091  -0.00091   2.52298
    R3        1.92184   0.01472   0.00000   0.02456   0.02456   1.94640
    R4        2.43135   0.00244   0.00000   0.00275   0.00275   2.43410
    R5        2.54865  -0.00096   0.00000  -0.00123  -0.00123   2.54742
    R6        2.49080   0.00202   0.00000   0.00243   0.00243   2.49323
    R7        2.03751   0.00015   0.00000   0.00030   0.00030   2.03782
    R8        2.19607  -0.00365   0.00000  -0.00230  -0.00230   2.19377
    R9        2.20043  -0.00080   0.00000  -0.00051  -0.00051   2.19991
   R10        3.39672   0.00770   0.00000   0.05908   0.05908   3.45580
   R11        3.30477  -0.00025   0.00000  -0.00180  -0.00180   3.30297
   R12        2.09821  -0.09288   0.00000  -0.20619  -0.20619   1.89202
   R13        2.09792  -0.08821   0.00000  -0.19573  -0.19573   1.90219
    A1        1.89999  -0.00183   0.00000  -0.00603  -0.00604   1.89394
    A2        2.11165  -0.00123   0.00000  -0.00558  -0.00558   2.10607
    A3        2.27155   0.00306   0.00000   0.01161   0.01162   2.28317
    A4        1.85741   0.00150   0.00000   0.00439   0.00440   1.86181
    A5        1.93651  -0.00049   0.00000  -0.00089  -0.00089   1.93562
    A6        1.84755  -0.00134   0.00000  -0.00373  -0.00373   1.84382
    A7        1.88333   0.00215   0.00000   0.00626   0.00627   1.88959
    A8        2.17739  -0.00085   0.00000  -0.00222  -0.00222   2.17516
    A9        2.22247  -0.00130   0.00000  -0.00404  -0.00404   2.21843
   A10        2.72772  -0.00272   0.00000  -0.01088  -0.01089   2.71683
   A11        2.14619   0.00667   0.00000   0.02587   0.02582   2.17201
   A12        2.18320   0.00026   0.00000  -0.00013  -0.00010   2.18310
   A13        1.91142  -0.00721   0.00000  -0.03012  -0.03007   1.88135
   A14        2.38063   0.00078   0.00000   0.00217   0.00215   2.38278
   A15        3.16789  -0.00415   0.00000  -0.03635  -0.03635   3.13154
   A16        2.94750  -0.00242   0.00000  -0.04111  -0.04112   2.90638
   A17        3.14154  -0.00001   0.00000  -0.00006  -0.00005   3.14149
   A18        3.03153   0.00032   0.00000   0.00628   0.00597   3.03750
    D1        0.00127  -0.00009   0.00000  -0.00161  -0.00166  -0.00039
    D2       -3.14068   0.00003   0.00000   0.00089   0.00093  -3.13975
    D3       -0.00049   0.00001   0.00000   0.00064   0.00070   0.00020
    D4        3.14106   0.00008   0.00000   0.00144   0.00149  -3.14063
    D5        3.14149  -0.00012   0.00000  -0.00215  -0.00224   3.13926
    D6       -0.00014  -0.00005   0.00000  -0.00135  -0.00144  -0.00158
    D7       -3.10377   0.00087   0.00000   0.01288   0.01311  -3.09066
    D8       -0.24380  -0.00091   0.00000  -0.01085  -0.01087  -0.25467
    D9        0.14136   0.00085   0.00000   0.01004   0.01008   0.15144
   D10        3.00133  -0.00093   0.00000  -0.01369  -0.01390   2.98743
   D11       -0.00158   0.00014   0.00000   0.00197   0.00201   0.00043
   D12        0.00128  -0.00013   0.00000  -0.00160  -0.00159  -0.00031
   D13       -0.00044   0.00007   0.00000   0.00053   0.00050   0.00006
   D14        3.14119  -0.00000   0.00000  -0.00029  -0.00032   3.14086
   D15       -0.16267  -0.00011   0.00000  -0.00191  -0.00189  -0.16456
   D16        0.37159  -0.00059   0.00000  -0.00384  -0.00413   0.36746
   D17       -3.07263  -0.00051   0.00000  -0.01503  -0.01469  -3.08732
         Item               Value     Threshold  Converged?
 Maximum Force            0.092880     0.000450     NO 
 RMS     Force            0.018745     0.000300     NO 
 Maximum Displacement     0.321872     0.001800     NO 
 RMS     Displacement     0.086237     0.001200     NO 
 Predicted change in Energy=-2.445384D-02
 GradGradGradGradGradGradGradGradGradGradGradGradGradGradGradGradGradGrad

                          Input orientation:                          
 ---------------------------------------------------------------------
 Center     Atomic      Atomic             Coordinates (Angstroms)
 Number     Number       Type             X           Y           Z
 ---------------------------------------------------------------------
      1          7           0       -0.891628    0.874721   -0.006414
      2          7           0       -0.308642   -0.322358   -0.019433
      3          7           0       -1.256088   -1.194947   -0.011500
      4          7           0       -2.462859   -0.594452    0.006093
      5          6           0       -2.215354    0.701480    0.009086
      6          6           0        3.277715    0.151671   -0.001304
      7          8           0        3.519928   -0.983653    0.005434
      8          8           0        3.023392    1.287675   -0.007999
      9          1           0       -0.325252    1.735000   -0.011201
     10          1           0       -2.937993    1.501806    0.021044
     11          8           0        0.944320    2.922091   -0.195605
     12          1           0        0.801325    3.912733   -0.170801
     13          1           0        1.924505    2.748938   -0.045638
 ---------------------------------------------------------------------
                    Distance matrix (angstroms):
                    1          2          3          4          5
     1  N    0.000000
     2  N    1.331555   0.000000
     3  N    2.101520   1.288072   0.000000
     4  N    2.151138   2.171483   1.348036   0.000000
     5  C    1.335105   2.164396   2.125336   1.319359   0.000000
     6  C    4.231577   3.617595   4.729572   5.788864   5.520526
     7  O    4.787015   3.885341   4.780717   5.995433   5.977721
     8  O    3.936739   3.700647   4.947461   5.800134   5.271468
     9  H    1.029992   2.057441   3.074256   3.161647   2.154312
    10  H    2.140468   3.200422   3.178419   2.149483   1.078365
    11  O    2.756487   3.482441   4.671798   4.900574   3.867370
    12  H    3.481756   4.380745   5.508786   5.567845   4.409632
    13  H    3.383021   3.797432   5.066712   5.516330   4.618822
                    6          7          8          9         10
     6  C    0.000000
     7  O    1.160893   0.000000
     8  O    1.164144   2.325008   0.000000
     9  H    3.935531   4.709221   3.378391   0.000000
    10  H    6.360691   6.919718   5.965300   2.623325   0.000000
    11  O    3.627356   4.682842   2.651236   1.747857   4.139625
    12  H    4.506310   5.603254   3.443111   2.457065   4.453298
    13  H    2.928982   4.059583   1.828731   2.467927   5.020326
                   11         12         13
    11  O    0.000000
    12  H    1.001216   0.000000
    13  H    1.006596   1.622227   0.000000
 Stoichiometry    C2H4N4O3
 Framework group  C1[X(C2H4N4O3)]
 Deg. of freedom    33
 Full point group                 C1      NOp   1
 Largest Abelian subgroup         C1      NOp   1
 Largest concise Abelian subgroup C1      NOp   1
                         Standard orientation:                         
 ---------------------------------------------------------------------
 Center     Atomic      Atomic             Coordinates (Angstroms)
 Number     Number       Type             X           Y           Z
 ---------------------------------------------------------------------
      1          7           0        1.298292    0.550263   -0.036365
      2          7           0        0.853611   -0.703612    0.019272
      3          7           0        1.893223   -1.463729    0.042883
      4          7           0        3.024853   -0.732209    0.004229
      5          6           0        2.633160    0.526695   -0.045207
      6          6           0       -2.763193   -0.637259   -0.017022
      7          8           0       -2.876128   -1.792152    0.016776
      8          8           0       -2.638301    0.519670   -0.050884
      9          1           0        0.638726    1.340940   -0.062549
     10          1           0        3.261232    1.402350   -0.085543
     11          8           0       -0.757113    2.383364    0.078839
     12          1           0       -0.726351    3.382296    0.018659
     13          1           0       -1.710935    2.095756   -0.065171
 ---------------------------------------------------------------------
 Rotational constants (GHZ):           2.2671236           0.7720445           0.5762338
 Standard basis: 6-31+G(d,p) (6D, 7F)
 There are   191 symmetry adapted cartesian basis functions of A   symmetry.
 There are   191 symmetry adapted basis functions of A   symmetry.
   191 basis functions,   316 primitive gaussians,   191 cartesian basis functions
    34 alpha electrons       34 beta electrons
       nuclear repulsion energy       407.9975999673 Hartrees.
 NAtoms=   13 NActive=   13 NUniq=   13 SFac= 1.00D+00 NAtFMM=   60 NAOKFM=F Big=F
 Integral buffers will be    131072 words long.
 Raffenetti 2 integral format.
 Two-electron integral symmetry is turned on.
 ------------------------------------------------------------------------------
 Polarizable Continuum Model (PCM)
 =================================
 Model                : PCM.
 Atomic radii         : SMD-Coulomb.
 Polarization charges : Total charges.
 Charge compensation  : None.
 Solution method      : On-the-fly selection.
 Cavity type          : VdW (van der Waals Surface) (Alpha=1.000).
 Cavity algorithm     : GePol (No added spheres)
                        Default sphere list used, NSphG=   13.
                        Lebedev-Laikov grids with approx.  5.0 points / Ang**2.
                        Smoothing algorithm: York/Karplus (Gamma=1.0000).
                        Polarization charges: spherical gaussians, with
                                              point-specific exponents (IZeta= 3).
                        Self-potential: point-specific (ISelfS= 7).
                        Self-field    : sphere-specific E.n sum rule (ISelfD= 2).
 1st derivatives      : Analytical E(r).r(x)/FMM algorithm (CHGder, D1EAlg=3).
                        Cavity 1st derivative terms included.
 Solvent              : Water, Eps=  78.355300 Eps(inf)=   1.777849
 ------------------------------------------------------------------------------
 Spheres list:
 ISph  on   Nord     Re0    Alpha      Xe            Ye            Ze
    1   N      1    1.8900  1.000      1.298292      0.550263     -0.036365
    2   N      2    1.8900  1.000      0.853611     -0.703612      0.019272
    3   N      3    1.8900  1.000      1.893223     -1.463729      0.042883
    4   N      4    1.8900  1.000      3.024853     -0.732209      0.004229
    5   C      5    1.8500  1.000      2.633160      0.526695     -0.045207
    6   C      6    1.8500  1.000     -2.763193     -0.637259     -0.017022
    7   O      7    1.5200  1.000     -2.876128     -1.792152      0.016776
    8   O      8    1.5200  1.000     -2.638301      0.519670     -0.050884
    9   H      9    1.2000  1.000      0.638726      1.340940     -0.062549
   10   H     10    1.2000  1.000      3.261232      1.402350     -0.085543
   11   O     11    1.5200  1.000     -0.757113      2.383364      0.078839
   12   H     12    1.2000  1.000     -0.726351      3.382296      0.018659
   13   H     13    1.2000  1.000     -1.710935      2.095756     -0.065171
 ------------------------------------------------------------------------------
 ------------------------------------------------------------------------------
 Atomic radii for non-electrostatic terms: SMD-CDS.
 ------------------------------------------------------------------------------
 Nuclear repulsion after PCM non-electrostatic terms =      408.0079299469 Hartrees.
 One-electron integrals computed using PRISM.
 NBasis=   191 RedAO= T EigKep=  3.18D-05  NBF=   191
 NBsUse=   191 1.00D-06 EigRej= -1.00D+00 NBFU=   191
 Initial guess from the checkpoint file:  "/scratch/gongke2021/sidanzuo-2/Gau-16797.chk"
 B after Tr=     0.000000    0.000000    0.000000
         Rot=    0.999974    0.000099    0.000164   -0.007207 Ang=   0.83 deg.
 ExpMin= 4.38D-02 ExpMax= 5.48D+03 ExpMxC= 8.25D+02 IAcc=2 IRadAn=         4 AccDes= 0.00D+00
 Harris functional with IExCor= 1009 and IRadAn=       4 diagonalized for initial guess.
 HarFok:  IExCor= 1009 AccDes= 0.00D+00 IRadAn=         4 IDoV= 1 UseB2=F ITyADJ=14
 ICtDFT=  3500011 ScaDFX=  1.000000  1.000000  1.000000  1.000000
 FoFCou: FMM=F IPFlag=           0 FMFlag=      100000 FMFlg1=           0
         NFxFlg=           0 DoJE=T BraDBF=F KetDBF=T FulRan=T
         wScrn=  0.000000 ICntrl=       500 IOpCl=  0 I1Cent=   200000004 NGrid=           0
         NMat0=    1 NMatS0=      1 NMatT0=    0 NMatD0=    1 NMtDS0=    0 NMtDT0=    0
 Petite list used in FoFCou.
 Requested convergence on RMS density matrix=1.00D-08 within 128 cycles.
 Requested convergence on MAX density matrix=1.00D-06.
 Requested convergence on             energy=1.00D-06.
 No special actions if energy rises.
 Inv3:  Mode=1 IEnd=     5314683.
 Iteration    1 A*A^-1 deviation from unit magnitude is 3.11D-15 for   1304.
 Iteration    1 A*A^-1 deviation from orthogonality  is 1.60D-15 for   1327   1277.
 Iteration    1 A^-1*A deviation from unit magnitude is 3.11D-15 for   1304.
 Iteration    1 A^-1*A deviation from orthogonality  is 1.19D-08 for    360    282.
 Iteration    2 A*A^-1 deviation from unit magnitude is 2.00D-15 for    252.
 Iteration    2 A*A^-1 deviation from orthogonality  is 1.53D-15 for    449    200.
 Iteration    2 A^-1*A deviation from unit magnitude is 1.22D-15 for    204.
 Iteration    2 A^-1*A deviation from orthogonality  is 1.26D-15 for   1304      8.
 Error on total polarization charges =  0.03524
 SCF Done:  E(RM062X) =  -523.114698898     A.U. after   12 cycles
            NFock= 12  Conv=0.92D-08     -V/T= 2.0085
 SMD-CDS (non-electrostatic) energy       (kcal/mol) =       6.48
 (included in total energy above)
 D1PCM: PCM CHGder 1st derivatives, ID1Alg=3 FixD1E=F DoIter=F DoCFld=F I1PDM=0.
 Calling FoFJK, ICntrl=      2127 FMM=F ISym2X=0 I1Cent= 0 IOpClX= 0 NMat=1 NMatS=1 NMatT=0.
 ***** Axes restored to original set *****
 -------------------------------------------------------------------
 Center     Atomic                   Forces (Hartrees/Bohr)
 Number     Number              X              Y              Z
 -------------------------------------------------------------------
      1        7          -0.004135467   -0.003125102    0.000679802
      2        7           0.001801720    0.000434117    0.000064767
      3        7          -0.000402757   -0.000194770   -0.000040995
      4        7           0.000051076   -0.000004674   -0.000034452
      5        6           0.000583939    0.000221694    0.000075321
      6        6          -0.003182312   -0.000452266    0.000058457
      7        8           0.000949814    0.000307553   -0.000035056
      8        8           0.008149341   -0.006603674    0.000521057
      9        1           0.003685721    0.002070475   -0.000714674
     10        1          -0.000228030   -0.000046949    0.000003729
     11        8           0.024148803    0.028329230    0.004702013
     12        1           0.006786776   -0.031874531   -0.000120633
     13        1          -0.038208624    0.010938897   -0.005159336
 -------------------------------------------------------------------
 Cartesian Forces:  Max     0.038208624 RMS     0.010435994

 GradGradGradGradGradGradGradGradGradGradGradGradGradGradGradGradGradGrad
 Berny optimization.
 Using GEDIIS/GDIIS optimizer.
 FormGI is forming the generalized inverse of G from B-inverse, IUseBI=4.
 Internal  Forces:  Max     0.032844941 RMS     0.006896454
 Search for a local minimum.
 Step number   2 out of a maximum of   58
 All quantities printed in internal units (Hartrees-Bohrs-Radians)
 Mixed Optimization -- RFO/linear search
 Update second derivatives using D2CorX and points    1    2
 DE= -2.76D-02 DEPred=-2.45D-02 R= 1.13D+00
 TightC=F SS=  1.41D+00  RLast= 3.01D-01 DXNew= 5.0454D-01 9.0412D-01
 Trust test= 1.13D+00 RLast= 3.01D-01 DXMaxT set to 5.05D-01
 ITU=  1  0
 Use linear search instead of GDIIS.
     Eigenvalues ---    0.00230   0.00230   0.00230   0.00230   0.00230
     Eigenvalues ---    0.00499   0.01808   0.02390   0.02485   0.02628
     Eigenvalues ---    0.04804   0.04857   0.05981   0.06734   0.15625
     Eigenvalues ---    0.15932   0.15998   0.16000   0.16065   0.22556
     Eigenvalues ---    0.24675   0.24974   0.29364   0.32654   0.36212
     Eigenvalues ---    0.44884   0.49828   0.54495   0.57022   0.60693
     Eigenvalues ---    0.68526   1.24947   1.26444
 RFO step:  Lambda=-1.94147250D-03 EMin= 2.29789368D-03
 Quartic linear search produced a step of  0.36458.
 Iteration  1 RMS(Cart)=  0.11823952 RMS(Int)=  0.00298174
 Iteration  2 RMS(Cart)=  0.00634731 RMS(Int)=  0.00031833
 Iteration  3 RMS(Cart)=  0.00000660 RMS(Int)=  0.00031829
 Iteration  4 RMS(Cart)=  0.00000000 RMS(Int)=  0.00031829
 Variable       Old X    -DE/DX   Delta X   Delta X   Delta X     New X
                                 (Linear)    (Quad)   (Total)
    R1        2.51627   0.00027  -0.00040   0.00114   0.00073   2.51701
    R2        2.52298  -0.00050  -0.00033  -0.00083  -0.00116   2.52182
    R3        1.94640   0.00358   0.00895  -0.00274   0.00622   1.95262
    R4        2.43410   0.00043   0.00100  -0.00046   0.00055   2.43465
    R5        2.54742   0.00013  -0.00045   0.00106   0.00062   2.54804
    R6        2.49323   0.00008   0.00089  -0.00108  -0.00019   2.49304
    R7        2.03782   0.00012   0.00011   0.00025   0.00036   2.03818
    R8        2.19377  -0.00011  -0.00084   0.00090   0.00006   2.19384
    R9        2.19991  -0.00035  -0.00019  -0.00016  -0.00035   2.19957
   R10        3.45580   0.00895   0.02154   0.09863   0.12017   3.57598
   R11        3.30297  -0.00055  -0.00066  -0.00819  -0.00885   3.29412
   R12        1.89202  -0.03251  -0.07517  -0.00823  -0.08340   1.80862
   R13        1.90219  -0.03284  -0.07136  -0.01604  -0.08739   1.81480
    A1        1.89394   0.00068  -0.00220   0.00810   0.00592   1.89986
    A2        2.10607  -0.00205  -0.00203  -0.01110  -0.01313   2.09295
    A3        2.28317   0.00137   0.00424   0.00300   0.00721   2.29038
    A4        1.86181  -0.00060   0.00160  -0.00621  -0.00462   1.85718
    A5        1.93562   0.00004  -0.00032   0.00131   0.00099   1.93660
    A6        1.84382   0.00017  -0.00136   0.00360   0.00224   1.84606
    A7        1.88959  -0.00030   0.00228  -0.00681  -0.00453   1.88506
    A8        2.17516   0.00036  -0.00081   0.00437   0.00357   2.17873
    A9        2.21843  -0.00006  -0.00147   0.00243   0.00096   2.21939
   A10        2.71683  -0.00265  -0.00397  -0.01303  -0.01700   2.69984
   A11        2.17201   0.00369   0.00941   0.01750   0.02581   2.19782
   A12        2.18310  -0.00350  -0.00004  -0.02124  -0.02240   2.16069
   A13        1.88135  -0.00038  -0.01096   0.03083   0.01870   1.90005
   A14        2.38278   0.00000   0.00078  -0.00147  -0.00064   2.38214
   A15        3.13154   0.00219  -0.01325   0.12930   0.11605   3.24759
   A16        2.90638  -0.00257  -0.01499  -0.06765  -0.08263   2.82376
   A17        3.14149   0.00001  -0.00002   0.00040   0.00033   3.14182
   A18        3.03750   0.00038   0.00218   0.00622   0.00905   3.04654
    D1       -0.00039  -0.00001  -0.00060   0.00489   0.00444   0.00405
    D2       -3.13975   0.00012   0.00034   0.00341   0.00358  -3.13617
    D3        0.00020   0.00001   0.00025  -0.00176  -0.00166  -0.00146
    D4       -3.14063   0.00005   0.00054  -0.00221  -0.00181   3.14075
    D5        3.13926  -0.00015  -0.00082  -0.00010  -0.00070   3.13856
    D6       -0.00158  -0.00010  -0.00053  -0.00054  -0.00085  -0.00242
    D7       -3.09066   0.00060   0.00478  -0.04425  -0.03991  -3.13057
    D8       -0.25467  -0.00040  -0.00396   0.06372   0.05960  -0.19506
    D9        0.15144   0.00042   0.00367  -0.04556  -0.04182   0.10962
   D10        2.98743  -0.00059  -0.00507   0.06241   0.05770   3.04513
   D11        0.00043   0.00001   0.00073  -0.00624  -0.00559  -0.00516
   D12       -0.00031  -0.00000  -0.00058   0.00516   0.00460   0.00429
   D13        0.00006  -0.00001   0.00018  -0.00193  -0.00166  -0.00161
   D14        3.14086  -0.00005  -0.00012  -0.00147  -0.00151   3.13935
   D15       -0.16456  -0.00010  -0.00069   0.00444   0.00370  -0.16085
   D16        0.36746  -0.00066  -0.00150  -0.05450  -0.05592   0.31154
   D17       -3.08732  -0.00048  -0.00536   0.03824   0.03265  -3.05467
         Item               Value     Threshold  Converged?
 Maximum Force            0.032845     0.000450     NO 
 RMS     Force            0.006896     0.000300     NO 
 Maximum Displacement     0.347529     0.001800     NO 
 RMS     Displacement     0.122446     0.001200     NO 
 Predicted change in Energy=-4.820621D-03
 GradGradGradGradGradGradGradGradGradGradGradGradGradGradGradGradGradGrad

                          Input orientation:                          
 ---------------------------------------------------------------------
 Center     Atomic      Atomic             Coordinates (Angstroms)
 Number     Number       Type             X           Y           Z
 ---------------------------------------------------------------------
      1          7           0       -0.866826    0.933664   -0.000200
      2          7           0       -0.194675   -0.216243   -0.001387
      3          7           0       -1.077990   -1.154125   -0.004435
      4          7           0       -2.325287   -0.641967    0.001215
      5          6           0       -2.174738    0.668672    0.002522
      6          6           0        3.093811    0.055898   -0.007915
      7          8           0        3.387336   -1.067241    0.004452
      8          8           0        2.920313    1.206782   -0.020991
      9          1           0       -0.353700    1.830531   -0.002624
     10          1           0       -2.954308    1.414025    0.004742
     11          8           0        0.936678    2.990707   -0.168664
     12          1           0        0.837352    3.942466   -0.185860
     13          1           0        1.865404    2.777536   -0.049091
 ---------------------------------------------------------------------
                    Distance matrix (angstroms):
                    1          2          3          4          5
     1  N    0.000000
     2  N    1.331944   0.000000
     3  N    2.098445   1.288362   0.000000
     4  N    2.147026   2.172729   1.348365   0.000000
     5  C    1.334489   2.168810   2.127320   1.319257   0.000000
     6  C    4.056745   3.299734   4.343742   5.463856   5.304074
     7  O    4.701228   3.681717   4.466180   5.728432   5.826668
     8  O    3.797032   3.424695   4.643337   5.561896   5.123442
     9  H    1.033284   2.052943   3.071282   3.162343   2.160121
    10  H    2.142044   3.205212   3.180573   2.150066   1.078558
    11  O    2.740882   3.404772   4.611452   4.885243   3.886137
    12  H    3.462886   4.288819   5.447631   5.572639   4.452628
    13  H    3.296564   3.634407   4.911570   5.409013   4.557709
                    6          7          8          9         10
     6  C    0.000000
     7  O    1.160928   0.000000
     8  O    1.163961   2.321624   0.000000
     9  H    3.877458   4.732070   3.332951   0.000000
    10  H    6.198743   6.809782   5.878332   2.633760   0.000000
    11  O    3.645842   4.743695   2.671891   1.743173   4.201877
    12  H    4.497630   5.624572   3.442365   2.431552   4.561362
    13  H    2.986301   4.135391   1.892325   2.413172   5.009160
                   11         12         13
    11  O    0.000000
    12  H    0.957082   0.000000
    13  H    0.960349   1.559698   0.000000
 Stoichiometry    C2H4N4O3
 Framework group  C1[X(C2H4N4O3)]
 Deg. of freedom    33
 Full point group                 C1      NOp   1
 Largest Abelian subgroup         C1      NOp   1
 Largest concise Abelian subgroup C1      NOp   1
                         Standard orientation:                         
 ---------------------------------------------------------------------
 Center     Atomic      Atomic             Coordinates (Angstroms)
 Number     Number       Type             X           Y           Z
 ---------------------------------------------------------------------
      1          7           0        1.282176    0.587988   -0.038490
      2          7           0        0.720954   -0.619351   -0.000575
      3          7           0        1.688390   -1.469430    0.035620
      4          7           0        2.882107   -0.842747    0.015729
      5          6           0        2.609184    0.447179   -0.029484
      6          6           0       -2.578545   -0.657496   -0.010431
      7          8           0       -2.765259   -1.803052    0.013891
      8          8           0       -2.513935    0.504406   -0.035235
      9          1           0        0.687109    1.432237   -0.067027
     10          1           0        3.315336    1.262041   -0.054743
     11          8           0       -0.707360    2.470798    0.057475
     12          1           0       -0.697920    3.427728    0.043242
     13          1           0       -1.611318    2.167446   -0.057017
 ---------------------------------------------------------------------
 Rotational constants (GHZ):           2.1823844           0.8505268           0.6122219
 Standard basis: 6-31+G(d,p) (6D, 7F)
 There are   191 symmetry adapted cartesian basis functions of A   symmetry.
 There are   191 symmetry adapted basis functions of A   symmetry.
   191 basis functions,   316 primitive gaussians,   191 cartesian basis functions
    34 alpha electrons       34 beta electrons
       nuclear repulsion energy       413.1788295802 Hartrees.
 NAtoms=   13 NActive=   13 NUniq=   13 SFac= 1.00D+00 NAtFMM=   60 NAOKFM=F Big=F
 Integral buffers will be    131072 words long.
 Raffenetti 2 integral format.
 Two-electron integral symmetry is turned on.
 ------------------------------------------------------------------------------
 Polarizable Continuum Model (PCM)
 =================================
 Model                : PCM.
 Atomic radii         : SMD-Coulomb.
 Polarization charges : Total charges.
 Charge compensation  : None.
 Solution method      : On-the-fly selection.
 Cavity type          : VdW (van der Waals Surface) (Alpha=1.000).
 Cavity algorithm     : GePol (No added spheres)
                        Default sphere list used, NSphG=   13.
                        Lebedev-Laikov grids with approx.  5.0 points / Ang**2.
                        Smoothing algorithm: York/Karplus (Gamma=1.0000).
                        Polarization charges: spherical gaussians, with
                                              point-specific exponents (IZeta= 3).
                        Self-potential: point-specific (ISelfS= 7).
                        Self-field    : sphere-specific E.n sum rule (ISelfD= 2).
 1st derivatives      : Analytical E(r).r(x)/FMM algorithm (CHGder, D1EAlg=3).
                        Cavity 1st derivative terms included.
 Solvent              : Water, Eps=  78.355300 Eps(inf)=   1.777849
 ------------------------------------------------------------------------------
 Spheres list:
 ISph  on   Nord     Re0    Alpha      Xe            Ye            Ze
    1   N      1    1.8900  1.000      1.282176      0.587988     -0.038490
    2   N      2    1.8900  1.000      0.720954     -0.619351     -0.000575
    3   N      3    1.8900  1.000      1.688390     -1.469430      0.035620
    4   N      4    1.8900  1.000      2.882107     -0.842747      0.015729
    5   C      5    1.8500  1.000      2.609184      0.447179     -0.029484
    6   C      6    1.8500  1.000     -2.578545     -0.657496     -0.010431
    7   O      7    1.5200  1.000     -2.765259     -1.803052      0.013891
    8   O      8    1.5200  1.000     -2.513935      0.504406     -0.035235
    9   H      9    1.2000  1.000      0.687109      1.432237     -0.067027
   10   H     10    1.2000  1.000      3.315336      1.262041     -0.054743
   11   O     11    1.5200  1.000     -0.707360      2.470798      0.057475
   12   H     12    1.2000  1.000     -0.697920      3.427728      0.043242
   13   H     13    1.2000  1.000     -1.611318      2.167446     -0.057017
 ------------------------------------------------------------------------------
 ------------------------------------------------------------------------------
 Atomic radii for non-electrostatic terms: SMD-CDS.
 ------------------------------------------------------------------------------
 Nuclear repulsion after PCM non-electrostatic terms =      413.1888264370 Hartrees.
 One-electron integrals computed using PRISM.
 NBasis=   191 RedAO= T EigKep=  2.98D-05  NBF=   191
 NBsUse=   191 1.00D-06 EigRej= -1.00D+00 NBFU=   191
 Initial guess from the checkpoint file:  "/scratch/gongke2021/sidanzuo-2/Gau-16797.chk"
 B after Tr=    -0.000000   -0.000000   -0.000000
         Rot=    0.999977    0.000471    0.000298    0.006741 Ang=   0.78 deg.
 ExpMin= 4.38D-02 ExpMax= 5.48D+03 ExpMxC= 8.25D+02 IAcc=2 IRadAn=         4 AccDes= 0.00D+00
 Harris functional with IExCor= 1009 and IRadAn=       4 diagonalized for initial guess.
 HarFok:  IExCor= 1009 AccDes= 0.00D+00 IRadAn=         4 IDoV= 1 UseB2=F ITyADJ=14
 ICtDFT=  3500011 ScaDFX=  1.000000  1.000000  1.000000  1.000000
 FoFCou: FMM=F IPFlag=           0 FMFlag=      100000 FMFlg1=           0
         NFxFlg=           0 DoJE=T BraDBF=F KetDBF=T FulRan=T
         wScrn=  0.000000 ICntrl=       500 IOpCl=  0 I1Cent=   200000004 NGrid=           0
         NMat0=    1 NMatS0=      1 NMatT0=    0 NMatD0=    1 NMtDS0=    0 NMtDT0=    0
 Petite list used in FoFCou.
 Requested convergence on RMS density matrix=1.00D-08 within 128 cycles.
 Requested convergence on MAX density matrix=1.00D-06.
 Requested convergence on             energy=1.00D-06.
 No special actions if energy rises.
 Inv3:  Mode=1 IEnd=     5132592.
 Iteration    1 A*A^-1 deviation from unit magnitude is 3.55D-15 for   1301.
 Iteration    1 A*A^-1 deviation from orthogonality  is 1.52D-15 for   1301    708.
 Iteration    1 A^-1*A deviation from unit magnitude is 3.55D-15 for   1301.
 Iteration    1 A^-1*A deviation from orthogonality  is 1.22D-15 for    959    888.
 Error on total polarization charges =  0.03476
 SCF Done:  E(RM062X) =  -523.117713540     A.U. after   12 cycles
            NFock= 12  Conv=0.84D-08     -V/T= 2.0082
 SMD-CDS (non-electrostatic) energy       (kcal/mol) =       6.27
 (included in total energy above)
 D1PCM: PCM CHGder 1st derivatives, ID1Alg=3 FixD1E=F DoIter=F DoCFld=F I1PDM=0.
 Calling FoFJK, ICntrl=      2127 FMM=F ISym2X=0 I1Cent= 0 IOpClX= 0 NMat=1 NMatS=1 NMatT=0.
 ***** Axes restored to original set *****
 -------------------------------------------------------------------
 Center     Atomic                   Forces (Hartrees/Bohr)
 Number     Number              X              Y              Z
 -------------------------------------------------------------------
      1        7          -0.000182687    0.001685287    0.001088276
      2        7          -0.000624689    0.000874904   -0.000851518
      3        7          -0.000859976   -0.001141804    0.000859773
      4        7          -0.000060805   -0.001395718   -0.000559551
      5        6           0.001941901   -0.001084750    0.000067011
      6        6           0.013117737    0.004001366   -0.000043737
      7        8          -0.007503442   -0.003598599    0.000043881
      8        8          -0.002519762   -0.005667767    0.000397362
      9        1           0.001766584   -0.000412113   -0.000632155
     10        1          -0.000010962    0.000055652    0.000029347
     11        8          -0.009097468   -0.004188859   -0.001504345
     12        1           0.001219189    0.008342946    0.000417316
     13        1           0.002814380    0.002529455    0.000688338
 -------------------------------------------------------------------
 Cartesian Forces:  Max     0.013117737 RMS     0.003595710

 GradGradGradGradGradGradGradGradGradGradGradGradGradGradGradGradGradGrad
 Berny optimization.
 Using GEDIIS/GDIIS optimizer.
 FormGI is forming the generalized inverse of G from B-inverse, IUseBI=4.
 Internal  Forces:  Max     0.017914739 RMS     0.003775847
 Search for a local minimum.
 Step number   3 out of a maximum of   58
 All quantities printed in internal units (Hartrees-Bohrs-Radians)
 Mixed Optimization -- RFO/linear search
 Update second derivatives using D2CorX and points    1    2    3
 DE= -3.01D-03 DEPred=-4.82D-03 R= 6.25D-01
 TightC=F SS=  1.41D+00  RLast= 2.57D-01 DXNew= 8.4853D-01 7.7181D-01
 Trust test= 6.25D-01 RLast= 2.57D-01 DXMaxT set to 7.72D-01
 ITU=  1  1  0
 Use linear search instead of GDIIS.
     Eigenvalues ---    0.00218   0.00230   0.00230   0.00230   0.00230
     Eigenvalues ---    0.00368   0.01803   0.02390   0.02485   0.02628
     Eigenvalues ---    0.04800   0.04876   0.06730   0.06862   0.14248
     Eigenvalues ---    0.15922   0.15998   0.16002   0.16041   0.22686
     Eigenvalues ---    0.24656   0.24706   0.32524   0.36212   0.44772
     Eigenvalues ---    0.49799   0.51882   0.54538   0.57063   0.60759
     Eigenvalues ---    0.68543   1.24952   1.26519
 RFO step:  Lambda=-7.74091354D-03 EMin= 2.18334105D-03
 Quartic linear search produced a step of -0.17081.
 Iteration  1 RMS(Cart)=  0.28679388 RMS(Int)=  0.05257226
 Iteration  2 RMS(Cart)=  0.23988827 RMS(Int)=  0.02236237
 Iteration  3 RMS(Cart)=  0.14579160 RMS(Int)=  0.00580961
 Iteration  4 RMS(Cart)=  0.00514544 RMS(Int)=  0.00462406
 Iteration  5 RMS(Cart)=  0.00012347 RMS(Int)=  0.00462405
 Iteration  6 RMS(Cart)=  0.00000135 RMS(Int)=  0.00462405
 Iteration  7 RMS(Cart)=  0.00000010 RMS(Int)=  0.00462405
 Variable       Old X    -DE/DX   Delta X   Delta X   Delta X     New X
                                 (Linear)    (Quad)   (Total)
    R1        2.51701   0.00007  -0.00013   0.00052   0.00048   2.51748
    R2        2.52182  -0.00051   0.00020  -0.00158  -0.00130   2.52052
    R3        1.95262   0.00079  -0.00106   0.00835   0.00709   1.95971
    R4        2.43465   0.00093  -0.00009   0.00173   0.00160   2.43625
    R5        2.54804  -0.00089  -0.00011  -0.00103  -0.00123   2.54681
    R6        2.49304   0.00133   0.00003   0.00179   0.00181   2.49484
    R7        2.03818   0.00005  -0.00006   0.00038   0.00032   2.03850
    R8        2.19384   0.00158  -0.00001   0.00082   0.00078   2.19462
    R9        2.19957   0.00044   0.00006  -0.00000   0.00001   2.19958
   R10        3.57598   0.00610  -0.02053   0.16268   0.14215   3.71813
   R11        3.29412  -0.00053   0.00151  -0.01169  -0.00995   3.28417
   R12        1.80862   0.00816   0.01425  -0.06120  -0.04696   1.76167
   R13        1.81480   0.00647   0.01493  -0.06670  -0.05193   1.76287
    A1        1.89986  -0.00156  -0.00101  -0.00237  -0.00365   1.89621
    A2        2.09295  -0.00120   0.00224  -0.01646  -0.01455   2.07839
    A3        2.29038   0.00276  -0.00123   0.01880   0.01791   2.30828
    A4        1.85718   0.00147   0.00079   0.00241   0.00333   1.86052
    A5        1.93660  -0.00076  -0.00017  -0.00179  -0.00202   1.93458
    A6        1.84606  -0.00030  -0.00038  -0.00010  -0.00051   1.84554
    A7        1.88506   0.00115   0.00077   0.00190   0.00281   1.88787
    A8        2.17873  -0.00061  -0.00061  -0.00011  -0.00078   2.17795
    A9        2.21939  -0.00054  -0.00016  -0.00180  -0.00203   2.21736
   A10        2.69984  -0.00556   0.00290  -0.03967  -0.03638   2.66345
   A11        2.19782   0.00557  -0.00441   0.04454   0.03934   2.23717
   A12        2.16069  -0.00743   0.00383  -0.05418  -0.04837   2.11232
   A13        1.90005   0.00175  -0.00319   0.01261   0.01249   1.91254
   A14        2.38214  -0.00646   0.00011  -0.02044  -0.02206   2.36008
   A15        3.24759  -0.01791  -0.01982  -0.19523  -0.21527   3.03232
   A16        2.82376  -0.00530   0.01411  -0.51035  -0.49450   2.32925
   A17        3.14182  -0.00016  -0.00006  -0.00184   0.00241   3.14423
   A18        3.04654   0.00068  -0.00155   0.04701   0.02944   3.07598
    D1        0.00405  -0.00029  -0.00076  -0.00884  -0.01471  -0.01066
    D2       -3.13617  -0.00016  -0.00061   0.00242   0.00711  -3.12906
    D3       -0.00146   0.00007   0.00028   0.00443   0.00979   0.00834
    D4        3.14075   0.00012   0.00031   0.00583   0.01102  -3.13141
    D5        3.13856  -0.00009   0.00012  -0.00858  -0.01601   3.12255
    D6       -0.00242  -0.00004   0.00014  -0.00718  -0.01478  -0.01720
    D7       -3.13057   0.00031   0.00682   0.02555   0.04396  -3.08662
    D8       -0.19506  -0.00053  -0.01018   0.01247   0.01129  -0.18377
    D9        0.10962   0.00042   0.00714  -0.00838  -0.00380   0.10582
   D10        3.04513  -0.00042  -0.00986  -0.02146  -0.03647   3.00866
   D11       -0.00516   0.00040   0.00096   0.01000   0.01425   0.00909
   D12        0.00429  -0.00037  -0.00079  -0.00735  -0.00832  -0.00403
   D13       -0.00161   0.00017   0.00028   0.00157  -0.00113  -0.00274
   D14        3.13935   0.00012   0.00026   0.00013  -0.00240   3.13695
   D15       -0.16085  -0.00019  -0.00063  -0.01419  -0.01095  -0.17180
   D16        0.31154  -0.00131   0.00955  -0.10932  -0.10162   0.20991
   D17       -3.05467  -0.00082  -0.00558  -0.08851  -0.07944  -3.13411
         Item               Value     Threshold  Converged?
 Maximum Force            0.017915     0.000450     NO 
 RMS     Force            0.003776     0.000300     NO 
 Maximum Displacement     2.539313     0.001800     NO 
 RMS     Displacement     0.661937     0.001200     NO 
 Predicted change in Energy=-5.262145D-03
 GradGradGradGradGradGradGradGradGradGradGradGradGradGradGradGradGradGrad

                          Input orientation:                          
 ---------------------------------------------------------------------
 Center     Atomic      Atomic             Coordinates (Angstroms)
 Number     Number       Type             X           Y           Z
 ---------------------------------------------------------------------
      1          7           0       -0.719111    1.175999   -0.031626
      2          7           0        0.313805    0.338341   -0.110095
      3          7           0       -0.174509   -0.853903   -0.063581
      4          7           0       -1.518268   -0.818289    0.033274
      5          6           0       -1.842391    0.461411    0.049835
      6          6           0        2.303599   -0.224467    0.037338
      7          8           0        2.043590   -1.355135    0.089282
      8          8           0        2.439316    0.929815   -0.026178
      9          1           0       -0.543233    2.197520   -0.063286
     10          1           0       -2.834554    0.879721    0.115245
     11          8           0        0.901138    3.155686   -0.189929
     12          1           0        0.979429    4.084539   -0.177197
     13          1           0        1.744560    2.769468   -0.091321
 ---------------------------------------------------------------------
                    Distance matrix (angstroms):
                    1          2          3          4          5
     1  N    0.000000
     2  N    1.332195   0.000000
     3  N    2.101931   1.289208   0.000000
     4  N    2.149430   2.171368   1.347715   0.000000
     5  C    1.333802   2.165619   2.127144   1.320213   0.000000
     6  C    3.332093   2.073107   2.558788   3.867727   4.202359
     7  O    3.748837   2.428944   2.279159   3.602523   4.289784
     8  O    3.168012   2.207868   3.164669   4.326878   4.307922
     9  H    1.037035   2.047743   3.073619   3.170981   2.171332
    10  H    2.141133   3.202504   3.180136   2.150016   1.078726
    11  O    2.563090   2.879022   4.153286   4.657878   3.852733
    12  H    3.371326   3.805465   5.072740   5.506407   4.597964
    13  H    2.934686   2.820956   4.100294   4.851141   4.267701
                    6          7          8          9         10
     6  C    0.000000
     7  O    1.161341   0.000000
     8  O    1.163968   2.321837   0.000000
     9  H    3.739064   4.397304   3.240995   0.000000
    10  H    5.256037   5.365775   5.276004   2.649268   0.000000
    11  O    3.666604   4.661616   2.710592   1.737909   4.385037
    12  H    4.512980   5.549190   3.479419   2.427410   4.990276
    13  H    3.048397   4.139370   1.967550   2.358370   4.958034
                   11         12         13
    11  O    0.000000
    12  H    0.932234   0.000000
    13  H    0.932871   1.523881   0.000000
 Stoichiometry    C2H4N4O3
 Framework group  C1[X(C2H4N4O3)]
 Deg. of freedom    33
 Full point group                 C1      NOp   1
 Largest Abelian subgroup         C1      NOp   1
 Largest concise Abelian subgroup C1      NOp   1
                         Standard orientation:                         
 ---------------------------------------------------------------------
 Center     Atomic      Atomic             Coordinates (Angstroms)
 Number     Number       Type             X           Y           Z
 ---------------------------------------------------------------------
      1          7           0        0.950503    0.977209   -0.026381
      2          7           0        0.163088   -0.091238    0.088259
      3          7           0        0.938632   -1.121048    0.097255
      4          7           0        2.230520   -0.749298    0.001525
      5          6           0        2.219378    0.568770   -0.072877
      6          6           0       -1.616486   -1.147242   -0.037218
      7          8           0       -1.077304   -2.175831   -0.036910
      8          8           0       -2.041608   -0.063736   -0.026800
      9          1           0        0.520669    1.920844   -0.041795
     10          1           0        3.073651    1.222269   -0.155383
     11          8           0       -1.121191    2.484976    0.038067
     12          1           0       -1.432520    3.361943   -0.017265
     13          1           0       -1.837536    1.893122   -0.044447
 ---------------------------------------------------------------------
 Rotational constants (GHZ):           1.9969732           1.6475775           0.9041035
 Standard basis: 6-31+G(d,p) (6D, 7F)
 There are   191 symmetry adapted cartesian basis functions of A   symmetry.
 There are   191 symmetry adapted basis functions of A   symmetry.
   191 basis functions,   316 primitive gaussians,   191 cartesian basis functions
    34 alpha electrons       34 beta electrons
       nuclear repulsion energy       457.7569530110 Hartrees.
 NAtoms=   13 NActive=   13 NUniq=   13 SFac= 1.00D+00 NAtFMM=   60 NAOKFM=F Big=F
 Integral buffers will be    131072 words long.
 Raffenetti 2 integral format.
 Two-electron integral symmetry is turned on.
 ------------------------------------------------------------------------------
 Polarizable Continuum Model (PCM)
 =================================
 Model                : PCM.
 Atomic radii         : SMD-Coulomb.
 Polarization charges : Total charges.
 Charge compensation  : None.
 Solution method      : On-the-fly selection.
 Cavity type          : VdW (van der Waals Surface) (Alpha=1.000).
 Cavity algorithm     : GePol (No added spheres)
                        Default sphere list used, NSphG=   13.
                        Lebedev-Laikov grids with approx.  5.0 points / Ang**2.
                        Smoothing algorithm: York/Karplus (Gamma=1.0000).
                        Polarization charges: spherical gaussians, with
                                              point-specific exponents (IZeta= 3).
                        Self-potential: point-specific (ISelfS= 7).
                        Self-field    : sphere-specific E.n sum rule (ISelfD= 2).
 1st derivatives      : Analytical E(r).r(x)/FMM algorithm (CHGder, D1EAlg=3).
                        Cavity 1st derivative terms included.
 Solvent              : Water, Eps=  78.355300 Eps(inf)=   1.777849
 ------------------------------------------------------------------------------
 Spheres list:
 ISph  on   Nord     Re0    Alpha      Xe            Ye            Ze
    1   N      1    1.8900  1.000      0.950503      0.977209     -0.026381
    2   N      2    1.8900  1.000      0.163088     -0.091238      0.088259
    3   N      3    1.8900  1.000      0.938632     -1.121048      0.097255
    4   N      4    1.8900  1.000      2.230520     -0.749298      0.001525
    5   C      5    1.8500  1.000      2.219378      0.568770     -0.072877
    6   C      6    1.8500  1.000     -1.616486     -1.147242     -0.037218
    7   O      7    1.5200  1.000     -1.077304     -2.175831     -0.036910
    8   O      8    1.5200  1.000     -2.041608     -0.063736     -0.026800
    9   H      9    1.2000  1.000      0.520669      1.920844     -0.041795
   10   H     10    1.2000  1.000      3.073651      1.222269     -0.155383
   11   O     11    1.5200  1.000     -1.121191      2.484976      0.038067
   12   H     12    1.2000  1.000     -1.432520      3.361943     -0.017265
   13   H     13    1.2000  1.000     -1.837536      1.893122     -0.044447
 ------------------------------------------------------------------------------
 ------------------------------------------------------------------------------
 Atomic radii for non-electrostatic terms: SMD-CDS.
 ------------------------------------------------------------------------------
 Nuclear repulsion after PCM non-electrostatic terms =      457.7661101285 Hartrees.
 One-electron integrals computed using PRISM.
 NBasis=   191 RedAO= T EigKep=  2.39D-05  NBF=   191
 NBsUse=   191 1.00D-06 EigRej= -1.00D+00 NBFU=   191
 Initial guess from the checkpoint file:  "/scratch/gongke2021/sidanzuo-2/Gau-16797.chk"
 B after Tr=     0.000000    0.000000    0.000000
         Rot=    0.995002    0.003205    0.004431   -0.099701 Ang=  11.46 deg.
 ExpMin= 4.38D-02 ExpMax= 5.48D+03 ExpMxC= 8.25D+02 IAcc=2 IRadAn=         4 AccDes= 0.00D+00
 Harris functional with IExCor= 1009 and IRadAn=       4 diagonalized for initial guess.
 HarFok:  IExCor= 1009 AccDes= 0.00D+00 IRadAn=         4 IDoV= 1 UseB2=F ITyADJ=14
 ICtDFT=  3500011 ScaDFX=  1.000000  1.000000  1.000000  1.000000
 FoFCou: FMM=F IPFlag=           0 FMFlag=      100000 FMFlg1=           0
         NFxFlg=           0 DoJE=T BraDBF=F KetDBF=T FulRan=T
         wScrn=  0.000000 ICntrl=       500 IOpCl=  0 I1Cent=   200000004 NGrid=           0
         NMat0=    1 NMatS0=      1 NMatT0=    0 NMatD0=    1 NMtDS0=    0 NMtDT0=    0
 Petite list used in FoFCou.
 Requested convergence on RMS density matrix=1.00D-08 within 128 cycles.
 Requested convergence on MAX density matrix=1.00D-06.
 Requested convergence on             energy=1.00D-06.
 No special actions if energy rises.
 Inv3:  Mode=1 IEnd=     3919347.
 Iteration    1 A*A^-1 deviation from unit magnitude is 4.00D-15 for   1139.
 Iteration    1 A*A^-1 deviation from orthogonality  is 2.78D-15 for   1126     13.
 Iteration    1 A^-1*A deviation from unit magnitude is 4.11D-15 for   1139.
 Iteration    1 A^-1*A deviation from orthogonality  is 1.86D-15 for   1128      3.
 Error on total polarization charges =  0.03449
 SCF Done:  E(RM062X) =  -523.056507703     A.U. after   15 cycles
            NFock= 15  Conv=0.39D-08     -V/T= 2.0070
 SMD-CDS (non-electrostatic) energy       (kcal/mol) =       5.75
 (included in total energy above)
 D1PCM: PCM CHGder 1st derivatives, ID1Alg=3 FixD1E=F DoIter=F DoCFld=F I1PDM=0.
 Calling FoFJK, ICntrl=      2127 FMM=F ISym2X=0 I1Cent= 0 IOpClX= 0 NMat=1 NMatS=1 NMatT=0.
 ***** Axes restored to original set *****
 -------------------------------------------------------------------
 Center     Atomic                   Forces (Hartrees/Bohr)
 Number     Number              X              Y              Z
 -------------------------------------------------------------------
      1        7          -0.005532248    0.002003089   -0.001698416
      2        7          -0.078958111   -0.010111022   -0.002984706
      3        7          -0.039245471    0.002157847   -0.002248029
      4        7          -0.001724802    0.000863784   -0.000111015
[...]
 ! Name  Definition              Value          Derivative Info.                !
 --------------------------------------------------------------------------------
 ! R1    R(1,2)                  1.3318         -DE/DX =    0.0                 !
 ! R2    R(1,5)                  1.3344         -DE/DX =    0.0                 !
 ! R3    R(1,9)                  1.0426         -DE/DX =    0.0                 !
 ! R4    R(2,3)                  1.2887         -DE/DX =    0.0                 !
 ! R5    R(3,4)                  1.3467         -DE/DX =    0.0                 !
 ! R6    R(4,5)                  1.3203         -DE/DX =    0.0                 !
 ! R7    R(5,10)                 1.0787         -DE/DX =    0.0                 !
 ! R8    R(6,7)                  1.1626         -DE/DX =    0.0                 !
 ! R9    R(6,8)                  1.1638         -DE/DX =    0.0                 !
 ! R10   R(8,13)                 2.299          -DE/DX =    0.0                 !
 ! R11   R(9,11)                 1.7179         -DE/DX =    0.0                 !
 ! R12   R(11,12)                0.967          -DE/DX =    0.0                 !
 ! R13   R(11,13)                0.9674         -DE/DX =    0.0                 !
 ! A1    A(2,1,5)              108.3658         -DE/DX =    0.0                 !
 ! A2    A(2,1,9)              121.3396         -DE/DX =    0.0                 !
 ! A3    A(5,1,9)              130.2938         -DE/DX =    0.0                 !
 ! A4    A(1,2,3)              106.8143         -DE/DX =    0.0                 !
 ! A5    A(2,3,4)              110.8103         -DE/DX =    0.0                 !
 ! A6    A(3,4,5)              105.6623         -DE/DX =    0.0                 !
 ! A7    A(1,5,4)              108.3474         -DE/DX =    0.0                 !
 ! A8    A(1,5,10)             124.7038         -DE/DX =    0.0                 !
 ! A9    A(4,5,10)             126.9488         -DE/DX =    0.0                 !
 ! A10   A(6,8,13)             157.251          -DE/DX =    0.0                 !
 ! A11   A(9,11,12)            112.527          -DE/DX =    0.0                 !
 ! A12   A(9,11,13)            107.4912         -DE/DX =    0.0                 !
 ! A13   A(12,11,13)           105.3909         -DE/DX =    0.0                 !
 ! A14   A(8,13,11)            127.3241         -DE/DX =    0.0001              !
 ! A15   L(7,6,8,2,-1)         182.0098         -DE/DX =    0.0                 !
 ! A16   L(1,9,11,7,-1)        179.163          -DE/DX =    0.0                 !
 ! A17   L(7,6,8,2,-2)         180.0171         -DE/DX =    0.0                 !
 ! A18   L(1,9,11,7,-2)        178.7334         -DE/DX =    0.0                 !
 ! D1    D(5,1,2,3)              0.0468         -DE/DX =    0.0                 !
 ! D2    D(9,1,2,3)            179.7331         -DE/DX =    0.0                 !
 ! D3    D(2,1,5,4)             -0.0389         -DE/DX =    0.0                 !
 ! D4    D(2,1,5,10)           179.9759         -DE/DX =    0.0                 !
 ! D5    D(9,1,5,4)           -179.6877         -DE/DX =    0.0                 !
 ! D6    D(9,1,5,10)             0.3271         -DE/DX =    0.0                 !
 ! D7    D(2,1,11,12)         -125.7815         -DE/DX =    0.0                 !
 ! D8    D(2,1,11,13)          -10.0174         -DE/DX =    0.0                 !
 ! D9    D(5,1,11,12)           54.9576         -DE/DX =    0.0                 !
 ! D10   D(5,1,11,13)          170.7218         -DE/DX =    0.0                 !
 ! D11   D(1,2,3,4)             -0.0377         -DE/DX =    0.0                 !
 ! D12   D(2,3,4,5)              0.014          -DE/DX =    0.0                 !
 ! D13   D(3,4,5,1)              0.0157         -DE/DX =    0.0                 !
 ! D14   D(3,4,5,10)          -179.9996         -DE/DX =    0.0                 !
 ! D15   D(6,8,13,11)          -23.6564         -DE/DX =    0.0                 !
 ! D16   D(9,11,13,8)           17.1124         -DE/DX =    0.0                 !
 ! D17   D(12,11,13,8)         137.3362         -DE/DX =    0.0                 !
 --------------------------------------------------------------------------------
 GradGradGradGradGradGradGradGradGradGradGradGradGradGradGradGradGradGrad


 ----------------------------------------------------------------------

 Electric dipole moment (input orientation):
 (Debye = 10**-18 statcoulomb cm , SI units = C m)
                  (au)            (Debye)         (10**-30 SI)
   Tot        0.376126D+01      0.956016D+01      0.318893D+02
   x          0.698960D+00      0.177658D+01      0.592603D+01
   y          0.367766D+01      0.934768D+01      0.311805D+02
   z          0.365150D+00      0.928120D+00      0.309587D+01

 Dipole polarizability, Alpha (input orientation).
 (esu units = cm**3 , SI units = C**2 m**2 J**-1)
 Alpha(0;0):
               (au)            (10**-24 esu)      (10**-40 SI)
   iso        0.784992D+02      0.116324D+02      0.129428D+02
   aniso      0.460326D+02      0.682133D+01      0.758975D+01
   xx         0.813477D+02      0.120545D+02      0.134124D+02
   yx        -0.420777D+00     -0.623528D-01     -0.693768D-01
   yy         0.103057D+03      0.152714D+02      0.169918D+02
   zx         0.170470D+00      0.252611D-01      0.281067D-01
   zy        -0.499893D+01     -0.740766D+00     -0.824213D+00
   zz         0.510931D+02      0.757122D+01      0.842412D+01

 ----------------------------------------------------------------------

 Dipole orientation:
     7         -1.40145615          0.56067520          1.48182826
     7          0.05762861         -0.18049895         -0.43009400
     7         -1.36644294         -0.28755118         -2.40268060
     7         -3.75664328          0.37151254         -1.82910124
     6         -3.74384100          0.89587998          0.61010423
     6          5.14074494         -0.89759772          0.66689381
     8          5.64686179         -1.40567092         -1.40986037
     8          4.70848153         -0.39828473          2.76456950
     1         -0.67429148          0.78244939          3.29963278
     1         -5.32904071          1.49561680          1.74280214
     8          0.58041456          1.20420002          6.26243713
     1         -0.31380503          0.25742823          7.54434433
     1          2.27579810          0.52019793          6.24817772

 Electric dipole moment (dipole orientation):
 (Debye = 10**-18 statcoulomb cm , SI units = C m)
                  (au)            (Debye)         (10**-30 SI)
   Tot        0.376126D+01      0.956016D+01      0.318893D+02
   x          0.000000D+00      0.000000D+00      0.000000D+00
   y          0.000000D+00      0.000000D+00      0.000000D+00
   z          0.376126D+01      0.956016D+01      0.318893D+02

 Dipole polarizability, Alpha (dipole orientation).
 (esu units = cm**3 , SI units = C**2 m**2 J**-1)
 Alpha(0;0):
               (au)            (10**-24 esu)      (10**-40 SI)
   iso        0.784992D+02      0.116324D+02      0.129428D+02
   aniso      0.460326D+02      0.682133D+01      0.758975D+01
   xx         0.806643D+02      0.119532D+02      0.132997D+02
   yx        -0.686975D+01     -0.101799D+01     -0.113267D+01
   yy         0.541117D+02      0.801853D+01      0.892182D+01
   zx        -0.235645D+01     -0.349190D+00     -0.388527D+00
   zy         0.103419D+02      0.153252D+01      0.170515D+01
   zz         0.100721D+03      0.149254D+02      0.166067D+02

 ----------------------------------------------------------------------
 1\1\GINC-NODE3\Freq\RM062X\6-31+G(d,p)\C2H4N4O3\GONGKE2021\05-Nov-2023
 \0\\#N Geom=AllCheck Guess=TCheck SCRF=Check GenChk RM062X/6-31+G(d,p)
  Freq\\Title Card Required\\0,1\N,-0.6216942966,0.9276927645,-0.076159
 2507\N,0.0030609007,-0.2398676161,0.0656304398\N,-0.9114016395,-1.1429
 870839,0.1597220483\N,-2.1377854411,-0.5918861069,0.0832258938\C,-1.93
 73154426,0.7047480582,-0.0640382177\C,2.7789844136,-0.1665556427,-0.00
 68373892\O,2.8786854488,-1.3200231986,0.0995869201\O,2.7199599003,0.99
 06682958,-0.1149167945\H,-0.0896860726,1.8196095119,-0.1690292634\H,-2
 .6909381923,1.470556623,-0.1602757168\O,0.8077677635,3.2713360875,-0.3
 584246831\H,0.5585004843,3.9485778743,0.2852415858\H,1.7352319436,3.06
 88355929,-0.1719640324\\Version=ES64L-G16RevA.03\State=1-A\HF=-523.123
 4672\RMSD=2.531e-09\RMSF=1.123e-05\ZeroPoint=0.0843994\Thermal=0.09539
 34\Dipole=0.6989597,3.6776593,0.3651505\DipoleDeriv=-0.2909183,-0.3501
 444,0.0342113,-0.5220251,-1.1017363,0.0963568,0.0543011,0.1001462,-0.1
 558481,-0.6772078,-0.0279226,-0.0013738,-0.0589963,0.417191,-0.0628857
 ,0.0016379,-0.0643193,-0.116592,0.3581458,-0.063065,0.0127275,-0.06417
 39,-0.2983158,0.0046639,0.0156163,0.0070629,-0.2478189,-0.6041135,-0.0
 956512,0.0081551,0.2212319,-0.4494666,0.0172204,-0.0279604,0.0152405,-
 0.3114269,0.3866346,0.2309497,-0.0231131,0.108333,0.413038,-0.0320325,
 -0.0101658,-0.0322012,0.1407161,1.0081405,-0.2053128,0.0151124,-0.2152
 297,3.6944968,-0.2779535,0.0136636,-0.2772873,0.7345265,-0.4532282,0.1
 437196,-0.0127367,0.1718762,-1.8523457,0.137894,-0.0145847,0.1375249,-
 0.3705894,-0.4694586,0.0918679,-0.0060477,0.0583888,-1.9183316,0.14429
 65,0.0004753,0.143761,-0.3740997,0.6303274,0.5292093,-0.0462889,0.5506
 305,1.1782617,-0.0646745,-0.0520758,-0.0685396,0.4188076,0.1838733,-0.
 0092475,0.0009454,-0.0123402,0.1735821,0.006446,0.0005085,0.0074083,0.
 2301198,-0.8890449,-0.168254,0.0867633,-0.1847801,-1.1682127,0.1114631
 ,0.0945408,0.1093633,-0.742777,0.4045924,-0.0413227,-0.0288732,-0.0087
 885,0.4251652,-0.04523,-0.0170837,-0.0417394,0.3873732,0.4122572,-0.03
 48262,-0.0394815,-0.0441266,0.4866741,-0.0355644,-0.0588731,-0.0364203
 ,0.4076089\Polar=81.3476809,-0.4207772,103.0566992,0.1704702,-4.998934
 5,51.0931333\Quadrupole=0.2092087,0.3135854,-0.5227941,-5.8472751,1.11
 06755,5.1139577\PG=C01 [X(C2H4N4O3)]\NImag=0\\0.76999888,0.19319407,0.
 85720779,-0.01461801,-0.08144527,0.12859752,-0.18024073,0.05920253,-0.
 00809061,0.65585955,0.09846375,-0.22521104,0.01799671,0.03561154,0.515
 56120,-0.01283410,0.01759378,-0.07946162,0.00168384,-0.04483877,0.1275
 9930,-0.02197166,-0.07108613,0.00782030,-0.24817643,-0.16831225,0.0176
 6845,0.48006234,0.01183535,-0.15995321,0.02173360,-0.10777624,-0.25210
 781,0.01624423,0.03806286,0.64372932,-0.00180205,0.02111526,0.02642488
 ,0.01082053,0.01547868,-0.10307481,-0.00062831,-0.05877306,0.13635283,
 -0.03071977,-0.00747551,0.00006499,-0.13893381,-0.07331559,0.00658529,
 -0.20752125,0.03711966,-0.00545454,0.50177033,-0.13713053,-0.05369341,
 0.00741531,0.03458438,0.00079377,0.00464796,0.07904068,-0.14340814,0.0
 0650888,0.07718691,0.58905435,0.01533786,0.00883637,0.02173810,-0.0059
 8425,0.00357643,0.03796015,-0.01033235,0.00604386,-0.09543204,-0.00472
 914,-0.05409207,0.12012206,-0.36368259,-0.05075553,0.00278419,-0.09484
 843,0.09708260,-0.01228127,-0.00363566,0.01475690,-0.00199408,-0.13360
 740,-0.04516532,0.00463999,0.81271576,-0.01994951,-0.13561425,0.006807
 57,-0.00258920,-0.01850031,0.00450209,0.11728511,-0.08461148,0.0133730
 7,-0.05852750,-0.38833629,0.03450858,-0.17463268,0.83891824,-0.0007692
 6,0.00644884,-0.07379489,-0.00096001,0.00560082,0.02041638,-0.01378717
 ,0.01230061,0.01976435,0.00632188,0.03467730,-0.08755034,0.02716726,-0
 .08083312,0.16436627,0.00003546,0.00116701,-0.00016581,-0.00451707,0.0
 0179259,-0.00049453,0.00000188,-0.00207886,0.00016454,0.00315512,-0.00
 152355,0.00027204,0.00181195,0.00041101,-0.00000096,0.14320162,0.00264
 179,-0.00023195,-0.00001290,0.00006262,-0.00489103,0.00029852,-0.00136
 837,0.00046489,-0.00008124,-0.00069595,-0.00043079,0.00006056,0.000657
 15,-0.00043666,0.00009456,-0.11893740,1.85199468,-0.00028707,-0.000021
 32,-0.00018513,-0.00002508,0.00034855,-0.00126748,0.00009876,-0.000035
 04,-0.00034957,-0.00000645,0.00009373,0.00025307,-0.00010167,0.0000607
 6,0.00009657,0.01143975,-0.15843039,0.16074056,-0.00130011,-0.00044783
 ,0.00007423,-0.00246780,0.00300893,-0.00008936,0.00058051,0.00051527,-
 0.00005802,-0.00101471,0.00046591,-0.00008883,-0.00067946,0.00013820,-
 0.00003651,-0.07398119,0.07048049,-0.00661370,0.04707189,-0.00037009,0
 .00031455,-0.00001670,-0.00082359,0.00095367,-0.00004247,0.00073820,-0
 .00037739,0.00002416,0.00054871,-0.00002534,0.00001619,-0.00001805,0.0
 0013320,-0.00002545,0.07131712,-0.92418794,0.07868967,-0.08379660,1.05
 141325,0.00008766,0.00000582,0.00022248,0.00009377,-0.00016008,0.00048
 768,-0.00007416,0.00001985,0.00003228,-0.00002455,-0.00000772,-0.00005
 765,0.00001956,-0.00002603,-0.00002760,-0.00666564,0.07873361,-0.07969
 125,0.00763134,-0.09383319,0.04466223,0.00076641,-0.00032389,0.0000623
 6,-0.00310675,-0.00508640,0.00065239,-0.00098936,0.00122877,-0.0001094
 5,-0.00150007,0.00020365,-0.00006456,-0.00038631,-0.00031624,0.0000352
 4,-0.06991993,0.04580766,-0.00432691,0.03193041,0.01304718,-0.00114156
 ,0.04378648,-0.00088800,-0.00003288,0.00002123,-0.00006131,-0.00019955
 ,0.00013458,-0.00002273,0.00036255,0.00001096,-0.00023555,0.00034899,-
 0.00006347,-0.00054543,0.00004107,-0.00002767,0.04693631,-0.91996869,0
 .07903809,0.01010316,-0.12986658,0.01542471,-0.05639338,1.05173080,0.0
 0006266,0.00000742,-0.00006873,0.00007705,0.00021450,0.00043184,0.0000
 5360,-0.00002717,0.00030518,0.00005983,-0.00004742,-0.00011534,0.00005
 938,0.00000073,0.00000128,-0.00443609,0.07917516,-0.07945377,-0.000859
 20,0.01532137,0.03433632,0.00538587,-0.09466554,0.04491734,-0.15333932
 ,-0.12982103,0.01342251,0.02280128,0.01254126,-0.00096816,0.00143236,0
 .01364213,-0.00169833,-0.00478936,0.00092584,-0.00025158,-0.00379428,-
 0.02003438,0.00227409,0.00062300,0.00094943,-0.00011523,-0.00025772,-0
 .00037169,0.00004544,0.00048807,-0.00082863,0.00004777,0.13838805,-0.1
 1931891,-0.27444763,0.02693036,-0.01026737,-0.01950037,0.00094619,0.00
 860164,0.00379386,0.00054331,0.00573352,0.01028120,-0.00035576,-0.0074
 8088,0.00988036,-0.00185951,0.00130695,-0.00016978,-0.00001908,-0.0004
 4855,0.00009321,0.00000993,-0.00048705,-0.00012534,-0.00003839,0.10876
 423,0.25392715,0.01229202,0.02685778,-0.02599266,0.00159007,0.00124868
 ,-0.01039296,-0.00105507,0.00069918,0.00780498,-0.00069025,-0.00028672
 ,0.00725602,0.00086923,-0.00189286,-0.00579072,-0.00013830,0.00001108,
 0.00002774,0.00004831,-0.00001282,-0.00000502,0.00003980,0.00000459,-0
 .00011962,-0.01209318,-0.02364849,0.03505393,-0.01352882,0.02311191,-0
 .00281443,-0.00340547,-0.00263658,0.00018615,0.00161798,-0.00478281,0.
 00047597,0.01352495,-0.00665851,0.00094825,-0.21655225,0.15834436,-0.0
 2026124,0.00009950,0.00006516,-0.00000907,-0.00009113,-0.00000142,0.00
 000487,-0.00001676,-0.00002396,0.00000290,0.00018950,-0.00012743,0.000
 04661,0.21823991,-0.01029540,0.01381975,-0.00181762,-0.00507049,-0.000
 20750,0.00079644,-0.00032057,-0.00441517,0.00149332,0.02078041,-0.0109
 6666,0.00105569,0.16139982,-0.21955496,0.02334201,0.00013995,0.0000408
 8,-0.00000541,-0.00008152,0.00000992,-0.00000244,-0.00002082,-0.000024
 20,0.00000180,0.00069213,0.00007136,-0.00017860,-0.16717841,0.22134824
 ,0.00111084,-0.00148793,-0.00074922,0.00046083,0.00083171,0.00694904,-
 0.00004622,0.00144853,0.00847688,-0.00221457,0.00075447,-0.00390243,-0
 .02066916,0.02331607,-0.03774304,-0.00000947,0.00000490,0.00002452,0.0
 0000040,-0.00000384,-0.00002058,-0.00000043,-0.00000126,-0.00001157,-0
 .00004249,-0.00016804,-0.00151428,0.02141525,-0.02470101,0.02846466,-0
 .00500630,-0.01523960,0.00059077,-0.00281252,0.00077568,-0.00015988,-0
 .00130794,-0.00241078,0.00032508,-0.00032906,-0.00179415,0.00031284,0.
 00254558,-0.00009483,-0.00004837,-0.00046344,-0.00103640,0.00017855,0.
 00010697,0.00057724,-0.00007234,-0.00026359,0.00126917,-0.00006552,-0.
 00107210,0.01341875,0.00178251,-0.00006052,-0.00003985,-0.00000995,0.5
 6328037,-0.01710170,-0.01947928,0.00156689,-0.00263191,0.00326822,-0.0
 0037839,-0.00252656,-0.00316507,0.00034439,-0.00116067,-0.00344379,0.0
 0043715,0.00450934,-0.00195659,0.00022844,0.00009208,0.00140294,-0.000
 17533,0.00001085,-0.00104595,0.00010942,0.00159220,-0.00255183,0.00005
 498,0.01498583,0.01446693,0.00032030,-0.00010127,-0.00012639,0.0000057
 3,-0.18657186,0.31715421,0.00047358,0.00097238,0.00332965,0.00028938,-
 0.00017759,0.00032513,0.00024696,0.00025463,-0.00026688,0.00003397,0.0
 0026663,-0.00027477,-0.00039897,0.00011261,0.00028836,0.00013550,-0.00
 001442,0.00007555,-0.00004996,-0.00013507,-0.00002740,0.00024880,-0.00
 032087,0.00018270,0.00075591,-0.00072492,-0.00662344,0.00000192,0.0000
 1350,0.00002195,0.02576645,0.24421602,0.29110963,-0.00167489,-0.001831
 62,0.00073066,-0.00014003,0.00035661,-0.00000751,-0.00023798,-0.000249
 86,-0.00001792,-0.00010582,-0.00031685,-0.00001020,0.00038346,-0.00015
 309,0.00006115,-0.00010008,-0.00004789,-0.00001213,0.00002502,0.000104
 66,-0.00000405,-0.00013372,0.00035332,-0.00003888,0.00317719,0.0025234
 6,-0.00227619,-0.00001641,-0.00001394,0.00000314,-0.07245999,0.0724510
 4,0.05498189,0.08217924,-0.00078430,-0.00033399,0.00042987,0.00009523,
 0.00005010,0.00008059,0.00000603,0.00003734,-0.00006361,-0.00005334,-0
 .00002353,-0.00003004,-0.00001802,-0.00014173,0.00006248,0.00004899,0.
 00002331,-0.00000731,-0.00001637,-0.00001569,0.00000165,0.00017872,-0.
 00019311,0.00004694,0.00094180,-0.00202559,-0.00216834,-0.00000969,0.0
 0000115,0.00000020,0.10598912,-0.26001668,-0.23799202,-0.10449002,0.26
 912057,0.00113329,0.00092392,-0.00021860,0.00003314,-0.00021050,0.0000
 3641,0.00007815,0.00010428,-0.00001663,0.00008060,0.00012818,-0.000002
 12,-0.00015169,0.00012495,-0.00000798,-0.00007394,-0.00015301,0.000032
 21,0.00002597,0.00017890,-0.00001694,-0.00023960,0.00031505,-0.0000400
 4,-0.00217033,-0.00171600,0.00043585,0.00000063,0.00000197,0.00000102,
 0.09231247,-0.25428734,-0.24308635,-0.08370293,0.24744651,0.23899408,0
 .00066346,0.00030561,0.00013886,-0.00001178,-0.00028215,0.00005869,0.0
 0014520,0.00013762,-0.00002342,0.00007085,0.00018155,-0.00005007,-0.00
 027037,0.00011876,0.00000391,0.00005318,0.00142171,-0.00021976,0.00007
 733,-0.00095166,0.00009964,-0.00065488,0.00033704,-0.00034938,-0.00384
 666,-0.00221836,-0.00041557,-0.00000048,0.00000870,0.00000183,-0.48215
 746,0.11645263,-0.08248544,-0.01089600,-0.00188816,-0.00732575,0.49682
 761,-0.00029651,-0.00234443,0.00039097,-0.00033618,-0.00000936,0.00001
 525,-0.00009791,-0.00034968,0.00002588,0.00009491,-0.00015035,0.000006
 51,0.00021010,0.00017941,-0.00000930,-0.00067221,-0.00360986,0.0004630
 9,0.00006808,0.00260109,-0.00027552,0.00056960,0.00047878,-0.00004438,
 -0.00238693,0.00375464,-0.00095377,-0.00000135,0.00000360,0.00000047,0
 .08515750,-0.04450671,-0.00647087,0.03131419,-0.00648216,0.00714309,-0
 .11362330,0.05043502,-0.00018741,0.00019296,0.00015821,0.00001132,0.00
 009087,-0.00000906,-0.00004293,-0.00001349,-0.00002145,-0.00002707,-0.
 00005852,0.00000528,0.00005720,-0.00005440,-0.00001867,-0.00002708,0.0
 0031357,-0.00030302,0.00001533,-0.00016075,0.00010545,-0.00054194,0.00
 012960,-0.00036559,0.00079359,0.00010040,-0.00013981,0.00000219,0.0000
 0035,0.00000306,-0.12091263,0.00755774,-0.04505412,0.03029296,-0.00780
 690,0.00388909,0.09056647,-0.00029142,0.04175065\\-0.00001028,0.000005
 55,-0.00000510,0.00001017,-0.00001671,-0.00000047,0.00000791,0.0000052
 6,0.00000396,0.00000393,-0.00001335,0.00000278,0.00000755,0.00000907,0
 .00001071,-0.00000936,0.00001924,-0.00002050,0.00000573,-0.00000705,-0
 .00001737,0.00000259,-0.00000239,-0.00000902,-0.00000822,0.00001334,0.
 00000840,-0.00000096,-0.00000651,0.00001467,-0.00001509,-0.00003232,0.
 00000384,-0.00000477,0.00000716,0.00000750,0.00001079,0.00001871,0.000
 00059\\\@


 Cherishing children is the mark of a civilized society.
 -- Joan Ganz Cooney
 Job cpu time:       0 days  0 hours 31 minutes 43.1 seconds.
 Elapsed time:       0 days  0 hours  1 minutes 36.0 seconds.
 File lengths (MBytes):  RWF=     90 Int=      0 D2E=      0 Chk=      8 Scr=      1
 Normal termination of Gaussian 16 at Sun Nov  5 11:31:14 2023.
