 Entering Gaussian System, Link 0=/opt/soft/g16b/g16/g16
 Initial command:
 /opt/soft/g16b/g16/l1.exe "/scratch/gongke2021/sidanzuo-PC/Gau-9100.inp" -scrdir="/scratch/gongke2021/sidanzuo-PC/"
 Entering Link 1 = /opt/soft/g16b/g16/l1.exe PID=      9101.
  
 Copyright (c) 1988,1990,1992,1993,1995,1998,2003,2009,2016,
            Gaussian, Inc.  All Rights Reserved.
  
 This is part of the Gaussian(R) 16 program.  It is based on
 the Gaussian(R) 09 system (copyright 2009, Gaussian, Inc.),
 the Gaussian(R) 03 system (copyright 2003, Gaussian, Inc.),
 the Gaussian(R) 98 system (copyright 1998, Gaussian, Inc.),
 the Gaussian(R) 94 system (copyright 1995, Gaussian, Inc.),
 the Gaussian 92(TM) system (copyright 1992, Gaussian, Inc.),
 the Gaussian 90(TM) system (copyright 1990, Gaussian, Inc.),
 the Gaussian 88(TM) system (copyright 1988, Gaussian, Inc.),
 the Gaussian 86(TM) system (copyright 1986, Carnegie Mellon
 University), and the Gaussian 82(TM) system (copyright 1983,
 Carnegie Mellon University). Gaussian is a federally registered
 trademark of Gaussian, Inc.
  
 This software contains proprietary and confidential information,
 including trade secrets, belonging to Gaussian, Inc.
  
 This software is provided under written license and may be
 used, copied, transmitted, or stored only in accord with that
 written license.
  
 The following legend is applicable only to US Government
 contracts under FAR:
  
                    RESTRICTED RIGHTS LEGEND
  
 Use, reproduction and disclosure by the US Government is
 subject to restrictions as set forth in subparagraphs (a)
 and (c) of the Commercial Computer Software - Restricted
 Rights clause in FAR 52.227-19.
  
 Gaussian, Inc.
 340 Quinnipiac St., Bldg. 40, Wallingford CT 06492
  
  
 ---------------------------------------------------------------
 Warning -- This program may not be used in any manner that
 competes with the business of Gaussian, Inc. or will provide
 assistance to any competitor of Gaussian, Inc.  The licensee
 of this program is prohibited from giving any competitor of
 Gaussian, Inc. access to this program.  By using this program,
 the user acknowledges that Gaussian, Inc. is engaged in the
 business of creating and licensing software in the field of
 computational chemistry and represents and warrants to the
 licensee that it is not a competitor of Gaussian, Inc. and that
 it will not use this program in any manner prohibited above.
 ---------------------------------------------------------------
  

 Cite this work as:
 Gaussian 16, Revision A.03,
 M. J. Frisch, G. W. Trucks, H. B. Schlegel, G. E. Scuseria, 
 M. A. Robb, J. R. Cheeseman, G. Scalmani, V. Barone, 
 G. A. Petersson, H. Nakatsuji, X. Li, M. Caricato, A. V. Marenich, 
 J. Bloino, B. G. Janesko, R. Gomperts, B. Mennucci, H. P. Hratchian, 
 J. V. Ortiz, A. F. Izmaylov, J. L. Sonnenberg, D. Williams-Young, 
 F. Ding, F. Lipparini, F. Egidi, J. Goings, B. Peng, A. Petrone, 
 T. Henderson, D. Ranasinghe, V. G. Zakrzewski, J. Gao, N. Rega, 
 G. Zheng, W. Liang, M. Hada, M. Ehara, K. Toyota, R. Fukuda, 
 J. Hasegawa, M. Ishida, T. Nakajima, Y. Honda, O. Kitao, H. Nakai, 
 T. Vreven, K. Throssell, J. A. Montgomery, Jr., J. E. Peralta, 
 F. Ogliaro, M. J. Bearpark, J. J. Heyd, E. N. Brothers, K. N. Kudin, 
 V. N. Staroverov, T. A. Keith, R. Kobayashi, J. Normand, 
 K. Raghavachari, A. P. Rendell, J. C. Burant, S. S. Iyengar, 
 J. Tomasi, M. Cossi, J. M. Millam, M. Klene, C. Adamo, R. Cammi, 
 J. W. Ochterski, R. L. Martin, K. Morokuma, O. Farkas, 
 J. B. Foresman, and D. J. Fox, Gaussian, Inc., Wallingford CT, 2016.
 
 ******************************************
 Gaussian 16:  ES64L-G16RevA.03 25-Dec-2016
                 5-Nov-2023 
 ******************************************
 %mem=10GB
 %nprocshared=20
 Will use up to   20 processors via shared memory.
 -----------------------------------------------------
 # opt freq 6-31+g(d,p) scrf=(smd,solvent=water) m062x
 -----------------------------------------------------
 1/18=20,19=15,26=3,38=1/1,3;
 2/9=110,12=2,17=6,18=5,40=1/2;
 3/5=1,6=6,7=111,11=2,25=1,30=1,70=32201,71=1,72=1,74=-55/1,2,3;
 4//1;
 5/5=2,38=5,53=1/2;
 6/7=2,8=2,9=2,10=2,28=1/1;
 7//1,2,3,16;
 1/18=20,19=15,26=3/3(2);
 2/9=110/2;
 99//99;
 2/9=110/2;
 3/5=1,6=6,7=111,11=2,25=1,30=1,70=32205,71=1,72=1,74=-55/1,2,3;
 4/5=5,16=3,69=1/1;
 5/5=2,38=5,53=1/2;
 7//1,2,3,16;
 1/18=20,19=15,26=3/3(-5);
 2/9=110/2;
 6/7=2,8=2,9=2,10=2,19=2,28=1/1;
 99/9=1/99;
 -------------------
 Title Card Required
 -------------------
 Symbolic Z-matrix:
 Charge = -1 Multiplicity = 2
 N                     0.75762   1.09005   0.00057 
 N                     0.06932  -0.0432    0.00009 
 N                     0.8207   -1.1325   -0.00044 
 N                     2.04325  -0.71797  -0.00033 
 C                     1.9907    0.64287   0.00016 
 C                    -1.36851  -0.10425   0.00005 
 O                    -1.93645  -1.15919   0.0005 
 O                    -1.95213   1.07132  -0.00047 
 H                    -1.32264   1.81828  -0.00116 
 H                     2.86187   1.27831   0.00053 
 

 GradGradGradGradGradGradGradGradGradGradGradGradGradGradGradGradGradGrad
 Berny optimization.
 Initialization pass.
                           ----------------------------
                           !    Initial Parameters    !
                           ! (Angstroms and Degrees)  !
 --------------------------                            --------------------------
 ! Name  Definition              Value          Derivative Info.                !
 --------------------------------------------------------------------------------
 ! R1    R(1,2)                  1.3259         estimate D2E/DX2                !
 ! R2    R(1,5)                  1.3117         estimate D2E/DX2                !
 ! R3    R(2,3)                  1.3233         estimate D2E/DX2                !
 ! R4    R(2,6)                  1.4391         estimate D2E/DX2                !
 ! R5    R(3,4)                  1.2909         estimate D2E/DX2                !
 ! R6    R(4,5)                  1.3618         estimate D2E/DX2                !
 ! R7    R(5,10)                 1.0783         estimate D2E/DX2                !
 ! R8    R(6,7)                  1.1981         estimate D2E/DX2                !
 ! R9    R(6,8)                  1.3125         estimate D2E/DX2                !
 ! R10   R(8,9)                  0.9768         estimate D2E/DX2                !
 ! A1    A(2,1,5)              101.3397         estimate D2E/DX2                !
 ! A2    A(1,2,3)              114.1299         estimate D2E/DX2                !
 ! A3    A(1,2,6)              123.7046         estimate D2E/DX2                !
 ! A4    A(3,2,6)              122.1656         estimate D2E/DX2                !
 ! A5    A(2,3,4)              105.8669         estimate D2E/DX2                !
 ! A6    A(3,4,5)              106.5186         estimate D2E/DX2                !
 ! A7    A(1,5,4)              112.145          estimate D2E/DX2                !
 ! A8    A(1,5,10)             123.9587         estimate D2E/DX2                !
 ! A9    A(4,5,10)             123.8964         estimate D2E/DX2                !
 ! A10   A(2,6,7)              120.7279         estimate D2E/DX2                !
 ! A11   A(2,6,8)              113.9709         estimate D2E/DX2                !
 ! A12   A(7,6,8)              125.3012         estimate D2E/DX2                !
 ! A13   A(6,8,9)              113.4755         estimate D2E/DX2                !
 ! D1    D(5,1,2,3)              0.0065         estimate D2E/DX2                !
 ! D2    D(5,1,2,6)           -179.9896         estimate D2E/DX2                !
 ! D3    D(2,1,5,4)             -0.0095         estimate D2E/DX2                !
 ! D4    D(2,1,5,10)          -179.9892         estimate D2E/DX2                !
 ! D5    D(1,2,3,4)             -0.001          estimate D2E/DX2                !
 ! D6    D(6,2,3,4)            179.9952         estimate D2E/DX2                !
 ! D7    D(1,2,6,7)           -179.9498         estimate D2E/DX2                !
 ! D8    D(1,2,6,8)              0.0481         estimate D2E/DX2                !
 ! D9    D(3,2,6,7)              0.0544         estimate D2E/DX2                !
 ! D10   D(3,2,6,8)           -179.9477         estimate D2E/DX2                !
 ! D11   D(2,3,4,5)             -0.0049         estimate D2E/DX2                !
 ! D12   D(3,4,5,1)              0.0096         estimate D2E/DX2                !
 ! D13   D(3,4,5,10)           179.9893         estimate D2E/DX2                !
 ! D14   D(2,6,8,9)              0.0257         estimate D2E/DX2                !
 ! D15   D(7,6,8,9)           -179.9765         estimate D2E/DX2                !
 --------------------------------------------------------------------------------
 Trust Radius=3.00D-01 FncErr=1.00D-07 GrdErr=1.00D-06 EigMax=2.50D+02 EigMin=1.00D-04
 Number of steps in this run=     48 maximum allowed number of steps=    100.
 GradGradGradGradGradGradGradGradGradGradGradGradGradGradGradGradGradGrad

                          Input orientation:                          
 ---------------------------------------------------------------------
 Center     Atomic      Atomic             Coordinates (Angstroms)
 Number     Number       Type             X           Y           Z
 ---------------------------------------------------------------------
      1          7           0        0.757622    1.090051    0.000570
      2          7           0        0.069323   -0.043200    0.000087
      3          7           0        0.820695   -1.132496   -0.000444
      4          7           0        2.043255   -0.717966   -0.000334
      5          6           0        1.990703    0.642868    0.000163
      6          6           0       -1.368509   -0.104254    0.000046
      7          8           0       -1.936452   -1.159195    0.000500
      8          8           0       -1.952129    1.071321   -0.000473
      9          1           0       -1.322639    1.818277   -0.001159
     10          1           0        2.861865    1.278314    0.000532
 ---------------------------------------------------------------------
                    Distance matrix (angstroms):
                    1          2          3          4          5
     1  N    0.000000
     2  N    1.325901   0.000000
     3  N    2.223442   1.323301   0.000000
     4  N    2.218508   2.086077   1.290925   0.000000
     5  C    1.311664   2.040194   2.126226   1.361848   0.000000
     6  C    2.438606   1.439128   2.418656   3.466522   3.441293
     7  O    3.509579   2.295338   2.757276   4.004092   4.320877
     8  O    2.709816   2.308338   3.541943   4.377744   3.966043
     9  H    2.204042   2.324362   3.647046   4.214472   3.515654
    10  H    2.112648   3.089448   3.158858   2.157604   1.078293
                    6          7          8          9         10
     6  C    0.000000
     7  O    1.198107   0.000000
     8  O    1.312474   2.230571   0.000000
     9  H    1.923079   3.040084   0.976832   0.000000
    10  H    4.450568   5.381942   4.818442   4.219199   0.000000
 Stoichiometry    C2H2N4O2(1-,2)
 Framework group  C1[X(C2H2N4O2)]
 Deg. of freedom    24
 Full point group                 C1      NOp   1
 Largest Abelian subgroup         C1      NOp   1
 Largest concise Abelian subgroup C1      NOp   1
                         Standard orientation:                         
 ---------------------------------------------------------------------
 Center     Atomic      Atomic             Coordinates (Angstroms)
 Number     Number       Type             X           Y           Z
 ---------------------------------------------------------------------
      1          7           0       -0.757622    1.090051   -0.000570
      2          7           0       -0.069323   -0.043200   -0.000087
      3          7           0       -0.820695   -1.132496    0.000444
      4          7           0       -2.043255   -0.717966    0.000334
      5          6           0       -1.990703    0.642868   -0.000163
      6          6           0        1.368509   -0.104254   -0.000046
      7          8           0        1.936452   -1.159195   -0.000500
      8          8           0        1.952129    1.071321    0.000473
      9          1           0        1.322639    1.818277    0.001159
     10          1           0       -2.861865    1.278314   -0.000532
 ---------------------------------------------------------------------
 Rotational constants (GHZ):           5.5130191           1.8247018           1.3709457
 Standard basis: 6-31+G(d,p) (6D, 7F)
 There are   162 symmetry adapted cartesian basis functions of A   symmetry.
 There are   162 symmetry adapted basis functions of A   symmetry.
   162 basis functions,   270 primitive gaussians,   162 cartesian basis functions
    30 alpha electrons       29 beta electrons
       nuclear repulsion energy       366.4940691714 Hartrees.
 NAtoms=   10 NActive=   10 NUniq=   10 SFac= 1.00D+00 NAtFMM=   60 NAOKFM=F Big=F
 Integral buffers will be    131072 words long.
 Raffenetti 2 integral format.
 Two-electron integral symmetry is turned on.
 ------------------------------------------------------------------------------
 Polarizable Continuum Model (PCM)
 =================================
 Model                : PCM.
 Atomic radii         : SMD-Coulomb.
 Polarization charges : Total charges.
 Charge compensation  : None.
 Solution method      : On-the-fly selection.
 Cavity type          : VdW (van der Waals Surface) (Alpha=1.000).
 Cavity algorithm     : GePol (No added spheres)
                        Default sphere list used, NSphG=   10.
                        Lebedev-Laikov grids with approx.  5.0 points / Ang**2.
                        Smoothing algorithm: York/Karplus (Gamma=1.0000).
                        Polarization charges: spherical gaussians, with
                                              point-specific exponents (IZeta= 3).
                        Self-potential: point-specific (ISelfS= 7).
                        Self-field    : sphere-specific E.n sum rule (ISelfD= 2).
 1st derivatives      : Analytical E(r).r(x)/FMM algorithm (CHGder, D1EAlg=3).
                        Cavity 1st derivative terms included.
 Solvent              : Water, Eps=  78.355300 Eps(inf)=   1.777849
 ------------------------------------------------------------------------------
 Spheres list:
 ISph  on   Nord     Re0    Alpha      Xe            Ye            Ze
    1   N      1    1.8900  1.000     -0.757622      1.090051     -0.000570
    2   N      2    1.8900  1.000     -0.069323     -0.043200     -0.000087
    3   N      3    1.8900  1.000     -0.820695     -1.132496      0.000444
    4   N      4    1.8900  1.000     -2.043255     -0.717966      0.000334
    5   C      5    1.8500  1.000     -1.990703      0.642868     -0.000163
    6   C      6    1.8500  1.000      1.368509     -0.104254     -0.000046
    7   O      7    1.5200  1.000      1.936452     -1.159195     -0.000500
    8   O      8    1.5200  1.000      1.952129      1.071321      0.000473
    9   H      9    1.2000  1.000      1.322639      1.818277      0.001159
   10   H     10    1.2000  1.000     -2.861865      1.278314     -0.000532
 ------------------------------------------------------------------------------
 ------------------------------------------------------------------------------
 Atomic radii for non-electrostatic terms: SMD-CDS.
 ------------------------------------------------------------------------------
 Nuclear repulsion after PCM non-electrostatic terms =      366.4987515793 Hartrees.
 One-electron integrals computed using PRISM.
 NBasis=   162 RedAO= T EigKep=  3.88D-05  NBF=   162
 NBsUse=   162 1.00D-06 EigRej= -1.00D+00 NBFU=   162
 ExpMin= 4.38D-02 ExpMax= 5.48D+03 ExpMxC= 8.25D+02 IAcc=3 IRadAn=         5 AccDes= 0.00D+00
 Harris functional with IExCor= 1009 and IRadAn=       5 diagonalized for initial guess.
 HarFok:  IExCor= 1009 AccDes= 0.00D+00 IRadAn=         5 IDoV= 1 UseB2=F ITyADJ=14
 ICtDFT=  3500011 ScaDFX=  1.000000  1.000000  1.000000  1.000000
 FoFCou: FMM=F IPFlag=           0 FMFlag=      100000 FMFlg1=           0
         NFxFlg=           0 DoJE=T BraDBF=F KetDBF=T FulRan=T
         wScrn=  0.000000 ICntrl=       500 IOpCl=  0 I1Cent=   200000004 NGrid=           0
         NMat0=    1 NMatS0=      1 NMatT0=    0 NMatD0=    1 NMtDS0=    0 NMtDT0=    0
 Petite list used in FoFCou.
 Initial guess <Sx>= 0.0000 <Sy>= 0.0000 <Sz>= 0.5000 <S**2>= 0.7500 S= 0.5000
 Keep R1 and R2 ints in memory in canonical form, NReq=194097766.
 Requested convergence on RMS density matrix=1.00D-08 within 128 cycles.
 Requested convergence on MAX density matrix=1.00D-06.
 Requested convergence on             energy=1.00D-06.
 No special actions if energy rises.
 Inv3:  Mode=1 IEnd=     2840187.
 Iteration    1 A*A^-1 deviation from unit magnitude is 4.77D-15 for    472.
 Iteration    1 A*A^-1 deviation from orthogonality  is 4.19D-15 for    277    222.
 Iteration    1 A^-1*A deviation from unit magnitude is 3.44D-15 for    472.
 Iteration    1 A^-1*A deviation from orthogonality  is 1.45D-15 for    959    459.
 Error on total polarization charges =  0.04375
 SCF Done:  E(UM062X) =  -446.783511964     A.U. after   19 cycles
            NFock= 19  Conv=0.60D-08     -V/T= 2.0072
 <Sx>= 0.0000 <Sy>= 0.0000 <Sz>= 0.5000 <S**2>= 0.7622 S= 0.5061
 <L.S>= 0.000000000000E+00
 SMD-CDS (non-electrostatic) energy       (kcal/mol) =       2.94
 (included in total energy above)
 Annihilation of the first spin contaminant:
 S**2 before annihilation     0.7622,   after     0.7501

 **********************************************************************

            Population analysis using the SCF density.

 **********************************************************************

 Orbital symmetries:
 Alpha Orbitals:
       Occupied  (A) (A) (A) (A) (A) (A) (A) (A) (A) (A) (A) (A)
                 (A) (A) (A) (A) (A) (A) (A) (A) (A) (A) (A) (A)
                 (A) (A) (A) (A) (A) (A)
       Virtual   (A) (A) (A) (A) (A) (A) (A) (A) (A) (A) (A) (A)
                 (A) (A) (A) (A) (A) (A) (A) (A) (A) (A) (A) (A)
                 (A) (A) (A) (A) (A) (A) (A) (A) (A) (A) (A) (A)
                 (A) (A) (A) (A) (A) (A) (A) (A) (A) (A) (A) (A)
                 (A) (A) (A) (A) (A) (A) (A) (A) (A) (A) (A) (A)
                 (A) (A) (A) (A) (A) (A) (A) (A) (A) (A) (A) (A)
                 (A) (A) (A) (A) (A) (A) (A) (A) (A) (A) (A) (A)
                 (A) (A) (A) (A) (A) (A) (A) (A) (A) (A) (A) (A)
                 (A) (A) (A) (A) (A) (A) (A) (A) (A) (A) (A) (A)
                 (A) (A) (A) (A) (A) (A) (A) (A) (A) (A) (A) (A)
                 (A) (A) (A) (A) (A) (A) (A) (A) (A) (A) (A) (A)
 Beta  Orbitals:
       Occupied  (A) (A) (A) (A) (A) (A) (A) (A) (A) (A) (A) (A)
                 (A) (A) (A) (A) (A) (A) (A) (A) (A) (A) (A) (A)
                 (A) (A) (A) (A) (A)
       Virtual   (A) (A) (A) (A) (A) (A) (A) (A) (A) (A) (A) (A)
                 (A) (A) (A) (A) (A) (A) (A) (A) (A) (A) (A) (A)
                 (A) (A) (A) (A) (A) (A) (A) (A) (A) (A) (A) (A)
                 (A) (A) (A) (A) (A) (A) (A) (A) (A) (A) (A) (A)
                 (A) (A) (A) (A) (A) (A) (A) (A) (A) (A) (A) (A)
                 (A) (A) (A) (A) (A) (A) (A) (A) (A) (A) (A) (A)
                 (A) (A) (A) (A) (A) (A) (A) (A) (A) (A) (A) (A)
                 (A) (A) (A) (A) (A) (A) (A) (A) (A) (A) (A) (A)
                 (A) (A) (A) (A) (A) (A) (A) (A) (A) (A) (A) (A)
                 (A) (A) (A) (A) (A) (A) (A) (A) (A) (A) (A) (A)
                 (A) (A) (A) (A) (A) (A) (A) (A) (A) (A) (A) (A)
                 (A)
 The electronic state is 2-A.
 Alpha  occ. eigenvalues --  -19.69179 -19.62930 -14.85497 -14.78557 -14.77565
 Alpha  occ. eigenvalues --  -14.76632 -10.70120 -10.58568  -1.26706  -1.22783
 Alpha  occ. eigenvalues --   -1.15575  -1.03903  -0.96806  -0.78089  -0.72082
 Alpha  occ. eigenvalues --   -0.70647  -0.64939  -0.59164  -0.55586  -0.52666
 Alpha  occ. eigenvalues --   -0.52504  -0.48893  -0.43839  -0.41437  -0.38695
 Alpha  occ. eigenvalues --   -0.38388  -0.37017  -0.35192  -0.34234  -0.14187
 Alpha virt. eigenvalues --    0.02276   0.04552   0.04757   0.05129   0.06707
 Alpha virt. eigenvalues --    0.06973   0.07088   0.09572   0.10518   0.10923
 Alpha virt. eigenvalues --    0.10932   0.15599   0.15719   0.16849   0.19730
 Alpha virt. eigenvalues --    0.20266   0.21675   0.22181   0.22326   0.23320
 Alpha virt. eigenvalues --    0.23916   0.24304   0.25233   0.26103   0.26742
 Alpha virt. eigenvalues --    0.27495   0.28649   0.29454   0.29659   0.30136
 Alpha virt. eigenvalues --    0.31103   0.32152   0.33595   0.34765   0.35325
 Alpha virt. eigenvalues --    0.38093   0.38595   0.41885   0.44833   0.48053
 Alpha virt. eigenvalues --    0.48332   0.50823   0.56849   0.66166   0.73647
 Alpha virt. eigenvalues --    0.79538   0.82139   0.84039   0.88190   0.91660
 Alpha virt. eigenvalues --    0.95742   0.96697   0.96749   0.99018   0.99200
 Alpha virt. eigenvalues --    1.01106   1.01760   1.04228   1.05308   1.08694
 Alpha virt. eigenvalues --    1.12419   1.15727   1.20583   1.22111   1.22448
 Alpha virt. eigenvalues --    1.27432   1.28088   1.30963   1.33087   1.33321
 Alpha virt. eigenvalues --    1.36845   1.39462   1.39727   1.40631   1.43653
 Alpha virt. eigenvalues --    1.44366   1.46690   1.48884   1.51807   1.58251
 Alpha virt. eigenvalues --    1.62504   1.63355   1.63686   1.66824   1.75828
 Alpha virt. eigenvalues --    1.82197   1.85971   1.93065   1.96763   1.97215
 Alpha virt. eigenvalues --    2.01498   2.01741   2.03740   2.12973   2.17009
 Alpha virt. eigenvalues --    2.21974   2.23644   2.29431   2.33611   2.37275
 Alpha virt. eigenvalues --    2.40787   2.43561   2.48230   2.52656   2.55942
 Alpha virt. eigenvalues --    2.57509   2.62784   2.67289   2.68465   2.72156
 Alpha virt. eigenvalues --    2.73515   2.78463   2.79706   2.86266   2.87164
 Alpha virt. eigenvalues --    2.96287   3.01216   3.04731   3.08280   3.18911
 Alpha virt. eigenvalues --    3.28443   3.37722   3.57922   3.58093   4.03061
 Alpha virt. eigenvalues --    4.08601   4.21183   4.28746   4.34353   4.53885
 Alpha virt. eigenvalues --    4.56851   4.78154
  Beta  occ. eigenvalues --  -19.69101 -19.62701 -14.85422 -14.77983 -14.77231
  Beta  occ. eigenvalues --  -14.76527 -10.69977 -10.58605  -1.26033  -1.22173
  Beta  occ. eigenvalues --   -1.15007  -1.02860  -0.95917  -0.76946  -0.71633
  Beta  occ. eigenvalues --   -0.70265  -0.64109  -0.57312  -0.55040  -0.52361
  Beta  occ. eigenvalues --   -0.50920  -0.48614  -0.42883  -0.39594  -0.38127
  Beta  occ. eigenvalues --   -0.36183  -0.35211  -0.33365  -0.32448
  Beta virt. eigenvalues --    0.01861   0.01990   0.04313   0.04637   0.04774
  Beta virt. eigenvalues --    0.06583   0.06710   0.07762   0.10402   0.10714
  Beta virt. eigenvalues --    0.11347   0.12982   0.14956   0.15490   0.16564
  Beta virt. eigenvalues --    0.19608   0.20438   0.21536   0.21749   0.22275
  Beta virt. eigenvalues --    0.23244   0.23343   0.24314   0.25291   0.26200
  Beta virt. eigenvalues --    0.26766   0.26832   0.28732   0.29257   0.29543
  Beta virt. eigenvalues --    0.29925   0.31018   0.32195   0.33798   0.34338
  Beta virt. eigenvalues --    0.35211   0.38029   0.38454   0.41604   0.44706
  Beta virt. eigenvalues --    0.48339   0.48461   0.51023   0.57254   0.66576
  Beta virt. eigenvalues --    0.73460   0.80395   0.82448   0.84110   0.88424
  Beta virt. eigenvalues --    0.91587   0.95743   0.96913   0.98405   0.99346
  Beta virt. eigenvalues --    0.99986   1.01181   1.03542   1.05244   1.05413
  Beta virt. eigenvalues --    1.08680   1.12496   1.16179   1.20910   1.22391
  Beta virt. eigenvalues --    1.22681   1.27455   1.29018   1.30904   1.33234
  Beta virt. eigenvalues --    1.33958   1.36958   1.39580   1.40535   1.40866
  Beta virt. eigenvalues --    1.43731   1.45357   1.46944   1.49794   1.52187
  Beta virt. eigenvalues --    1.58440   1.63528   1.64133   1.64161   1.67102
  Beta virt. eigenvalues --    1.76041   1.82694   1.86167   1.93378   1.96922
  Beta virt. eigenvalues --    1.97544   2.01810   2.02499   2.03909   2.13015
  Beta virt. eigenvalues --    2.17377   2.22381   2.24067   2.30162   2.34047
  Beta virt. eigenvalues --    2.37755   2.41459   2.43787   2.48512   2.53089
  Beta virt. eigenvalues --    2.56395   2.58152   2.63468   2.67527   2.68642
  Beta virt. eigenvalues --    2.72676   2.74069   2.78989   2.80651   2.86554
  Beta virt. eigenvalues --    2.87554   2.96579   3.01549   3.05100   3.08521
  Beta virt. eigenvalues --    3.19213   3.29032   3.38170   3.58016   3.58108
  Beta virt. eigenvalues --    4.03215   4.08772   4.21233   4.28912   4.34455
  Beta virt. eigenvalues --    4.53772   4.58318   4.78155
          Condensed to atoms (all electrons):
               1          2          3          4          5          6
     1  N    7.733617  -0.120297  -0.200616  -0.137207   0.312565  -0.037839
     2  N   -0.120297   7.569159  -0.573596   0.302341  -0.213129   0.253809
     3  N   -0.200616  -0.573596   8.241320  -0.287336   0.118928  -0.067404
     4  N   -0.137207   0.302341  -0.287336   7.355863   0.271092   0.001019
     5  C    0.312565  -0.213129   0.118928   0.271092   5.126107  -0.005582
     6  C   -0.037839   0.253809  -0.067404   0.001019  -0.005582   4.496835
     7  O    0.036936  -0.111695  -0.038204   0.009914  -0.009014   0.382696
     8  O   -0.043276  -0.126853   0.013231   0.000164  -0.010945   0.240241
     9  H    0.041672  -0.018752  -0.002141  -0.000934   0.002757  -0.007212
    10  H   -0.058002  -0.001286   0.011908  -0.048547   0.428627   0.000103
               7          8          9         10
     1  N    0.036936  -0.043276   0.041672  -0.058002
     2  N   -0.111695  -0.126853  -0.018752  -0.001286
     3  N   -0.038204   0.013231  -0.002141   0.011908
     4  N    0.009914   0.000164  -0.000934  -0.048547
     5  C   -0.009014  -0.010945   0.002757   0.428627
     6  C    0.382696   0.240241  -0.007212   0.000103
     7  O    8.449630  -0.075737   0.008060   0.000016
     8  O   -0.075737   8.309221   0.247066  -0.000080
     9  H    0.008060   0.247066   0.280310  -0.000012
    10  H    0.000016  -0.000080  -0.000012   0.463042
          Atomic-Atomic Spin Densities.
               1          2          3          4          5          6
     1  N    0.517681  -0.196294   0.105867  -0.056407  -0.120737  -0.040289
     2  N   -0.196294   0.285904  -0.304426   0.093153   0.059922   0.143861
     3  N    0.105867  -0.304426   0.906359  -0.278965  -0.041303  -0.051405
     4  N   -0.056407   0.093153  -0.278965   0.265019   0.074090   0.009739
     5  C   -0.120737   0.059922  -0.041303   0.074090  -0.007997   0.003229
     6  C   -0.040289   0.143861  -0.051405   0.009739   0.003229   0.278054
     7  O    0.010457  -0.046349   0.032646  -0.005078  -0.001990  -0.102454
     8  O    0.017058  -0.026586   0.006464  -0.001384  -0.001897  -0.050501
     9  H    0.000265  -0.001641   0.000170  -0.000113  -0.000099   0.000576
    10  H   -0.003127   0.002240  -0.000685   0.000909   0.001205   0.000002
               7          8          9         10
     1  N    0.010457   0.017058   0.000265  -0.003127
     2  N   -0.046349  -0.026586  -0.001641   0.002240
     3  N    0.032646   0.006464   0.000170  -0.000685
     4  N   -0.005078  -0.001384  -0.000113   0.000909
     5  C   -0.001990  -0.001897  -0.000099   0.001205
     6  C   -0.102454  -0.050501   0.000576   0.000002
     7  O    0.203188   0.015056  -0.000091   0.000002
     8  O    0.015056   0.062026   0.000410  -0.000006
     9  H   -0.000091   0.000410  -0.000804   0.000001
    10  H    0.000002  -0.000006   0.000001  -0.000421
 Mulliken charges and spin densities:
               1          2
     1  N   -0.527551   0.234474
     2  N    0.040299   0.009785
     3  N   -0.216091   0.374721
     4  N   -0.466368   0.100963
     5  C   -0.021407  -0.035576
     6  C    0.743335   0.190811
     7  O   -0.652601   0.105387
     8  O   -0.553033   0.020640
     9  H    0.449187  -0.001325
    10  H    0.204232   0.000120
 Sum of Mulliken charges =  -1.00000   1.00000
 Mulliken charges and spin densities with hydrogens summed into heavy atoms:
               1          2
     1  N   -0.527551   0.234474
     2  N    0.040299   0.009785
     3  N   -0.216091   0.374721
     4  N   -0.466368   0.100963
     5  C    0.182825  -0.035456
     6  C    0.743335   0.190811
     7  O   -0.652601   0.105387
     8  O   -0.103847   0.019315
 Electronic spatial extent (au):  <R**2>=            811.9952
 Charge=             -1.0000 electrons
 Dipole moment (field-independent basis, Debye):
    X=             -1.0876    Y=              7.1486    Z=              0.0018  Tot=              7.2309
 Quadrupole moment (field-independent basis, Debye-Ang):
   XX=            -66.4927   YY=            -56.7671   ZZ=            -47.8233
   XY=             -1.0567   XZ=              0.0071   YZ=              0.0056
 Traceless Quadrupole moment (field-independent basis, Debye-Ang):
   XX=             -9.4650   YY=              0.2606   ZZ=              9.2044
   XY=             -1.0567   XZ=              0.0071   YZ=              0.0056
 Octapole moment (field-independent basis, Debye-Ang**2):
  XXX=             -9.8885  YYY=             25.8026  ZZZ=              0.0009  XYY=              4.9373
  XXY=             31.1528  XXZ=             -0.0050  XZZ=              6.5507  YZZ=              1.3982
  YYZ=              0.0100  XYZ=             -0.0018
 Hexadecapole moment (field-independent basis, Debye-Ang**3):
 XXXX=           -844.6181 YYYY=           -291.1857 ZZZZ=            -48.5010 XXXY=            -43.5044
 XXXZ=              0.0377 YYYX=             13.9456 YYYZ=              0.0303 ZZZX=              0.0058
 ZZZY=              0.0105 XXYY=           -191.6865 XXZZ=           -137.6941 YYZZ=            -59.1789
 XXYZ=             -0.0020 YYXZ=              0.0210 ZZXY=              0.2414
 N-N= 3.664987515793D+02 E-N=-1.789901279521D+03  KE= 4.435709397558D+02
                          Isotropic Fermi Contact Couplings
        Atom                 a.u.       MegaHertz       Gauss      10(-4) cm-1
     1  N(14)              0.05902      19.06895       6.80427       6.36072
     2  N(14)             -0.01239      -4.00241      -1.42816      -1.33506
     3  N(14)              0.09794      31.64522      11.29180      10.55571
     4  N(14)              0.01531       4.94552       1.76469       1.64965
     5  C(13)             -0.01211     -13.61644      -4.85869      -4.54196
     6  C(13)              0.02842      31.94923      11.40028      10.65712
     7  O(17)              0.02599     -15.75743      -5.62264      -5.25611
     8  O(17)              0.00572      -3.46544      -1.23656      -1.15595
     9  H(1)              -0.00064      -2.88107      -1.02804      -0.96102
    10  H(1)              -0.00012      -0.55840      -0.19925      -0.18626
 --------------------------------------------------------
       Center         ----  Spin Dipole Couplings  ----
                      3XX-RR        3YY-RR        3ZZ-RR
 --------------------------------------------------------
     1   Atom       -0.260485     -0.252034      0.512519
     2   Atom       -0.085734     -0.091721      0.177455
     3   Atom       -0.437527     -0.436451      0.873978
     4   Atom       -0.104233     -0.098942      0.203175
     5   Atom        0.016827      0.017608     -0.034435
     6   Atom       -0.106352     -0.121172      0.227524
     7   Atom       -0.214373     -0.228415      0.442787
     8   Atom       -0.080418     -0.083427      0.163845
     9   Atom        0.000585      0.006630     -0.007214
    10   Atom        0.001718      0.003094     -0.004811
 --------------------------------------------------------
                        XY            XZ            YZ
 --------------------------------------------------------
     1   Atom       -0.000560     -0.000017      0.000389
     2   Atom        0.003454     -0.000015      0.000102
     3   Atom        0.001552      0.000206      0.000689
     4   Atom       -0.001972      0.000072      0.000090
     5   Atom        0.001182     -0.000030     -0.000048
     6   Atom       -0.003347     -0.000041     -0.000144
     7   Atom        0.006232     -0.000008     -0.000401
     8   Atom       -0.005802      0.000006     -0.000252
     9   Atom       -0.000137     -0.000001      0.000010
    10   Atom       -0.003581      0.000000     -0.000004
 --------------------------------------------------------


 ---------------------------------------------------------------------------------
              Anisotropic Spin Dipole Couplings in Principal Axis System
 ---------------------------------------------------------------------------------

       Atom             a.u.   MegaHertz   Gauss  10(-4) cm-1        Axes

              Baa    -0.2605   -10.048    -3.585    -3.352  0.9978  0.0659 -0.0000
     1 N(14)  Bbb    -0.2520    -9.719    -3.468    -3.242 -0.0659  0.9978 -0.0005
              Bcc     0.5125    19.767     7.053     6.593 -0.0000  0.0005  1.0000
 
              Baa    -0.0933    -3.598    -1.284    -1.200 -0.4154  0.9096 -0.0004
     2 N(14)  Bbb    -0.0842    -3.246    -1.158    -1.083  0.9096  0.4154 -0.0001
              Bcc     0.1775     6.844     2.442     2.283 -0.0001  0.0004  1.0000
 
              Baa    -0.4386   -16.917    -6.036    -5.643  0.8146 -0.5800  0.0002
     3 N(14)  Bbb    -0.4353   -16.790    -5.991    -5.601  0.5800  0.8146 -0.0005
              Bcc     0.8740    33.707    12.028    11.244  0.0002  0.0005  1.0000
 
              Baa    -0.1049    -4.045    -1.443    -1.349  0.9491  0.3149 -0.0003
     4 N(14)  Bbb    -0.0983    -3.791    -1.353    -1.264 -0.3149  0.9491 -0.0002
              Bcc     0.2032     7.836     2.796     2.614  0.0002  0.0003  1.0000
 
              Baa    -0.0344    -4.621    -1.649    -1.541  0.0006  0.0009  1.0000
     5 C(13)  Bbb     0.0160     2.143     0.765     0.715  0.8105 -0.5858  0.0001
              Bcc     0.0185     2.477     0.884     0.826  0.5858  0.8105 -0.0011
 
              Baa    -0.1219   -16.357    -5.837    -5.456  0.2105  0.9776  0.0004
     6 C(13)  Bbb    -0.1056   -14.175    -5.058    -4.728  0.9776 -0.2105  0.0000
              Bcc     0.2275    30.532    10.894    10.184 -0.0001 -0.0004  1.0000
 
              Baa    -0.2308    16.699     5.959     5.570 -0.3550  0.9349  0.0006
     7 O(17)  Bbb    -0.2120    15.341     5.474     5.117  0.9349  0.3550  0.0002
              Bcc     0.4428   -32.040   -11.433   -10.687 -0.0000 -0.0006  1.0000
 
              Baa    -0.0879     6.362     2.270     2.122  0.6120  0.7909  0.0008
     8 O(17)  Bbb    -0.0759     5.494     1.960     1.833  0.7909 -0.6120 -0.0007
              Bcc     0.1638   -11.856    -4.230    -3.955  0.0000 -0.0010  1.0000
 
              Baa    -0.0072    -3.849    -1.373    -1.284  0.0001 -0.0007  1.0000
     9 H(1)   Bbb     0.0006     0.310     0.111     0.103  0.9997  0.0226 -0.0001
              Bcc     0.0066     3.539     1.263     1.180 -0.0226  0.9997  0.0007
 
              Baa    -0.0048    -2.567    -0.916    -0.856  0.0003  0.0007  1.0000
    10 H(1)   Bbb    -0.0012    -0.662    -0.236    -0.221  0.7709  0.6369 -0.0007
              Bcc     0.0061     3.229     1.152     1.077 -0.6369  0.7709 -0.0003
 

 ---------------------------------------------------------------------------------

 D1PCM: PCM CHGder 1st derivatives, ID1Alg=3 FixD1E=F DoIter=F DoCFld=F I1PDM=0.
 Calling FoFJK, ICntrl=      2127 FMM=F ISym2X=0 I1Cent= 0 IOpClX= 1 NMat=1 NMatS=1 NMatT=0.
 ***** Axes restored to original set *****
 -------------------------------------------------------------------
 Center     Atomic                   Forces (Hartrees/Bohr)
 Number     Number              X              Y              Z
 -------------------------------------------------------------------
      1        7          -0.001151415    0.043714358   -0.000012990
      2        7          -0.093780986    0.004141403    0.000007132
      3        7          -0.025819212   -0.056236809   -0.000013547
      4        7           0.055777557    0.040246353    0.000001558
      5        6           0.018049647   -0.031604392    0.000011666
      6        6           0.100047027    0.022839602   -0.000004101
      7        8          -0.035508639   -0.047925224    0.000011406
      8        8          -0.019282294    0.030142901   -0.000004325
      9        1           0.001146480   -0.005398443    0.000011127
     10        1           0.000521835    0.000080251   -0.000007925
 -------------------------------------------------------------------
 Cartesian Forces:  Max     0.100047027 RMS     0.034645309

 GradGradGradGradGradGradGradGradGradGradGradGradGradGradGradGradGradGrad
 Berny optimization.
 FormGI is forming the generalized inverse of G from B-inverse, IUseBI=4.
 Internal  Forces:  Max     0.059023661 RMS     0.019476024
 Search for a local minimum.
 Step number   1 out of a maximum of   48
 All quantities printed in internal units (Hartrees-Bohrs-Radians)
 Mixed Optimization -- RFO/linear search
 Second derivative matrix not updated -- first step.
 ITU=  0
     Eigenvalues ---    0.01174   0.01753   0.01772   0.02349   0.02481
     Eigenvalues ---    0.02562   0.02850   0.16000   0.16000   0.23494
     Eigenvalues ---    0.25000   0.25000   0.25000   0.25000   0.36201
     Eigenvalues ---    0.39705   0.47948   0.52005   0.56895   0.57599
     Eigenvalues ---    0.62463   0.63845   0.67853   1.05780
 RFO step:  Lambda=-2.28862318D-02 EMin= 1.17419632D-02
 Linear search not attempted -- first point.
 Iteration  1 RMS(Cart)=  0.03648573 RMS(Int)=  0.00079707
 Iteration  2 RMS(Cart)=  0.00080135 RMS(Int)=  0.00011753
 Iteration  3 RMS(Cart)=  0.00000064 RMS(Int)=  0.00011753
 Variable       Old X    -DE/DX   Delta X   Delta X   Delta X     New X
                                 (Linear)    (Quad)   (Total)
    R1        2.50559   0.03543   0.00000   0.05920   0.05936   2.56495
    R2        2.47869   0.02703   0.00000   0.03612   0.03601   2.51469
    R3        2.50068   0.04075   0.00000   0.07038   0.07058   2.57126
    R4        2.71956  -0.04635   0.00000  -0.11038  -0.11038   2.60918
    R5        2.43950   0.05634   0.00000   0.07943   0.07939   2.51889
    R6        2.57352  -0.01578   0.00000  -0.03487  -0.03509   2.53843
    R7        2.03768   0.00046   0.00000   0.00121   0.00121   2.03888
    R8        2.26409   0.05902   0.00000   0.05462   0.05462   2.31871
    R9        2.48022   0.03024   0.00000   0.04573   0.04573   2.52595
   R10        1.84595  -0.00338   0.00000  -0.00622  -0.00622   1.83973
    A1        1.76871   0.00138   0.00000  -0.00346  -0.00340   1.76531
    A2        1.99194  -0.00880   0.00000  -0.01670  -0.01640   1.97554
    A3        2.15905   0.00024   0.00000  -0.00689  -0.00704   2.15201
    A4        2.13219   0.00856   0.00000   0.02359   0.02344   2.15564
    A5        1.84773  -0.01041   0.00000  -0.01629  -0.01607   1.83166
    A6        1.85910   0.00552   0.00000   0.00838   0.00806   1.86716
    A7        1.95730   0.01230   0.00000   0.02808   0.02781   1.98511
    A8        2.16349  -0.00589   0.00000  -0.01260  -0.01246   2.15102
    A9        2.16240  -0.00642   0.00000  -0.01548  -0.01535   2.14705
   A10        2.10710   0.01129   0.00000   0.04137   0.04137   2.14846
   A11        1.98917  -0.00319   0.00000  -0.01170  -0.01170   1.97747
   A12        2.18692  -0.00809   0.00000  -0.02966  -0.02966   2.15726
   A13        1.98052  -0.00804   0.00000  -0.04397  -0.04397   1.93655
    D1        0.00011  -0.00001   0.00000  -0.00019  -0.00019  -0.00008
    D2       -3.14141  -0.00001   0.00000  -0.00012  -0.00012  -3.14153
    D3       -0.00017   0.00001   0.00000   0.00022   0.00023   0.00006
    D4       -3.14140  -0.00001   0.00000  -0.00010  -0.00010  -3.14150
    D5       -0.00002   0.00000   0.00000   0.00008   0.00008   0.00006
    D6        3.14151  -0.00000   0.00000   0.00001   0.00001   3.14152
    D7       -3.14072  -0.00002   0.00000  -0.00045  -0.00045  -3.14117
    D8        0.00084  -0.00002   0.00000  -0.00051  -0.00051   0.00033
    D9        0.00095  -0.00001   0.00000  -0.00037  -0.00037   0.00058
   D10       -3.14068  -0.00001   0.00000  -0.00043  -0.00043  -3.14111
   D11       -0.00009   0.00000   0.00000   0.00007   0.00006  -0.00002
   D12        0.00017  -0.00001   0.00000  -0.00019  -0.00019  -0.00003
   D13        3.14141   0.00001   0.00000   0.00013   0.00013   3.14154
   D14        0.00045  -0.00000   0.00000  -0.00009  -0.00009   0.00036
   D15       -3.14118  -0.00001   0.00000  -0.00015  -0.00015  -3.14133
         Item               Value     Threshold  Converged?
 Maximum Force            0.059024     0.000450     NO 
 RMS     Force            0.019476     0.000300     NO 
 Maximum Displacement     0.124965     0.001800     NO 
 RMS     Displacement     0.036671     0.001200     NO 
 Predicted change in Energy=-1.191136D-02
 GradGradGradGradGradGradGradGradGradGradGradGradGradGradGradGradGradGrad

                          Input orientation:                          
 ---------------------------------------------------------------------
 Center     Atomic      Atomic             Coordinates (Angstroms)
 Number     Number       Type             X           Y           Z
 ---------------------------------------------------------------------
      1          7           0        0.729527    1.102802    0.000213
      2          7           0        0.029131   -0.059842    0.000043
      3          7           0        0.823985   -1.164188   -0.000196
      4          7           0        2.070067   -0.690894   -0.000097
      5          6           0        1.980623    0.649405    0.000164
      6          6           0       -1.350538   -0.113704   -0.000054
      7          8           0       -1.979964   -1.166972    0.000229
      8          8           0       -1.926750    1.092394   -0.000363
      9          1           0       -1.256510    1.798483   -0.000794
     10          1           0        2.844163    1.296236    0.000345
 ---------------------------------------------------------------------
                    Distance matrix (angstroms):
                    1          2          3          4          5
     1  N    0.000000
     2  N    1.357312   0.000000
     3  N    2.268956   1.360652   0.000000
     4  N    2.239283   2.136270   1.332939   0.000000
     5  C    1.330717   2.076380   2.151029   1.343280   0.000000
     6  C    2.409680   1.380719   2.414967   3.468960   3.417450
     7  O    3.534574   2.293948   2.803951   4.077916   4.357232
     8  O    2.656298   2.270048   3.557908   4.376604   3.932404
     9  H    2.104357   2.259700   3.620204   4.154890   3.435027
    10  H    2.123464   3.124637   3.183520   2.132583   1.078931
                    6          7          8          9         10
     6  C    0.000000
     7  O    1.227009   0.000000
     8  O    1.336673   2.259993   0.000000
     9  H    1.914498   3.052427   0.973541   0.000000
    10  H    4.425318   5.416603   4.775266   4.131316   0.000000
 Stoichiometry    C2H2N4O2(1-,2)
 Framework group  C1[X(C2H2N4O2)]
 Deg. of freedom    24
 Full point group                 C1      NOp   1
 Largest Abelian subgroup         C1      NOp   1
 Largest concise Abelian subgroup C1      NOp   1
                         Standard orientation:                         
 ---------------------------------------------------------------------
 Center     Atomic      Atomic             Coordinates (Angstroms)
 Number     Number       Type             X           Y           Z
 ---------------------------------------------------------------------
      1          7           0       -0.742041    1.097591   -0.000232
      2          7           0       -0.034201   -0.060536   -0.000062
      3          7           0       -0.821956   -1.169957    0.000177
      4          7           0       -2.071048   -0.704666    0.000077
      5          6           0       -1.990203    0.636179   -0.000183
      6          6           0        1.345784   -0.105547    0.000035
      7          8           0        1.981953   -1.154756   -0.000248
      8          8           0        1.914248    1.104222    0.000344
      9          1           0        1.239493    1.805997    0.000775
     10          1           0       -2.857874    1.277458   -0.000365
 ---------------------------------------------------------------------
 Rotational constants (GHZ):           5.3935017           1.8197099           1.3606434
 Standard basis: 6-31+G(d,p) (6D, 7F)
 There are   162 symmetry adapted cartesian basis functions of A   symmetry.
 There are   162 symmetry adapted basis functions of A   symmetry.
   162 basis functions,   270 primitive gaussians,   162 cartesian basis functions
    30 alpha electrons       29 beta electrons
       nuclear repulsion energy       363.8937352056 Hartrees.
 NAtoms=   10 NActive=   10 NUniq=   10 SFac= 1.00D+00 NAtFMM=   60 NAOKFM=F Big=F
 Integral buffers will be    131072 words long.
 Raffenetti 2 integral format.
 Two-electron integral symmetry is turned on.
 ------------------------------------------------------------------------------
 Polarizable Continuum Model (PCM)
 =================================
 Model                : PCM.
 Atomic radii         : SMD-Coulomb.
 Polarization charges : Total charges.
 Charge compensation  : None.
 Solution method      : On-the-fly selection.
 Cavity type          : VdW (van der Waals Surface) (Alpha=1.000).
 Cavity algorithm     : GePol (No added spheres)
                        Default sphere list used, NSphG=   10.
                        Lebedev-Laikov grids with approx.  5.0 points / Ang**2.
                        Smoothing algorithm: York/Karplus (Gamma=1.0000).
                        Polarization charges: spherical gaussians, with
                                              point-specific exponents (IZeta= 3).
                        Self-potential: point-specific (ISelfS= 7).
                        Self-field    : sphere-specific E.n sum rule (ISelfD= 2).
 1st derivatives      : Analytical E(r).r(x)/FMM algorithm (CHGder, D1EAlg=3).
                        Cavity 1st derivative terms included.
 Solvent              : Water, Eps=  78.355300 Eps(inf)=   1.777849
 ------------------------------------------------------------------------------
 Spheres list:
 ISph  on   Nord     Re0    Alpha      Xe            Ye            Ze
    1   N      1    1.8900  1.000     -0.742041      1.097591     -0.000232
    2   N      2    1.8900  1.000     -0.034201     -0.060536     -0.000062
    3   N      3    1.8900  1.000     -0.821956     -1.169957      0.000177
    4   N      4    1.8900  1.000     -2.071048     -0.704666      0.000077
    5   C      5    1.8500  1.000     -1.990203      0.636179     -0.000183
    6   C      6    1.8500  1.000      1.345784     -0.105547      0.000035
    7   O      7    1.5200  1.000      1.981953     -1.154756     -0.000248
    8   O      8    1.5200  1.000      1.914248      1.104222      0.000344
    9   H      9    1.2000  1.000      1.239493      1.805997      0.000775
   10   H     10    1.2000  1.000     -2.857874      1.277458     -0.000365
 ------------------------------------------------------------------------------
 ------------------------------------------------------------------------------
 Atomic radii for non-electrostatic terms: SMD-CDS.
 ------------------------------------------------------------------------------
 Nuclear repulsion after PCM non-electrostatic terms =      363.8984256684 Hartrees.
 One-electron integrals computed using PRISM.
 NBasis=   162 RedAO= T EigKep=  4.68D-05  NBF=   162
 NBsUse=   162 1.00D-06 EigRej= -1.00D+00 NBFU=   162
 Initial guess from the checkpoint file:  "/scratch/gongke2021/sidanzuo-PC/Gau-9101.chk"
 B after Tr=    -0.000000    0.000000   -0.000000
         Rot=    0.999995   -0.000020    0.000020   -0.003249 Ang=  -0.37 deg.
 Initial guess <Sx>= 0.0000 <Sy>= 0.0000 <Sz>= 0.5000 <S**2>= 0.7623 S= 0.5061
 ExpMin= 4.38D-02 ExpMax= 5.48D+03 ExpMxC= 8.25D+02 IAcc=2 IRadAn=         4 AccDes= 0.00D+00
 Harris functional with IExCor= 1009 and IRadAn=       4 diagonalized for initial guess.
 HarFok:  IExCor= 1009 AccDes= 0.00D+00 IRadAn=         4 IDoV= 1 UseB2=F ITyADJ=14
 ICtDFT=  3500011 ScaDFX=  1.000000  1.000000  1.000000  1.000000
 FoFCou: FMM=F IPFlag=           0 FMFlag=      100000 FMFlg1=           0
         NFxFlg=           0 DoJE=T BraDBF=F KetDBF=T FulRan=T
         wScrn=  0.000000 ICntrl=       500 IOpCl=  0 I1Cent=   200000004 NGrid=           0
         NMat0=    1 NMatS0=      1 NMatT0=    0 NMatD0=    1 NMtDS0=    0 NMtDT0=    0
 Petite list used in FoFCou.
 Keep R1 and R2 ints in memory in canonical form, NReq=194097766.
 Requested convergence on RMS density matrix=1.00D-08 within 128 cycles.
 Requested convergence on MAX density matrix=1.00D-06.
 Requested convergence on             energy=1.00D-06.
 No special actions if energy rises.
 Inv3:  Mode=1 IEnd=     2822700.
 Iteration    1 A*A^-1 deviation from unit magnitude is 2.66D-15 for    156.
 Iteration    1 A*A^-1 deviation from orthogonality  is 1.47D-15 for    602    169.
 Iteration    1 A^-1*A deviation from unit magnitude is 2.22D-15 for    156.
 Iteration    1 A^-1*A deviation from orthogonality  is 3.09D-15 for    358    277.
 Error on total polarization charges =  0.04324
 SCF Done:  E(UM062X) =  -446.798225370     A.U. after   16 cycles
            NFock= 16  Conv=0.85D-08     -V/T= 2.0080
 <Sx>= 0.0000 <Sy>= 0.0000 <Sz>= 0.5000 <S**2>= 0.7643 S= 0.5071
 <L.S>= 0.000000000000E+00
 SMD-CDS (non-electrostatic) energy       (kcal/mol) =       2.94
 (included in total energy above)
 Annihilation of the first spin contaminant:
 S**2 before annihilation     0.7643,   after     0.7501
 D1PCM: PCM CHGder 1st derivatives, ID1Alg=3 FixD1E=F DoIter=F DoCFld=F I1PDM=0.
 Calling FoFJK, ICntrl=      2127 FMM=F ISym2X=0 I1Cent= 0 IOpClX= 1 NMat=1 NMatS=1 NMatT=0.
 ***** Axes restored to original set *****
 -------------------------------------------------------------------
 Center     Atomic                   Forces (Hartrees/Bohr)
 Number     Number              X              Y              Z
 -------------------------------------------------------------------
      1        7           0.003842234    0.016125082    0.000003802
      2        7          -0.027000806   -0.002029953   -0.000007110
      3        7          -0.004929618   -0.020099421    0.000000877
      4        7           0.011872204    0.016947810    0.000008737
      5        6           0.000242754   -0.015475696   -0.000007226
      6        6           0.037488833    0.002815509    0.000009880
      7        8          -0.009869080   -0.007106092   -0.000005914
      8        8          -0.012812603    0.007618519   -0.000000729
      9        1           0.001389322   -0.000034257    0.000000460
     10        1          -0.000223241    0.001238498   -0.000002776
 -------------------------------------------------------------------
 Cartesian Forces:  Max     0.037488833 RMS     0.011388476

 GradGradGradGradGradGradGradGradGradGradGradGradGradGradGradGradGradGrad
 Berny optimization.
 Using GEDIIS/GDIIS optimizer.
 FormGI is forming the generalized inverse of G from B-inverse, IUseBI=4.
 Internal  Forces:  Max     0.016306688 RMS     0.005932686
 Search for a local minimum.
 Step number   2 out of a maximum of   48
 All quantities printed in internal units (Hartrees-Bohrs-Radians)
 Mixed Optimization -- RFO/linear search
 Update second derivatives using D2CorX and points    1    2
 DE= -1.47D-02 DEPred=-1.19D-02 R= 1.24D+00
 TightC=F SS=  1.41D+00  RLast= 2.04D-01 DXNew= 5.0454D-01 6.1235D-01
 Trust test= 1.24D+00 RLast= 2.04D-01 DXMaxT set to 5.05D-01
 ITU=  1  0
 Use linear search instead of GDIIS.
     Eigenvalues ---    0.01174   0.01737   0.01748   0.02350   0.02484
     Eigenvalues ---    0.02564   0.02850   0.15880   0.16065   0.22354
     Eigenvalues ---    0.23721   0.25000   0.25000   0.25622   0.35248
     Eigenvalues ---    0.36225   0.45589   0.52053   0.55919   0.57379
     Eigenvalues ---    0.62066   0.62914   0.67389   1.05342
 RFO step:  Lambda=-1.62825401D-03 EMin= 1.17419752D-02
 Quartic linear search produced a step of  0.44504.
 Iteration  1 RMS(Cart)=  0.01685729 RMS(Int)=  0.00030371
 Iteration  2 RMS(Cart)=  0.00039983 RMS(Int)=  0.00006448
 Iteration  3 RMS(Cart)=  0.00000007 RMS(Int)=  0.00006448
 Variable       Old X    -DE/DX   Delta X   Delta X   Delta X     New X
                                 (Linear)    (Quad)   (Total)
    R1        2.56495   0.01140   0.02642   0.00693   0.03342   2.59837
    R2        2.51469   0.00295   0.01602  -0.00966   0.00628   2.52098
    R3        2.57126   0.01285   0.03141   0.00765   0.03917   2.61043
    R4        2.60918  -0.01631  -0.04912  -0.01760  -0.06672   2.54246
    R5        2.51889   0.01316   0.03533  -0.00225   0.03308   2.55197
    R6        2.53843  -0.00836  -0.01562  -0.01384  -0.02957   2.50886
    R7        2.03888   0.00057   0.00054   0.00181   0.00235   2.04123
    R8        2.31871   0.01117   0.02431  -0.00533   0.01897   2.33768
    R9        2.52595   0.01175   0.02035   0.00931   0.02967   2.55561
   R10        1.83973   0.00092  -0.00277   0.00488   0.00211   1.84183
    A1        1.76531  -0.00261  -0.00151  -0.01758  -0.01909   1.74622
    A2        1.97554  -0.00041  -0.00730   0.01475   0.00761   1.98315
    A3        2.15201  -0.00079  -0.00313  -0.00739  -0.01060   2.14141
    A4        2.15564   0.00120   0.01043  -0.00736   0.00299   2.15863
    A5        1.83166  -0.00665  -0.00715  -0.01896  -0.02597   1.80569
    A6        1.86716   0.00371   0.00358   0.00844   0.01186   1.87902
    A7        1.98511   0.00596   0.01238   0.01336   0.02558   2.01069
    A8        2.15102  -0.00415  -0.00555  -0.01766  -0.02313   2.12790
    A9        2.14705  -0.00181  -0.00683   0.00430  -0.00246   2.14459
   A10        2.14846   0.00212   0.01841  -0.00337   0.01504   2.16350
   A11        1.97747   0.00692  -0.00521   0.04410   0.03889   2.01636
   A12        2.15726  -0.00903  -0.01320  -0.04073  -0.05393   2.10332
   A13        1.93655  -0.00190  -0.01957  -0.00049  -0.02006   1.91649
    D1       -0.00008   0.00000  -0.00008   0.00022   0.00013   0.00006
    D2       -3.14153   0.00000  -0.00005   0.00016   0.00010  -3.14142
    D3        0.00006  -0.00000   0.00010  -0.00028  -0.00018  -0.00012
    D4       -3.14150  -0.00000  -0.00004  -0.00009  -0.00013   3.14155
    D5        0.00006  -0.00000   0.00004  -0.00008  -0.00005   0.00002
    D6        3.14152  -0.00000   0.00000  -0.00002  -0.00002   3.14150
    D7       -3.14117  -0.00001  -0.00020  -0.00061  -0.00081   3.14121
    D8        0.00033  -0.00000  -0.00023  -0.00031  -0.00054  -0.00021
    D9        0.00058  -0.00001  -0.00017  -0.00068  -0.00084  -0.00027
   D10       -3.14111  -0.00000  -0.00019  -0.00038  -0.00057   3.14150
   D11       -0.00002  -0.00000   0.00003  -0.00010  -0.00007  -0.00009
   D12       -0.00003   0.00000  -0.00009   0.00025   0.00017   0.00014
   D13        3.14154   0.00000   0.00006   0.00006   0.00011  -3.14153
   D14        0.00036  -0.00000  -0.00004  -0.00016  -0.00020   0.00016
   D15       -3.14133   0.00000  -0.00007   0.00014   0.00007  -3.14126
         Item               Value     Threshold  Converged?
 Maximum Force            0.016307     0.000450     NO 
 RMS     Force            0.005933     0.000300     NO 
 Maximum Displacement     0.058701     0.001800     NO 
 RMS     Displacement     0.016824     0.001200     NO 
 Predicted change in Energy=-2.188412D-03
 GradGradGradGradGradGradGradGradGradGradGradGradGradGradGradGradGradGrad

                          Input orientation:                          
 ---------------------------------------------------------------------
 Center     Atomic      Atomic             Coordinates (Angstroms)
 Number     Number       Type             X           Y           Z
 ---------------------------------------------------------------------
      1          7           0        0.731342    1.114089   -0.000067
      2          7           0        0.025277   -0.065780    0.000069
      3          7           0        0.826990   -1.190711    0.000298
      4          7           0        2.078941   -0.684435    0.000326
      5          6           0        1.978057    0.639356    0.000012
      6          6           0       -1.319474   -0.107955   -0.000137
      7          8           0       -1.977998   -1.155159   -0.000416
      8          8           0       -1.940264    1.093513   -0.000230
      9          1           0       -1.277192    1.807860   -0.000276
     10          1           0        2.838057    1.292941   -0.000091
 ---------------------------------------------------------------------
                    Distance matrix (angstroms):
                    1          2          3          4          5
     1  N    0.000000
     2  N    1.374998   0.000000
     3  N    2.306785   1.381382   0.000000
     4  N    2.247379   2.144824   1.350444   0.000000
     5  C    1.334043   2.076190   2.161967   1.327630   0.000000
     6  C    2.387308   1.345412   2.404094   3.446963   3.381151
     7  O    3.534121   2.280319   2.805213   4.084157   4.344037
     8  O    2.671685   2.281954   3.588228   4.394896   3.944553
     9  H    2.124977   2.281875   3.663197   4.180331   3.458620
    10  H    2.114293   3.123756   3.195766   2.118082   1.080173
                    6          7          8          9         10
     6  C    0.000000
     7  O    1.237049   0.000000
     8  O    1.352371   2.248989   0.000000
     9  H    1.916282   3.044768   0.974657   0.000000
    10  H    4.387206   5.402553   4.782481   4.147339   0.000000
 Stoichiometry    C2H2N4O2(1-,2)
 Framework group  C1[X(C2H2N4O2)]
 Deg. of freedom    24
 Full point group                 C1      NOp   1
 Largest Abelian subgroup         C1      NOp   1
 Largest concise Abelian subgroup C1      NOp   1
                         Standard orientation:                         
 ---------------------------------------------------------------------
 Center     Atomic      Atomic             Coordinates (Angstroms)
 Number     Number       Type             X           Y           Z
 ---------------------------------------------------------------------
      1          7           0       -0.734097    1.114358    0.000034
      2          7           0       -0.028691   -0.065905   -0.000102
      3          7           0       -0.831032   -1.190389   -0.000331
      4          7           0       -2.082701   -0.683413   -0.000359
      5          6           0       -1.981077    0.640322   -0.000045
      6          6           0        1.316036   -0.108831    0.000104
      7          8           0        1.973975   -1.156403    0.000384
      8          8           0        1.937497    1.092290    0.000197
      9          1           0        1.274825    1.807007    0.000243
     10          1           0       -2.840712    1.294387    0.000058
 ---------------------------------------------------------------------
 Rotational constants (GHZ):           5.3619241           1.8180536           1.3577014
 Standard basis: 6-31+G(d,p) (6D, 7F)
 There are   162 symmetry adapted cartesian basis functions of A   symmetry.
 There are   162 symmetry adapted basis functions of A   symmetry.
   162 basis functions,   270 primitive gaussians,   162 cartesian basis functions
    30 alpha electrons       29 beta electrons
       nuclear repulsion energy       363.0583093149 Hartrees.
 NAtoms=   10 NActive=   10 NUniq=   10 SFac= 1.00D+00 NAtFMM=   60 NAOKFM=F Big=F
 Integral buffers will be    131072 words long.
 Raffenetti 2 integral format.
 Two-electron integral symmetry is turned on.
 ------------------------------------------------------------------------------
 Polarizable Continuum Model (PCM)
 =================================
 Model                : PCM.
 Atomic radii         : SMD-Coulomb.
 Polarization charges : Total charges.
 Charge compensation  : None.
 Solution method      : On-the-fly selection.
 Cavity type          : VdW (van der Waals Surface) (Alpha=1.000).
 Cavity algorithm     : GePol (No added spheres)
                        Default sphere list used, NSphG=   10.
                        Lebedev-Laikov grids with approx.  5.0 points / Ang**2.
                        Smoothing algorithm: York/Karplus (Gamma=1.0000).
                        Polarization charges: spherical gaussians, with
                                              point-specific exponents (IZeta= 3).
                        Self-potential: point-specific (ISelfS= 7).
                        Self-field    : sphere-specific E.n sum rule (ISelfD= 2).
 1st derivatives      : Analytical E(r).r(x)/FMM algorithm (CHGder, D1EAlg=3).
                        Cavity 1st derivative terms included.
 Solvent              : Water, Eps=  78.355300 Eps(inf)=   1.777849
 ------------------------------------------------------------------------------
 Spheres list:
 ISph  on   Nord     Re0    Alpha      Xe            Ye            Ze
    1   N      1    1.8900  1.000     -0.734097      1.114358      0.000034
    2   N      2    1.8900  1.000     -0.028691     -0.065905     -0.000102
    3   N      3    1.8900  1.000     -0.831032     -1.190389     -0.000331
    4   N      4    1.8900  1.000     -2.082701     -0.683413     -0.000359
    5   C      5    1.8500  1.000     -1.981077      0.640322     -0.000045
    6   C      6    1.8500  1.000      1.316036     -0.108831      0.000104
    7   O      7    1.5200  1.000      1.973975     -1.156403      0.000384
    8   O      8    1.5200  1.000      1.937497      1.092290      0.000197
    9   H      9    1.2000  1.000      1.274825      1.807007      0.000243
   10   H     10    1.2000  1.000     -2.840712      1.294387      0.000058
 ------------------------------------------------------------------------------
 ------------------------------------------------------------------------------
 Atomic radii for non-electrostatic terms: SMD-CDS.
 ------------------------------------------------------------------------------
 Nuclear repulsion after PCM non-electrostatic terms =      363.0627146876 Hartrees.
 One-electron integrals computed using PRISM.
 NBasis=   162 RedAO= T EigKep=  5.21D-05  NBF=   162
 NBsUse=   162 1.00D-06 EigRej= -1.00D+00 NBFU=   162
 Initial guess from the checkpoint file:  "/scratch/gongke2021/sidanzuo-PC/Gau-9101.chk"
 B after Tr=    -0.000000   -0.000000   -0.000000
         Rot=    0.999995   -0.000013    0.000044    0.003150 Ang=  -0.36 deg.
 Initial guess <Sx>= 0.0000 <Sy>= 0.0000 <Sz>= 0.5000 <S**2>= 0.7642 S= 0.5071
 ExpMin= 4.38D-02 ExpMax= 5.48D+03 ExpMxC= 8.25D+02 IAcc=2 IRadAn=         4 AccDes= 0.00D+00
 Harris functional with IExCor= 1009 and IRadAn=       4 diagonalized for initial guess.
 HarFok:  IExCor= 1009 AccDes= 0.00D+00 IRadAn=         4 IDoV= 1 UseB2=F ITyADJ=14
 ICtDFT=  3500011 ScaDFX=  1.000000  1.000000  1.000000  1.000000
 FoFCou: FMM=F IPFlag=           0 FMFlag=      100000 FMFlg1=           0
         NFxFlg=           0 DoJE=T BraDBF=F KetDBF=T FulRan=T
         wScrn=  0.000000 ICntrl=       500 IOpCl=  0 I1Cent=   200000004 NGrid=           0
         NMat0=    1 NMatS0=      1 NMatT0=    0 NMatD0=    1 NMtDS0=    0 NMtDT0=    0
 Petite list used in FoFCou.
 Keep R1 and R2 ints in memory in canonical form, NReq=194097766.
 Requested convergence on RMS density matrix=1.00D-08 within 128 cycles.
 Requested convergence on MAX density matrix=1.00D-06.
 Requested convergence on             energy=1.00D-06.
 No special actions if energy rises.
 Inv3:  Mode=1 IEnd=     2782107.
 Iteration    1 A*A^-1 deviation from unit magnitude is 3.11D-15 for    949.
 Iteration    1 A*A^-1 deviation from orthogonality  is 4.33D-15 for    963    794.
 Iteration    1 A^-1*A deviation from unit magnitude is 3.33D-15 for    949.
 Iteration    1 A^-1*A deviation from orthogonality  is 6.93D-15 for    329    275.
 Error on total polarization charges =  0.04309
 SCF Done:  E(UM062X) =  -446.800250852     A.U. after   15 cycles
            NFock= 15  Conv=0.94D-08     -V/T= 2.0081
 <Sx>= 0.0000 <Sy>= 0.0000 <Sz>= 0.5000 <S**2>= 0.7651 S= 0.5075
 <L.S>= 0.000000000000E+00
 SMD-CDS (non-electrostatic) energy       (kcal/mol) =       2.76
 (included in total energy above)
 Annihilation of the first spin contaminant:
 S**2 before annihilation     0.7651,   after     0.7501
 D1PCM: PCM CHGder 1st derivatives, ID1Alg=3 FixD1E=F DoIter=F DoCFld=F I1PDM=0.
 Calling FoFJK, ICntrl=      2127 FMM=F ISym2X=0 I1Cent= 0 IOpClX= 1 NMat=1 NMatS=1 NMatT=0.
 ***** Axes restored to original set *****
 -------------------------------------------------------------------
 Center     Atomic                   Forces (Hartrees/Bohr)
 Number     Number              X              Y              Z
 -------------------------------------------------------------------
      1        7           0.002668113   -0.000649644   -0.000006876
      2        7           0.001529738    0.002636466    0.000005712
      3        7           0.001903306    0.000857787    0.000005506
      4        7           0.001350731   -0.002402733   -0.000014983
      5        6          -0.000638617    0.001251838    0.000016088
      6        6          -0.007079983   -0.003883072   -0.000022491
      7        8          -0.000522829   -0.000513520    0.000012808
      8        8           0.001370203    0.001810089   -0.000000013
      9        1          -0.000679535    0.000581669    0.000002734
     10        1           0.000098873    0.000311121    0.000001515
 -------------------------------------------------------------------
 Cartesian Forces:  Max     0.007079983 RMS     0.001849019

 GradGradGradGradGradGradGradGradGradGradGradGradGradGradGradGradGradGrad
 Berny optimization.
 Using GEDIIS/GDIIS optimizer.
 FormGI is forming the generalized inverse of G from B-inverse, IUseBI=4.
 Internal  Forces:  Max     0.006981388 RMS     0.001518511
 Search for a local minimum.
 Step number   3 out of a maximum of   48
 All quantities printed in internal units (Hartrees-Bohrs-Radians)
 Mixed Optimization -- RFO/linear search
 Update second derivatives using D2CorX and points    1    2    3
 DE= -2.03D-03 DEPred=-2.19D-03 R= 9.26D-01
 TightC=F SS=  1.41D+00  RLast= 1.34D-01 DXNew= 8.4853D-01 4.0212D-01
 Trust test= 9.26D-01 RLast= 1.34D-01 DXMaxT set to 5.05D-01
 ITU=  1  1  0
 Use linear search instead of GDIIS.
     Eigenvalues ---    0.01174   0.01705   0.01751   0.02349   0.02483
     Eigenvalues ---    0.02560   0.02850   0.15928   0.16153   0.22154
     Eigenvalues ---    0.23769   0.25000   0.25189   0.27180   0.36074
     Eigenvalues ---    0.37322   0.44271   0.52049   0.54693   0.57447
     Eigenvalues ---    0.61336   0.62920   0.67119   1.04567
 RFO step:  Lambda=-1.67708946D-04 EMin= 1.17419723D-02
 Quartic linear search produced a step of -0.10984.
 Iteration  1 RMS(Cart)=  0.00691456 RMS(Int)=  0.00001104
 Iteration  2 RMS(Cart)=  0.00001298 RMS(Int)=  0.00000116
 Iteration  3 RMS(Cart)=  0.00000000 RMS(Int)=  0.00000116
 Variable       Old X    -DE/DX   Delta X   Delta X   Delta X     New X
                                 (Linear)    (Quad)   (Total)
    R1        2.59837   0.00119  -0.00367   0.00546   0.00179   2.60016
    R2        2.52098  -0.00007  -0.00069   0.00034  -0.00035   2.52063
    R3        2.61043   0.00178  -0.00430   0.00697   0.00267   2.61310
    R4        2.54246   0.00698   0.00733   0.00851   0.01584   2.55830
    R5        2.55197   0.00024  -0.00363   0.00377   0.00013   2.55210
    R6        2.50886   0.00127   0.00325  -0.00129   0.00196   2.51081
    R7        2.04123   0.00028  -0.00026   0.00096   0.00070   2.04193
    R8        2.33768   0.00073  -0.00208   0.00255   0.00046   2.33815
    R9        2.55561   0.00178  -0.00326   0.00576   0.00250   2.55811
   R10        1.84183  -0.00006  -0.00023   0.00018  -0.00005   1.84179
    A1        1.74622   0.00154   0.00210   0.00316   0.00526   1.75148
    A2        1.98315  -0.00264  -0.00084  -0.00801  -0.00884   1.97430
    A3        2.14141   0.00224   0.00116   0.00662   0.00778   2.14919
    A4        2.15863   0.00039  -0.00033   0.00140   0.00107   2.15969
    A5        1.80569   0.00216   0.00285   0.00521   0.00806   1.81375
    A6        1.87902  -0.00127  -0.00130  -0.00360  -0.00491   1.87411
    A7        2.01069   0.00021  -0.00281   0.00325   0.00044   2.01113
    A8        2.12790  -0.00033   0.00254  -0.00418  -0.00164   2.12626
    A9        2.14459   0.00012   0.00027   0.00093   0.00120   2.14580
   A10        2.16350   0.00108  -0.00165   0.00542   0.00377   2.16727
   A11        2.01636  -0.00184  -0.00427  -0.00183  -0.00610   2.01025
   A12        2.10332   0.00076   0.00592  -0.00359   0.00233   2.10566
   A13        1.91649   0.00165   0.00220   0.00714   0.00934   1.92583
    D1        0.00006  -0.00000  -0.00001  -0.00008  -0.00010  -0.00004
    D2       -3.14142  -0.00000  -0.00001  -0.00013  -0.00014  -3.14156
    D3       -0.00012   0.00001   0.00002   0.00023   0.00026   0.00013
    D4        3.14155   0.00000   0.00001  -0.00001   0.00001   3.14156
    D5        0.00002  -0.00000   0.00000  -0.00008  -0.00008  -0.00006
    D6        3.14150  -0.00000   0.00000  -0.00004  -0.00004   3.14146
    D7        3.14121   0.00001   0.00009   0.00046   0.00055  -3.14143
    D8       -0.00021  -0.00000   0.00006  -0.00006  -0.00000  -0.00021
    D9       -0.00027   0.00001   0.00009   0.00041   0.00050   0.00024
   D10        3.14150  -0.00000   0.00006  -0.00011  -0.00005   3.14145
   D11       -0.00009   0.00001   0.00001   0.00022   0.00022   0.00014
   D12        0.00014  -0.00001  -0.00002  -0.00030  -0.00032  -0.00018
   D13       -3.14153  -0.00000  -0.00001  -0.00006  -0.00007   3.14158
   D14        0.00016   0.00000   0.00002   0.00016   0.00018   0.00035
   D15       -3.14126  -0.00001  -0.00001  -0.00034  -0.00034   3.14158
         Item               Value     Threshold  Converged?
 Maximum Force            0.006981     0.000450     NO 
 RMS     Force            0.001519     0.000300     NO 
 Maximum Displacement     0.017713     0.001800     NO 
 RMS     Displacement     0.006909     0.001200     NO 
 Predicted change in Energy=-1.162386D-04
 GradGradGradGradGradGradGradGradGradGradGradGradGradGradGradGradGradGrad

                          Input orientation:                          
 ---------------------------------------------------------------------
 Center     Atomic      Atomic             Coordinates (Angstroms)
 Number     Number       Type             X           Y           Z
 ---------------------------------------------------------------------
      1          7           0        0.737878    1.112546   -0.000088
      2          7           0        0.025376   -0.064557   -0.000043
      3          7           0        0.832180   -1.187581    0.000148
      4          7           0        2.086340   -0.686616    0.000146
      5          6           0        1.984521    0.638142    0.000135
      6          6           0       -1.327630   -0.110691   -0.000250
      7          8           0       -1.987371   -1.157419   -0.000050
      8          8           0       -1.944972    1.094041   -0.000246
      9          1           0       -1.286195    1.812315   -0.000407
     10          1           0        2.843607    1.293540    0.000142
 ---------------------------------------------------------------------
                    Distance matrix (angstroms):
                    1          2          3          4          5
     1  N    0.000000
     2  N    1.375947   0.000000
     3  N    2.302060   1.382793   0.000000
     4  N    2.248407   2.152796   1.350513   0.000000
     5  C    1.333858   2.081354   2.158971   1.328665   0.000000
     6  C    2.400549   1.353793   2.413394   3.462208   3.395747
     7  O    3.546790   2.290305   2.819712   4.100827   4.358895
     8  O    2.682914   2.285743   3.594213   4.407064   3.955851
     9  H    2.141623   2.289731   3.672450   4.197458   3.475092
    10  H    2.113494   3.128395   3.194027   2.120017   1.080545
                    6          7          8          9         10
     6  C    0.000000
     7  O    1.237294   0.000000
     8  O    1.353695   2.251859   0.000000
     9  H    1.923453   3.051388   0.974631   0.000000
    10  H    4.401260   5.417154   4.792733   4.162259   0.000000
 Stoichiometry    C2H2N4O2(1-,2)
 Framework group  C1[X(C2H2N4O2)]
 Deg. of freedom    24
 Full point group                 C1      NOp   1
 Largest Abelian subgroup         C1      NOp   1
 Largest concise Abelian subgroup C1      NOp   1
                         Standard orientation:                         
 ---------------------------------------------------------------------
 Center     Atomic      Atomic             Coordinates (Angstroms)
 Number     Number       Type             X           Y           Z
 ---------------------------------------------------------------------
      1          7           0       -0.741060    1.112924    0.000050
      2          7           0       -0.028613   -0.064212    0.000006
      3          7           0       -0.835468   -1.187199   -0.000186
      4          7           0       -2.089606   -0.686176   -0.000183
      5          6           0       -1.987725    0.638577   -0.000173
      6          6           0        1.324391   -0.110409    0.000213
      7          8           0        1.984084   -1.157167    0.000012
      8          8           0        1.941788    1.094295    0.000208
      9          1           0        1.283045    1.812599    0.000369
     10          1           0       -2.846782    1.294015   -0.000180
 ---------------------------------------------------------------------
 Rotational constants (GHZ):           5.3622522           1.8038164           1.3497664
 Standard basis: 6-31+G(d,p) (6D, 7F)
 There are   162 symmetry adapted cartesian basis functions of A   symmetry.
 There are   162 symmetry adapted basis functions of A   symmetry.
   162 basis functions,   270 primitive gaussians,   162 cartesian basis functions
    30 alpha electrons       29 beta electrons
       nuclear repulsion energy       362.3340608649 Hartrees.
 NAtoms=   10 NActive=   10 NUniq=   10 SFac= 1.00D+00 NAtFMM=   60 NAOKFM=F Big=F
 Integral buffers will be    131072 words long.
 Raffenetti 2 integral format.
 Two-electron integral symmetry is turned on.
 ------------------------------------------------------------------------------
 Polarizable Continuum Model (PCM)
 =================================
 Model                : PCM.
 Atomic radii         : SMD-Coulomb.
 Polarization charges : Total charges.
 Charge compensation  : None.
 Solution method      : On-the-fly selection.
 Cavity type          : VdW (van der Waals Surface) (Alpha=1.000).
 Cavity algorithm     : GePol (No added spheres)
                        Default sphere list used, NSphG=   10.
                        Lebedev-Laikov grids with approx.  5.0 points / Ang**2.
                        Smoothing algorithm: York/Karplus (Gamma=1.0000).
                        Polarization charges: spherical gaussians, with
                                              point-specific exponents (IZeta= 3).
                        Self-potential: point-specific (ISelfS= 7).
                        Self-field    : sphere-specific E.n sum rule (ISelfD= 2).
 1st derivatives      : Analytical E(r).r(x)/FMM algorithm (CHGder, D1EAlg=3).
                        Cavity 1st derivative terms included.
 Solvent              : Water, Eps=  78.355300 Eps(inf)=   1.777849
 ------------------------------------------------------------------------------
 Spheres list:
 ISph  on   Nord     Re0    Alpha      Xe            Ye            Ze
    1   N      1    1.8900  1.000     -0.741060      1.112924      0.000050
    2   N      2    1.8900  1.000     -0.028613     -0.064212      0.000006
    3   N      3    1.8900  1.000     -0.835468     -1.187199     -0.000186
    4   N      4    1.8900  1.000     -2.089606     -0.686176     -0.000183
    5   C      5    1.8500  1.000     -1.987725      0.638577     -0.000173
    6   C      6    1.8500  1.000      1.324391     -0.110409      0.000213
    7   O      7    1.5200  1.000      1.984084     -1.157167      0.000012
    8   O      8    1.5200  1.000      1.941788      1.094295      0.000208
    9   H      9    1.2000  1.000      1.283045      1.812599      0.000369
   10   H     10    1.2000  1.000     -2.846782      1.294015     -0.000180
 ------------------------------------------------------------------------------
 ------------------------------------------------------------------------------
 Atomic radii for non-electrostatic terms: SMD-CDS.
 ------------------------------------------------------------------------------
 Nuclear repulsion after PCM non-electrostatic terms =      362.3384888225 Hartrees.
 One-electron integrals computed using PRISM.
 NBasis=   162 RedAO= T EigKep=  5.25D-05  NBF=   162
 NBsUse=   162 1.00D-06 EigRej= -1.00D+00 NBFU=   162
 Initial guess from the checkpoint file:  "/scratch/gongke2021/sidanzuo-PC/Gau-9101.chk"
 B after Tr=     0.000000    0.000000    0.000000
         Rot=    1.000000   -0.000009   -0.000021   -0.000331 Ang=  -0.04 deg.
 Initial guess <Sx>= 0.0000 <Sy>= 0.0000 <Sz>= 0.5000 <S**2>= 0.7651 S= 0.5075
 Keep R1 and R2 ints in memory in canonical form, NReq=194097766.
 Requested convergence on RMS density matrix=1.00D-08 within 128 cycles.
 Requested convergence on MAX density matrix=1.00D-06.
 Requested convergence on             energy=1.00D-06.
 No special actions if energy rises.
 Inv3:  Mode=1 IEnd=     2805267.
 Iteration    1 A*A^-1 deviation from unit magnitude is 3.77D-15 for    960.
 Iteration    1 A*A^-1 deviation from orthogonality  is 1.93D-15 for    274    223.
 Iteration    1 A^-1*A deviation from unit magnitude is 3.77D-15 for    960.
 Iteration    1 A^-1*A deviation from orthogonality  is 7.61D-15 for    358    274.
 Error on total polarization charges =  0.04309
 SCF Done:  E(UM062X) =  -446.800344294     A.U. after   12 cycles
            NFock= 12  Conv=0.93D-08     -V/T= 2.0082
 <Sx>= 0.0000 <Sy>= 0.0000 <Sz>= 0.5000 <S**2>= 0.7651 S= 0.5075
 <L.S>= 0.000000000000E+00
 SMD-CDS (non-electrostatic) energy       (kcal/mol) =       2.78
 (included in total energy above)
 Annihilation of the first spin contaminant:
 S**2 before annihilation     0.7651,   after     0.7501
 D1PCM: PCM CHGder 1st derivatives, ID1Alg=3 FixD1E=F DoIter=F DoCFld=F I1PDM=0.
 Calling FoFJK, ICntrl=      2127 FMM=F ISym2X=0 I1Cent= 0 IOpClX= 1 NMat=1 NMatS=1 NMatT=0.
 ***** Axes restored to original set *****
 -------------------------------------------------------------------
 Center     Atomic                   Forces (Hartrees/Bohr)
 Number     Number              X              Y              Z
 -------------------------------------------------------------------
      1        7           0.000635190    0.000438507    0.000011010
      2        7          -0.000737492    0.000781756   -0.000010503
      3        7           0.000096207   -0.001534082   -0.000010556
      4        7          -0.001101717   -0.000423115    0.000019351
      5        6          -0.000505473    0.000962161   -0.000023059
      6        6          -0.000016524   -0.001787780    0.000039799
[...]
      4        7          -0.000096332   -0.000031787   -0.000014850
      5        6           0.000042983   -0.000024570    0.000027753
      6        6          -0.000012854    0.000026003   -0.000243249
      7        8          -0.000076728   -0.000059597    0.000097422
      8        8           0.000033483    0.000034130    0.000070486
      9        1           0.000021864    0.000062208    0.000007265
     10        1           0.000021170   -0.000041376   -0.000003718
 -------------------------------------------------------------------
 Cartesian Forces:  Max     0.000243249 RMS     0.000069185
 FormGI is forming the generalized inverse of G from B-inverse, IUseBI=4.

 GradGradGradGradGradGradGradGradGradGradGradGradGradGradGradGradGradGrad
 Berny optimization.
 Internal  Forces:  Max     0.000103205 RMS     0.000041336
 Search for a local minimum.
 Step number   1 out of a maximum of    2
 All quantities printed in internal units (Hartrees-Bohrs-Radians)
 Second derivative matrix not updated -- analytic derivatives used.
 ITU=  0
     Eigenvalues ---    0.00650   0.01060   0.01549   0.03128   0.03843
     Eigenvalues ---    0.05667   0.06484   0.11722   0.17010   0.18399
     Eigenvalues ---    0.20999   0.23299   0.27424   0.27861   0.30226
     Eigenvalues ---    0.31857   0.38517   0.41651   0.44945   0.48680
     Eigenvalues ---    0.50723   0.54171   0.56115   0.74046
 Angle between quadratic step and forces=  41.67 degrees.
 Linear search not attempted -- first point.
 Iteration  1 RMS(Cart)=  0.00038457 RMS(Int)=  0.00000033
 Iteration  2 RMS(Cart)=  0.00000037 RMS(Int)=  0.00000020
 Variable       Old X    -DE/DX   Delta X   Delta X   Delta X     New X
                                 (Linear)    (Quad)   (Total)
    R1        2.60110  -0.00007   0.00000  -0.00025  -0.00025   2.60085
    R2        2.51881   0.00004   0.00000   0.00013   0.00013   2.51894
    R3        2.61560   0.00003   0.00000   0.00015   0.00015   2.61575
    R4        2.55558   0.00004   0.00000   0.00008   0.00008   2.55566
    R5        2.55113  -0.00008   0.00000  -0.00026  -0.00026   2.55086
    R6        2.51253  -0.00001   0.00000  -0.00002  -0.00002   2.51251
    R7        2.04196   0.00000   0.00000  -0.00001  -0.00001   2.04195
    R8        2.33555   0.00010   0.00000   0.00013   0.00013   2.33568
    R9        2.55917   0.00004   0.00000   0.00007   0.00007   2.55924
   R10        1.84114   0.00004   0.00000   0.00006   0.00006   1.84120
    A1        1.75073  -0.00002   0.00000   0.00001   0.00001   1.75074
    A2        1.97579   0.00002   0.00000   0.00003   0.00003   1.97583
    A3        2.14988  -0.00004   0.00000  -0.00009  -0.00009   2.14979
    A4        2.15751   0.00002   0.00000   0.00006   0.00006   2.15757
    A5        1.81121  -0.00001   0.00000  -0.00005  -0.00005   1.81116
    A6        1.87591   0.00002   0.00000   0.00012   0.00012   1.87602
    A7        2.01114  -0.00001   0.00000  -0.00011  -0.00011   2.01103
    A8        2.12525   0.00002   0.00000   0.00018   0.00018   2.12544
    A9        2.14680  -0.00001   0.00000  -0.00007  -0.00007   2.14672
   A10        2.16742   0.00004   0.00000   0.00013   0.00013   2.16755
   A11        2.00765  -0.00006   0.00000  -0.00017  -0.00017   2.00748
   A12        2.10812   0.00002   0.00000   0.00004   0.00004   2.10816
   A13        1.92426   0.00005   0.00000   0.00022   0.00022   1.92449
    D1        0.00004  -0.00000   0.00000  -0.00004  -0.00004   0.00000
    D2       -3.14137  -0.00001   0.00000  -0.00021  -0.00021  -3.14158
    D3       -0.00015   0.00001   0.00000   0.00015   0.00015  -0.00000
    D4       -3.14152  -0.00000   0.00000  -0.00007  -0.00007   3.14159
    D5        0.00006  -0.00000   0.00000  -0.00007  -0.00007  -0.00000
    D6        3.14148   0.00001   0.00000   0.00010   0.00010   3.14158
    D7        3.14039   0.00007   0.00000   0.00118   0.00118   3.14157
    D8        0.00101  -0.00006   0.00000  -0.00103  -0.00103  -0.00002
    D9       -0.00101   0.00006   0.00000   0.00100   0.00100  -0.00001
   D10       -3.14039  -0.00007   0.00000  -0.00121  -0.00121   3.14159
   D11       -0.00015   0.00001   0.00000   0.00015   0.00015   0.00000
   D12        0.00020  -0.00001   0.00000  -0.00020  -0.00020  -0.00000
   D13        3.14157   0.00000   0.00000   0.00002   0.00002  -3.14159
   D14       -0.00095   0.00005   0.00000   0.00096   0.00096   0.00001
   D15       -3.14041  -0.00007   0.00000  -0.00118  -0.00118  -3.14159
         Item               Value     Threshold  Converged?
 Maximum Force            0.000103     0.000450     YES
 RMS     Force            0.000041     0.000300     YES
 Maximum Displacement     0.001327     0.001800     YES
 RMS     Displacement     0.000385     0.001200     YES
 Predicted change in Energy=-2.651514D-07
 Optimization completed.
    -- Stationary point found.
                           ----------------------------
                           !   Optimized Parameters   !
                           ! (Angstroms and Degrees)  !
 --------------------------                            --------------------------
 ! Name  Definition              Value          Derivative Info.                !
 --------------------------------------------------------------------------------
 ! R1    R(1,2)                  1.3764         -DE/DX =   -0.0001              !
 ! R2    R(1,5)                  1.3329         -DE/DX =    0.0                 !
 ! R3    R(2,3)                  1.3841         -DE/DX =    0.0                 !
 ! R4    R(2,6)                  1.3524         -DE/DX =    0.0                 !
 ! R5    R(3,4)                  1.35           -DE/DX =   -0.0001              !
 ! R6    R(4,5)                  1.3296         -DE/DX =    0.0                 !
 ! R7    R(5,10)                 1.0806         -DE/DX =    0.0                 !
 ! R8    R(6,7)                  1.2359         -DE/DX =    0.0001              !
 ! R9    R(6,8)                  1.3543         -DE/DX =    0.0                 !
 ! R10   R(8,9)                  0.9743         -DE/DX =    0.0                 !
 ! A1    A(2,1,5)              100.3095         -DE/DX =    0.0                 !
 ! A2    A(1,2,3)              113.2046         -DE/DX =    0.0                 !
 ! A3    A(1,2,6)              123.1791         -DE/DX =    0.0                 !
 ! A4    A(3,2,6)              123.6163         -DE/DX =    0.0                 !
 ! A5    A(2,3,4)              103.7747         -DE/DX =    0.0                 !
 ! A6    A(3,4,5)              107.4815         -DE/DX =    0.0                 !
 ! A7    A(1,5,4)              115.2298         -DE/DX =    0.0                 !
 ! A8    A(1,5,10)             121.7679         -DE/DX =    0.0                 !
 ! A9    A(4,5,10)             123.0023         -DE/DX =    0.0                 !
 ! A10   A(2,6,7)              124.184          -DE/DX =    0.0                 !
 ! A11   A(2,6,8)              115.0297         -DE/DX =   -0.0001              !
 ! A12   A(7,6,8)              120.7862         -DE/DX =    0.0                 !
 ! A13   A(6,8,9)              110.2522         -DE/DX =    0.0001              !
 ! D1    D(5,1,2,3)              0.0026         -DE/DX =    0.0                 !
 ! D2    D(5,1,2,6)           -179.9875         -DE/DX =    0.0                 !
 ! D3    D(2,1,5,4)             -0.0084         -DE/DX =    0.0                 !
 ! D4    D(2,1,5,10)           180.004          -DE/DX =    0.0                 !
 ! D5    D(1,2,3,4)              0.0036         -DE/DX =    0.0                 !
 ! D6    D(6,2,3,4)            179.9936         -DE/DX =    0.0                 !
 ! D7    D(1,2,6,7)            179.9312         -DE/DX =    0.0001              !
 ! D8    D(1,2,6,8)              0.058          -DE/DX =   -0.0001              !
 ! D9    D(3,2,6,7)             -0.0578         -DE/DX =    0.0001              !
 ! D10   D(3,2,6,8)            180.069          -DE/DX =   -0.0001              !
 ! D11   D(2,3,4,5)             -0.0084         -DE/DX =    0.0                 !
 ! D12   D(3,4,5,1)              0.0113         -DE/DX =    0.0                 !
 ! D13   D(3,4,5,10)          -180.0013         -DE/DX =    0.0                 !
 ! D14   D(2,6,8,9)             -0.0544         -DE/DX =    0.0001              !
 ! D15   D(7,6,8,9)           -179.9323         -DE/DX =   -0.0001              !
 --------------------------------------------------------------------------------
 GradGradGradGradGradGradGradGradGradGradGradGradGradGradGradGradGradGrad


 ----------------------------------------------------------------------

 Electric dipole moment (input orientation):
 (Debye = 10**-18 statcoulomb cm , SI units = C m)
                  (au)            (Debye)         (10**-30 SI)
   Tot        0.286015D+01      0.726977D+01      0.242493D+02
   x          0.811814D+00      0.206342D+01      0.688284D+01
   y          0.274252D+01      0.697078D+01      0.232520D+02
   z          0.115787D-02      0.294301D-02      0.981681D-02

 Dipole polarizability, Alpha (input orientation).
 (esu units = cm**3 , SI units = C**2 m**2 J**-1)
 Alpha(0;0):
               (au)            (10**-24 esu)      (10**-40 SI)
   iso        0.964147D+02      0.142872D+02      0.158966D+02
   aniso      0.750143D+02      0.111160D+02      0.123682D+02
   xx         0.137050D+03      0.203087D+02      0.225965D+02
   yx         0.547716D+01      0.811632D+00      0.903062D+00
   yy         0.100740D+03      0.149281D+02      0.166098D+02
   zx         0.617749D-02      0.915409D-03      0.101853D-02
   zy         0.556608D-02      0.824807D-03      0.917722D-03
   zz         0.514539D+02      0.762468D+01      0.848360D+01

 ----------------------------------------------------------------------

 Dipole orientation:
     7          0.70791141         -0.20924377          2.41320399
     7          0.07543187         -0.02321935         -0.10296191
     7          2.05480105         -0.60925855         -1.70921066
     7          3.97377767         -1.17629897         -0.12672860
     6          3.11628481         -0.92146445          2.22116086
     6         -2.24860812          0.66415534         -0.91372891
     8         -2.85376540          0.84463666         -3.16228595
     8         -3.93774231          1.16730420          0.94180716
     1         -3.15757981          0.93685476          2.59348852
     1          4.27128066         -1.26246427          3.87018775

 Electric dipole moment (dipole orientation):
 (Debye = 10**-18 statcoulomb cm , SI units = C m)
                  (au)            (Debye)         (10**-30 SI)
   Tot        0.286015D+01      0.726977D+01      0.242493D+02
   x          0.000000D+00      0.000000D+00      0.000000D+00
   y          0.000000D+00      0.000000D+00      0.000000D+00
   z          0.286015D+01      0.726977D+01      0.242493D+02

 Dipole polarizability, Alpha (dipole orientation).
 (esu units = cm**3 , SI units = C**2 m**2 J**-1)
 Alpha(0;0):
               (au)            (10**-24 esu)      (10**-40 SI)
   iso        0.964147D+02      0.142872D+02      0.158966D+02
   aniso      0.750143D+02      0.111160D+02      0.123682D+02
   xx         0.124724D+03      0.184822D+02      0.205643D+02
   yx        -0.216873D+02     -0.321373D+01     -0.357575D+01
   yy         0.578731D+02      0.857591D+01      0.954198D+01
   zx         0.138859D+02      0.205767D+01      0.228947D+01
   zy        -0.409446D+01     -0.606736D+00     -0.675084D+00
   zz         0.106647D+03      0.158034D+02      0.175836D+02

 ----------------------------------------------------------------------
 1\1\GINC-NODE3\Freq\UM062X\6-31+G(d,p)\C2H2N4O2(1-,2)\GONGKE2021\05-No
 v-2023\0\\#N Geom=AllCheck Guess=TCheck SCRF=Check GenChk UM062X/6-31+
 G(d,p) Freq\\Title Card Required\\-1,2\N,0.7370290757,1.1136169194,0.0
 003620392\N,0.0245802159,-0.064098215,0.0004299128\N,0.8307772979,-1.1
 891882231,0.0001494546\N,2.0838008118,-0.6867648785,-0.0000171944\C,1.
 9825422827,0.6389486031,-0.0000255601\C,-1.3269443548,-0.1114744793,0.
 0005430257\O,-1.9851064589,-1.1575720776,-0.0006229172\O,-1.9425479084
 ,1.0947737655,-0.000656627\H,-1.2816917662,1.8106739888,-0.0005497756\
 H,2.8412948043,1.2948045968,-0.0001243578\\Version=ES64L-G16RevA.03\St
 ate=2-A\HF=-446.8003575\S2=0.76509\S2-1=0.\S2A=0.750107\RMSD=2.223e-09
 \RMSF=6.919e-05\ZeroPoint=0.0597827\Thermal=0.0660587\Dipole=0.8118136
 ,2.7425176,0.0011579\DipoleDeriv=-0.8619276,0.582119,-0.0000172,-0.277
 3631,-0.9701832,-0.0000605,-0.0000849,-0.0001867,-0.3429082,-1.024149,
 0.0548183,-0.0004764,-0.0682664,-0.1221653,0.0000798,-0.0012869,0.0000
 914,0.0238671,0.2634063,-0.550874,-0.0000619,0.7353,-0.3961989,0.00000
 26,-0.0001472,0.0001201,-0.3229587,-1.0721106,0.4874661,-0.0000404,-0.
 2700172,-0.6265739,-0.0000682,0.0001616,-0.0000013,-0.3709675,0.628207
 8,-0.5401252,-0.0001612,-0.0528734,0.9473918,0.0000677,-0.0000191,0.00
 02207,0.0308146,3.8041045,0.2495771,0.0007155,0.868444,2.779605,-0.000
 1554,0.0083647,-0.000194,0.5380581,-2.1081026,-0.5192211,-0.0000263,-1
 .7672569,-1.598376,0.0000758,-0.0043389,-0.0010426,-0.6550299,-1.13046
 95,0.3424655,0.0001026,0.9565453,-1.6433612,0.0000103,-0.0024452,0.001
 0056,-0.5621528,0.446285,-0.0473821,-0.0000571,-0.0619801,0.5261916,0.
 000031,-0.0002051,0.0000427,0.4592996,0.0547557,-0.0588435,0.0000225,-
 0.0625323,0.10367,0.000017,0.000001,-0.0000557,0.2019775\Polar=137.050
 1965,5.4771628,100.7399841,0.0061775,0.0055661,51.4538657\Quadrupole=-
 7.4339151,0.2731807,7.1607344,1.0313581,-0.0061858,-0.0026333\PG=C01 [
 X(C2H2N4O2)]\NImag=0\\0.55384620,-0.07694434,0.43375645,-0.00009958,0.
 00002845,0.06983010,-0.12765979,-0.01691588,0.00002488,0.84601200,-0.0
 8318115,-0.20419042,0.00000484,0.02568368,0.55433070,0.00000109,-0.000
 05421,-0.04472829,0.00007649,0.00002040,0.07614976,0.00745693,0.016236
 71,-0.00000589,-0.09566578,0.05045885,0.00001303,0.40251194,-0.0046748
 4,-0.05835797,0.00001574,-0.01080208,-0.18660505,0.00005026,0.08558907
 ,0.42731123,0.00000286,-0.00002484,0.00179259,0.00001729,-0.00003477,-
 0.03428479,-0.00005611,0.00002486,0.05808664,-0.05803716,0.03067198,0.
 00001869,-0.11596499,0.04793511,0.00001637,-0.22397875,-0.02802531,0.0
 0002962,0.45403222,0.10487867,-0.06346150,-0.00002681,-0.00651285,-0.0
 0102544,-0.00000481,-0.11503520,-0.13580868,0.00000143,-0.02542173,0.5
 9539352,0.00001991,-0.00000312,0.03884785,0.00001814,-0.00000553,0.005
 98472,0.00002228,-0.00001203,-0.05347878,-0.00007444,0.00002490,0.0840
 6178,-0.32489486,0.07094677,0.00008246,-0.05557265,-0.03391395,0.00002
 450,-0.05626251,-0.05310817,0.00000485,-0.07128392,0.03231494,0.000008
 09,0.76227377,0.09373870,-0.12993236,-0.00003329,0.00347388,-0.0009958
 4,0.00000240,-0.07320729,-0.05902203,0.00002326,-0.00169988,-0.3785800
 1,-0.00000007,0.12988114,0.75518554,0.00007915,-0.00002000,-0.06222677
 ,0.00000620,0.00000800,0.00802017,0.00002025,-0.00000183,0.01984988,-0
 .00000573,-0.00000671,-0.07406619,-0.00013089,0.00000061,0.14487602,-0
 .02135037,-0.00208896,0.00001331,-0.35650710,-0.01201886,0.00002197,-0
 .04287134,-0.00057511,0.00000726,0.02459337,0.01577631,0.00000253,0.00
 632750,-0.00674969,-0.00000043,0.75194413,-0.02710918,0.01727442,0.000
 02193,0.00514456,-0.12370210,-0.00000625,0.02471571,0.00055927,-0.0000
 0835,0.01415007,-0.00207551,-0.00000994,-0.00333697,-0.01477807,0.0000
 0665,0.15361964,0.78356805,0.00005252,0.00017236,-0.00325739,-0.000265
 89,0.00001877,-0.04270338,0.00001925,-0.00023554,-0.00077921,0.0000803
 5,0.00005420,-0.00037971,-0.00001692,-0.00002078,-0.00058714,0.0003436
 1,0.00020403,0.15120189,-0.01038695,-0.00383875,-0.00000771,-0.0459477
 1,-0.05935670,-0.00008498,0.00772967,0.01242241,0.00000048,-0.01121193
 ,-0.00759012,-0.00000018,-0.00129341,-0.00205962,0.00000197,-0.2295246
 1,-0.21481762,-0.00017365,0.26772632,-0.01170377,-0.01918292,-0.000009
 83,-0.02342154,-0.01673193,-0.00006449,0.00992217,0.03033465,0.0000130
 3,-0.01690314,-0.00852776,0.00000404,0.00223932,0.00329040,-0.00000050
 ,-0.20925451,-0.42443191,-0.00022403,0.26684303,0.52336670,-0.00003534
 ,-0.00006478,0.00507495,0.00006491,-0.00003682,0.01291039,-0.00000463,
 0.00010256,-0.00186940,-0.00004251,-0.00002435,0.00005787,0.00000825,0
 .00000517,0.00129933,-0.00026116,-0.00036888,-0.05945111,0.00027099,0.
 00033482,0.02785173,-0.00577080,-0.00083119,0.00000286,-0.04202813,0.0
 5516252,-0.00006432,-0.00068714,-0.00510972,-0.00000732,-0.00813723,0.
 00094941,0.00000615,0.00104116,0.00421781,-0.00000514,-0.15629626,0.03
 785278,-0.00005989,0.02607237,-0.02409600,0.00000670,0.44786747,-0.004
 59518,0.01256044,-0.00000650,0.01732357,-0.02025366,0.00006482,-0.0002
 9432,-0.01313480,0.00000516,0.00921536,0.00677155,-0.00000217,0.002309
 22,-0.00310473,-0.00000352,0.08572699,-0.19904177,0.00002661,0.0043568
 0,-0.08601043,0.00004457,0.12943113,0.57358194,-0.00001550,-0.00004858
 ,-0.00236909,0.00005583,0.00002583,0.00972813,-0.00000585,0.00005528,0
 .00340916,-0.00002499,-0.00001603,0.00184361,0.00000084,0.00001005,0.0
 0011159,-0.00015839,0.00012241,-0.04085523,0.00000049,-0.00004709,0.00
 984528,0.00022438,-0.00009275,0.02465756,0.00248565,0.00071184,-0.0000
 3034,-0.00177669,0.00696544,-0.00000703,0.00008625,0.00076099,-0.00000
 003,0.00071893,-0.00355312,-0.00000050,-0.00455397,-0.00000738,0.00000
 422,0.02217031,0.01089061,0.00001859,-0.00201410,0.00706110,-0.0000055
 4,-0.26171744,-0.24379816,-0.00007604,0.24452041,-0.00075590,-0.000868
 58,0.00000703,-0.00061800,0.00007815,-0.00000453,0.00030203,-0.0010146
 2,-0.00000075,-0.00239742,0.00056523,0.00000155,0.00039180,0.00028486,
 -0.00000120,-0.02396746,-0.03854037,0.00000271,0.00378055,-0.00213856,
 0.00000807,-0.19754186,-0.27149944,-0.00000866,0.22100110,0.31310624,-
 0.00001401,0.00000920,-0.00017900,0.00000138,0.00000004,0.00161444,0.0
 0000044,0.00000463,-0.00059680,-0.00000046,-0.00000288,0.00029971,-0.0
 0000158,-0.00000147,-0.00099211,0.00003025,0.00003773,-0.00438516,-0.0
 0000929,-0.00000702,0.00464068,-0.00010334,-0.00003587,-0.00628881,0.0
 0009645,-0.00000427,0.00593682,-0.01568886,-0.01794818,0.00000133,-0.0
 0488917,0.00226506,0.00000286,0.00168073,0.00352275,0.00000110,0.00926
 945,0.00419370,-0.00000198,-0.25578110,-0.14758767,0.00003041,0.001514
 38,-0.00110962,0.00000205,-0.00114964,-0.00068667,-0.00000168,-0.00034
 400,0.00032460,-0.00000077,0.00008064,-0.00019486,0.00000015,0.2653075
 6,0.01034699,0.01240244,-0.00000157,0.00664466,-0.00090440,-0.00000360
 ,0.00131228,-0.00426199,0.00000096,-0.02752505,-0.01325141,0.00000237,
 -0.14772411,-0.17234775,0.00001850,-0.00046837,0.00116799,0.00000165,0
 .00026001,0.00003177,-0.00000035,-0.00003488,0.00013090,-0.00000044,-0
 .00003242,0.00002709,-0.00000009,0.15722088,0.17700536,0.00000890,0.00
 000552,-0.00278494,0.00000076,-0.00000076,0.00730886,-0.00000277,-0.00
 000394,0.00787072,0.00000310,0.00000108,-0.00317086,0.00002040,0.00001
 412,-0.03628479,0.00000107,0.00000066,0.00119642,0.00000187,0.00000107
 ,-0.00035972,-0.00000008,-0.00000035,-0.00008220,0.00000021,0.00000004
 ,-0.00004977,-0.00003346,-0.00001744,0.02635628\\0.00009348,0.00004701
 ,0.00000812,-0.00008201,-0.00009965,-0.00005351,-0.00007789,0.00001765
 ,-0.00001351,0.00009633,0.00003179,0.00001485,-0.00004298,0.00002457,-
 0.00002775,0.00001285,-0.00002600,0.00024325,0.00007673,0.00005960,-0.
 00009742,-0.00003348,-0.00003413,-0.00007049,-0.00002186,-0.00006221,-
 0.00000726,-0.00002117,0.00004138,0.00000372\\\@


 "WHERE SHALL I START, PLEASE YOUR MAJESTY?" HE ASKED.
 "BEGIN AT THE BEGINNING," THE KING SAID GRAVELY,
 "AND GO ON TILL YOU COME TO THE END: THEN STOP." 

                                      -- LEWIS CARROLL
 Job cpu time:       0 days  0 hours 30 minutes 57.0 seconds.
 Elapsed time:       0 days  0 hours  1 minutes 33.8 seconds.
 File lengths (MBytes):  RWF=     82 Int=      0 D2E=      0 Chk=      7 Scr=      1
 Normal termination of Gaussian 16 at Sun Nov  5 06:32:11 2023.
