 Entering Gaussian System, Link 0=/opt/soft/g16b/g16/g16
 Initial command:
 /opt/soft/g16b/g16/l1.exe "/scratch/gongke2021/RC/Gau-23947.inp" -scrdir="/scratch/gongke2021/RC/"
 Entering Link 1 = /opt/soft/g16b/g16/l1.exe PID=     23948.
  
 Copyright (c) 1988,1990,1992,1993,1995,1998,2003,2009,2016,
            Gaussian, Inc.  All Rights Reserved.
  
 This is part of the Gaussian(R) 16 program.  It is based on
 the Gaussian(R) 09 system (copyright 2009, Gaussian, Inc.),
 the Gaussian(R) 03 system (copyright 2003, Gaussian, Inc.),
 the Gaussian(R) 98 system (copyright 1998, Gaussian, Inc.),
 the Gaussian(R) 94 system (copyright 1995, Gaussian, Inc.),
 the Gaussian 92(TM) system (copyright 1992, Gaussian, Inc.),
 the Gaussian 90(TM) system (copyright 1990, Gaussian, Inc.),
 the Gaussian 88(TM) system (copyright 1988, Gaussian, Inc.),
 the Gaussian 86(TM) system (copyright 1986, Carnegie Mellon
 University), and the Gaussian 82(TM) system (copyright 1983,
 Carnegie Mellon University). Gaussian is a federally registered
 trademark of Gaussian, Inc.
  
 This software contains proprietary and confidential information,
 including trade secrets, belonging to Gaussian, Inc.
  
 This software is provided under written license and may be
 used, copied, transmitted, or stored only in accord with that
 written license.
  
 The following legend is applicable only to US Government
 contracts under FAR:
  
                    RESTRICTED RIGHTS LEGEND
  
 Use, reproduction and disclosure by the US Government is
 subject to restrictions as set forth in subparagraphs (a)
 and (c) of the Commercial Computer Software - Restricted
 Rights clause in FAR 52.227-19.
  
 Gaussian, Inc.
 340 Quinnipiac St., Bldg. 40, Wallingford CT 06492
  
  
 ---------------------------------------------------------------
 Warning -- This program may not be used in any manner that
 competes with the business of Gaussian, Inc. or will provide
 assistance to any competitor of Gaussian, Inc.  The licensee
 of this program is prohibited from giving any competitor of
 Gaussian, Inc. access to this program.  By using this program,
 the user acknowledges that Gaussian, Inc. is engaged in the
 business of creating and licensing software in the field of
 computational chemistry and represents and warrants to the
 licensee that it is not a competitor of Gaussian, Inc. and that
 it will not use this program in any manner prohibited above.
 ---------------------------------------------------------------
  

 Cite this work as:
 Gaussian 16, Revision A.03,
 M. J. Frisch, G. W. Trucks, H. B. Schlegel, G. E. Scuseria, 
 M. A. Robb, J. R. Cheeseman, G. Scalmani, V. Barone, 
 G. A. Petersson, H. Nakatsuji, X. Li, M. Caricato, A. V. Marenich, 
 J. Bloino, B. G. Janesko, R. Gomperts, B. Mennucci, H. P. Hratchian, 
 J. V. Ortiz, A. F. Izmaylov, J. L. Sonnenberg, D. Williams-Young, 
 F. Ding, F. Lipparini, F. Egidi, J. Goings, B. Peng, A. Petrone, 
 T. Henderson, D. Ranasinghe, V. G. Zakrzewski, J. Gao, N. Rega, 
 G. Zheng, W. Liang, M. Hada, M. Ehara, K. Toyota, R. Fukuda, 
 J. Hasegawa, M. Ishida, T. Nakajima, Y. Honda, O. Kitao, H. Nakai, 
 T. Vreven, K. Throssell, J. A. Montgomery, Jr., J. E. Peralta, 
 F. Ogliaro, M. J. Bearpark, J. J. Heyd, E. N. Brothers, K. N. Kudin, 
 V. N. Staroverov, T. A. Keith, R. Kobayashi, J. Normand, 
 K. Raghavachari, A. P. Rendell, J. C. Burant, S. S. Iyengar, 
 J. Tomasi, M. Cossi, J. M. Millam, M. Klene, C. Adamo, R. Cammi, 
 J. W. Ochterski, R. L. Martin, K. Morokuma, O. Farkas, 
 J. B. Foresman, and D. J. Fox, Gaussian, Inc., Wallingford CT, 2016.
 
 ******************************************
 Gaussian 16:  ES64L-G16RevA.03 25-Dec-2016
                 1-Jul-2023 
 ******************************************
 %chk=RC.chk
 %mem=10GB
 %nprocshared=20
 Will use up to   20 processors via shared memory.
 -----------------------------------------------------
 # opt freq 6-31+g(d,p) m062x scrf=(SMD,solvent=water)
 -----------------------------------------------------
 1/18=20,19=15,26=3,38=1/1,3;
 2/9=110,12=2,17=6,18=5,40=1/2;
 3/5=1,6=6,7=111,11=2,25=1,30=1,70=32201,71=1,72=1,74=-55/1,2,3;
 4//1;
 5/5=2,38=5,53=1/2;
 6/7=2,8=2,9=2,10=2,28=1/1;
 7//1,2,3,16;
 1/18=20,19=15,26=3/3(2);
 2/9=110/2;
 99//99;
 2/9=110/2;
 3/5=1,6=6,7=111,11=2,25=1,30=1,70=32205,71=1,72=1,74=-55/1,2,3;
 4/5=5,16=3,69=1/1;
 5/5=2,38=5,53=1/2;
 7//1,2,3,16;
 1/18=20,19=15,26=3/3(-5);
 2/9=110/2;
 6/7=2,8=2,9=2,10=2,19=2,28=1/1;
 99/9=1/99;
 --
 RC
 --
 Symbolic Z-matrix:
 Charge = -1 Multiplicity = 2
 N                     0.504    -1.058     0. 
 N                     1.052     0.161     0. 
 C                     0.111     1.132     0. 
 C                    -1.069     0.43      0. 
 N                    -0.78     -0.902     0. 
 H                     0.348     2.184     0. 
 H                    -2.086     0.788     0. 
 H                     2.058     0.247    -0.001 
 C                     1.479    -2.2812   -0.0561 
 O                     2.649    -1.9093    0.0805 
 O                     0.8869   -3.3641   -0.0984 
 

 GradGradGradGradGradGradGradGradGradGradGradGradGradGradGradGradGradGrad
 Berny optimization.
 Initialization pass.
                           ----------------------------
                           !    Initial Parameters    !
                           ! (Angstroms and Degrees)  !
 --------------------------                            --------------------------
 ! Name  Definition              Value          Derivative Info.                !
 --------------------------------------------------------------------------------
 ! R1    R(1,2)                  1.3365         estimate D2E/DX2                !
 ! R2    R(1,5)                  1.2934         estimate D2E/DX2                !
 ! R3    R(1,9)                  1.5652         estimate D2E/DX2                !
 ! R4    R(2,3)                  1.3522         estimate D2E/DX2                !
 ! R5    R(2,8)                  1.0097         estimate D2E/DX2                !
 ! R6    R(3,4)                  1.373          estimate D2E/DX2                !
 ! R7    R(3,6)                  1.0784         estimate D2E/DX2                !
 ! R8    R(4,5)                  1.363          estimate D2E/DX2                !
 ! R9    R(4,7)                  1.0782         estimate D2E/DX2                !
 ! R10   R(9,10)                 1.2353         estimate D2E/DX2                !
 ! R11   R(9,11)                 1.2349         estimate D2E/DX2                !
 ! A1    A(2,1,5)              107.279          estimate D2E/DX2                !
 ! A2    A(2,1,9)              117.2168         estimate D2E/DX2                !
 ! A3    A(5,1,9)              135.4478         estimate D2E/DX2                !
 ! A4    A(1,2,3)              111.6927         estimate D2E/DX2                !
 ! A5    A(1,2,8)              119.0924         estimate D2E/DX2                !
 ! A6    A(3,2,8)              129.2149         estimate D2E/DX2                !
 ! A7    A(2,3,4)              103.352          estimate D2E/DX2                !
 ! A8    A(2,3,6)              123.203          estimate D2E/DX2                !
 ! A9    A(4,3,6)              133.445          estimate D2E/DX2                !
 ! A10   A(3,4,5)              108.5075         estimate D2E/DX2                !
 ! A11   A(3,4,7)              129.8581         estimate D2E/DX2                !
 ! A12   A(5,4,7)              121.6344         estimate D2E/DX2                !
 ! A13   A(1,5,4)              109.1688         estimate D2E/DX2                !
 ! A14   A(1,9,10)             110.5335         estimate D2E/DX2                !
 ! A15   A(1,9,11)             112.8201         estimate D2E/DX2                !
 ! A16   A(10,9,11)            136.2137         estimate D2E/DX2                !
 ! D1    D(5,1,2,3)              0.0            estimate D2E/DX2                !
 ! D2    D(5,1,2,8)           -179.9351         estimate D2E/DX2                !
 ! D3    D(9,1,2,3)            177.6902         estimate D2E/DX2                !
 ! D4    D(9,1,2,8)             -2.2449         estimate D2E/DX2                !
 ! D5    D(2,1,5,4)              0.0            estimate D2E/DX2                !
 ! D6    D(9,1,5,4)           -177.0716         estimate D2E/DX2                !
 ! D7    D(2,1,9,10)             8.6187         estimate D2E/DX2                !
 ! D8    D(2,1,9,11)          -177.6771         estimate D2E/DX2                !
 ! D9    D(5,1,9,10)          -174.5259         estimate D2E/DX2                !
 ! D10   D(5,1,9,11)            -0.8216         estimate D2E/DX2                !
 ! D11   D(1,2,3,4)              0.0            estimate D2E/DX2                !
 ! D12   D(1,2,3,6)            180.0            estimate D2E/DX2                !
 ! D13   D(8,2,3,4)            179.9268         estimate D2E/DX2                !
 ! D14   D(8,2,3,6)             -0.0732         estimate D2E/DX2                !
 ! D15   D(2,3,4,5)              0.0            estimate D2E/DX2                !
 ! D16   D(2,3,4,7)            180.0            estimate D2E/DX2                !
 ! D17   D(6,3,4,5)            180.0            estimate D2E/DX2                !
 ! D18   D(6,3,4,7)              0.0            estimate D2E/DX2                !
 ! D19   D(3,4,5,1)              0.0            estimate D2E/DX2                !
 ! D20   D(7,4,5,1)            180.0            estimate D2E/DX2                !
 --------------------------------------------------------------------------------
 Trust Radius=3.00D-01 FncErr=1.00D-07 GrdErr=1.00D-06 EigMax=2.50D+02 EigMin=1.00D-04
 Number of steps in this run=     57 maximum allowed number of steps=    100.
 GradGradGradGradGradGradGradGradGradGradGradGradGradGradGradGradGradGrad

                          Input orientation:                          
 ---------------------------------------------------------------------
 Center     Atomic      Atomic             Coordinates (Angstroms)
 Number     Number       Type             X           Y           Z
 ---------------------------------------------------------------------
      1          7           0        0.504000   -1.058000    0.000000
      2          7           0        1.052000    0.161000    0.000000
      3          6           0        0.111000    1.132000    0.000000
      4          6           0       -1.069000    0.430000    0.000000
      5          7           0       -0.780000   -0.902000    0.000000
      6          1           0        0.348000    2.184000    0.000000
      7          1           0       -2.086000    0.788000    0.000000
      8          1           0        2.058000    0.247000   -0.001000
      9          6           0        1.479000   -2.281200   -0.056100
     10          8           0        2.649000   -1.909300    0.080500
     11          8           0        0.886900   -3.364100   -0.098400
 ---------------------------------------------------------------------
                    Distance matrix (angstroms):
                    1          2          3          4          5
     1  N    0.000000
     2  N    1.336512   0.000000
     3  C    2.224983   1.352155   0.000000
     4  C    2.165288   2.137990   1.373027   0.000000
     5  N    1.293442   2.118064   2.220594   1.362991   0.000000
     6  H    3.245751   2.141996   1.078366   2.254863   3.285693
     7  H    3.180537   3.200027   2.223768   1.078171   2.135822
     8  H    2.029271   1.009670   2.138699   3.132350   3.061772
     9  C    1.565245   2.479882   3.677568   3.721029   2.647342
    10  O    2.309159   2.615919   3.961998   4.393442   3.574797
    11  O    2.339742   3.530336   4.563619   4.269710   2.974924
                    6          7          8          9         10
     6  H    0.000000
     7  H    2.805917   0.000000
     8  H    2.583809   4.179165   0.000000
     9  C    4.606552   4.704504   2.594238   0.000000
    10  O    4.696401   5.449966   2.237309   1.235261   0.000000
    11  O    5.575079   5.107617   3.797500   1.234927   2.292039
                   11
    11  O    0.000000
 Stoichiometry    C3H3N3O2(1-,2)
 Framework group  C1[X(C3H3N3O2)]
 Deg. of freedom    27
 Full point group                 C1      NOp   1
 Largest Abelian subgroup         C1      NOp   1
 Largest concise Abelian subgroup C1      NOp   1
                         Standard orientation:                         
 ---------------------------------------------------------------------
 Center     Atomic      Atomic             Coordinates (Angstroms)
 Number     Number       Type             X           Y           Z
 ---------------------------------------------------------------------
      1          7           0        0.005147   -0.165872    0.013754
      2          7           0       -0.721050    0.955375   -0.027589
      3          6           0       -2.047333    0.692135   -0.027494
      4          6           0       -2.098407   -0.679219    0.017041
      5          7           0       -0.822921   -1.159127    0.040930
      6          1           0       -2.802122    1.461722   -0.057516
      7          1           0       -2.951161   -1.338767    0.033142
      8          1           0       -0.247124    1.846494   -0.054699
      9          6           0        1.562041   -0.012724   -0.037391
     10          8           0        1.884022    1.175646    0.062476
     11          8           0        2.150274   -1.098550   -0.040416
 ---------------------------------------------------------------------
 Rotational constants (GHZ):           5.4813880           1.7043840           1.3012044
 Standard basis: 6-31+G(d,p) (6D, 7F)
 There are   167 symmetry adapted cartesian basis functions of A   symmetry.
 There are   167 symmetry adapted basis functions of A   symmetry.
   167 basis functions,   277 primitive gaussians,   167 cartesian basis functions
    30 alpha electrons       29 beta electrons
       nuclear repulsion energy       359.2729121159 Hartrees.
 NAtoms=   11 NActive=   11 NUniq=   11 SFac= 1.00D+00 NAtFMM=   60 NAOKFM=F Big=F
 Integral buffers will be    131072 words long.
 Raffenetti 2 integral format.
 Two-electron integral symmetry is turned on.
 ------------------------------------------------------------------------------
 Polarizable Continuum Model (PCM)
 =================================
 Model                : PCM.
 Atomic radii         : SMD-Coulomb.
 Polarization charges : Total charges.
 Charge compensation  : None.
 Solution method      : On-the-fly selection.
 Cavity type          : VdW (van der Waals Surface) (Alpha=1.000).
 Cavity algorithm     : GePol (No added spheres)
                        Default sphere list used, NSphG=   11.
                        Lebedev-Laikov grids with approx.  5.0 points / Ang**2.
                        Smoothing algorithm: York/Karplus (Gamma=1.0000).
                        Polarization charges: spherical gaussians, with
                                              point-specific exponents (IZeta= 3).
                        Self-potential: point-specific (ISelfS= 7).
                        Self-field    : sphere-specific E.n sum rule (ISelfD= 2).
 1st derivatives      : Analytical E(r).r(x)/FMM algorithm (CHGder, D1EAlg=3).
                        Cavity 1st derivative terms included.
 Solvent              : Water, Eps=  78.355300 Eps(inf)=   1.777849
 ------------------------------------------------------------------------------
 Spheres list:
 ISph  on   Nord     Re0    Alpha      Xe            Ye            Ze
    1   N      1    1.8900  1.000      0.005147     -0.165872      0.013754
    2   N      2    1.8900  1.000     -0.721050      0.955375     -0.027589
    3   C      3    1.8500  1.000     -2.047333      0.692135     -0.027494
    4   C      4    1.8500  1.000     -2.098407     -0.679219      0.017041
    5   N      5    1.8900  1.000     -0.822921     -1.159127      0.040930
    6   H      6    1.2000  1.000     -2.802122      1.461722     -0.057516
    7   H      7    1.2000  1.000     -2.951161     -1.338767      0.033142
    8   H      8    1.2000  1.000     -0.247124      1.846494     -0.054699
    9   C      9    1.8500  1.000      1.562041     -0.012724     -0.037391
   10   O     10    1.5200  1.000      1.884022      1.175646      0.062476
   11   O     11    1.5200  1.000      2.150274     -1.098550     -0.040416
 ------------------------------------------------------------------------------
 ------------------------------------------------------------------------------
 Atomic radii for non-electrostatic terms: SMD-CDS.
 ------------------------------------------------------------------------------
 Nuclear repulsion after PCM non-electrostatic terms =      359.2803686773 Hartrees.
 One-electron integrals computed using PRISM.
 NBasis=   167 RedAO= T EigKep=  2.53D-05  NBF=   167
 NBsUse=   167 1.00D-06 EigRej= -1.00D+00 NBFU=   167
 ExpMin= 4.38D-02 ExpMax= 5.48D+03 ExpMxC= 8.25D+02 IAcc=3 IRadAn=         5 AccDes= 0.00D+00
 Harris functional with IExCor= 1009 and IRadAn=       5 diagonalized for initial guess.
 HarFok:  IExCor= 1009 AccDes= 0.00D+00 IRadAn=         5 IDoV= 1 UseB2=F ITyADJ=14
 ICtDFT=  3500011 ScaDFX=  1.000000  1.000000  1.000000  1.000000
 FoFCou: FMM=F IPFlag=           0 FMFlag=      100000 FMFlg1=           0
         NFxFlg=           0 DoJE=T BraDBF=F KetDBF=T FulRan=T
         wScrn=  0.000000 ICntrl=       500 IOpCl=  0 I1Cent=   200000004 NGrid=           0
         NMat0=    1 NMatS0=      1 NMatT0=    0 NMatD0=    1 NMtDS0=    0 NMtDT0=    0
 Petite list used in FoFCou.
 Initial guess <Sx>= 0.0000 <Sy>= 0.0000 <Sz>= 0.5000 <S**2>= 0.7500 S= 0.5000
 Keep R1 and R2 ints in memory in canonical form, NReq=216648901.
 Requested convergence on RMS density matrix=1.00D-08 within 128 cycles.
 Requested convergence on MAX density matrix=1.00D-06.
 Requested convergence on             energy=1.00D-06.
 No special actions if energy rises.
 Inv3:  Mode=1 IEnd=     3060300.
 Iteration    1 A*A^-1 deviation from unit magnitude is 5.33D-15 for    989.
 Iteration    1 A*A^-1 deviation from orthogonality  is 2.11D-15 for    828    125.
 Iteration    1 A^-1*A deviation from unit magnitude is 5.11D-15 for    989.
 Iteration    1 A^-1*A deviation from orthogonality  is 9.16D-15 for    860    828.
 Error on total polarization charges =  0.05283
 SCF Done:  E(UM062X) =  -430.745229113     A.U. after   18 cycles
            NFock= 18  Conv=0.59D-08     -V/T= 2.0078
 <Sx>= 0.0000 <Sy>= 0.0000 <Sz>= 0.5000 <S**2>= 0.7611 S= 0.5055
 <L.S>= 0.000000000000E+00
 SMD-CDS (non-electrostatic) energy       (kcal/mol) =       4.68
 (included in total energy above)
 Annihilation of the first spin contaminant:
 S**2 before annihilation     0.7611,   after     0.7500

 **********************************************************************

            Population analysis using the SCF density.

 **********************************************************************

 Orbital symmetries:
 Alpha Orbitals:
       Occupied  (A) (A) (A) (A) (A) (A) (A) (A) (A) (A) (A) (A)
                 (A) (A) (A) (A) (A) (A) (A) (A) (A) (A) (A) (A)
                 (A) (A) (A) (A) (A) (A)
       Virtual   (A) (A) (A) (A) (A) (A) (A) (A) (A) (A) (A) (A)
                 (A) (A) (A) (A) (A) (A) (A) (A) (A) (A) (A) (A)
                 (A) (A) (A) (A) (A) (A) (A) (A) (A) (A) (A) (A)
                 (A) (A) (A) (A) (A) (A) (A) (A) (A) (A) (A) (A)
                 (A) (A) (A) (A) (A) (A) (A) (A) (A) (A) (A) (A)
                 (A) (A) (A) (A) (A) (A) (A) (A) (A) (A) (A) (A)
                 (A) (A) (A) (A) (A) (A) (A) (A) (A) (A) (A) (A)
                 (A) (A) (A) (A) (A) (A) (A) (A) (A) (A) (A) (A)
                 (A) (A) (A) (A) (A) (A) (A) (A) (A) (A) (A) (A)
                 (A) (A) (A) (A) (A) (A) (A) (A) (A) (A) (A) (A)
                 (A) (A) (A) (A) (A) (A) (A) (A) (A) (A) (A) (A)
                 (A) (A) (A) (A) (A)
 Beta  Orbitals:
       Occupied  (A) (A) (A) (A) (A) (A) (A) (A) (A) (A) (A) (A)
                 (A) (A) (A) (A) (A) (A) (A) (A) (A) (A) (A) (A)
                 (A) (A) (A) (A) (A)
       Virtual   (A) (A) (A) (A) (A) (A) (A) (A) (A) (A) (A) (A)
                 (A) (A) (A) (A) (A) (A) (A) (A) (A) (A) (A) (A)
                 (A) (A) (A) (A) (A) (A) (A) (A) (A) (A) (A) (A)
                 (A) (A) (A) (A) (A) (A) (A) (A) (A) (A) (A) (A)
                 (A) (A) (A) (A) (A) (A) (A) (A) (A) (A) (A) (A)
                 (A) (A) (A) (A) (A) (A) (A) (A) (A) (A) (A) (A)
                 (A) (A) (A) (A) (A) (A) (A) (A) (A) (A) (A) (A)
                 (A) (A) (A) (A) (A) (A) (A) (A) (A) (A) (A) (A)
                 (A) (A) (A) (A) (A) (A) (A) (A) (A) (A) (A) (A)
                 (A) (A) (A) (A) (A) (A) (A) (A) (A) (A) (A) (A)
                 (A) (A) (A) (A) (A) (A) (A) (A) (A) (A) (A) (A)
                 (A) (A) (A) (A) (A) (A)
 The electronic state is 2-A.
 Alpha  occ. eigenvalues --  -19.62195 -19.61866 -14.84045 -14.81196 -14.76202
 Alpha  occ. eigenvalues --  -10.69781 -10.57027 -10.56418  -1.23253  -1.18138
 Alpha  occ. eigenvalues --   -1.10747  -0.99828  -0.91814  -0.73212  -0.70982
 Alpha  occ. eigenvalues --   -0.68209  -0.59516  -0.57344  -0.54487  -0.52861
 Alpha  occ. eigenvalues --   -0.50616  -0.50065  -0.49520  -0.38048  -0.37677
 Alpha  occ. eigenvalues --   -0.35986  -0.35656  -0.35208  -0.33793  -0.13860
 Alpha virt. eigenvalues --    0.02295   0.03962   0.04543   0.05437   0.06584
 Alpha virt. eigenvalues --    0.06823   0.06858   0.09222   0.10114   0.10698
 Alpha virt. eigenvalues --    0.10894   0.11794   0.13236   0.15625   0.16669
 Alpha virt. eigenvalues --    0.19730   0.19790   0.20660   0.20817   0.21486
 Alpha virt. eigenvalues --    0.22672   0.22760   0.24756   0.25055   0.26866
 Alpha virt. eigenvalues --    0.27215   0.27367   0.28037   0.29149   0.29884
 Alpha virt. eigenvalues --    0.30700   0.32131   0.32463   0.33327   0.34467
 Alpha virt. eigenvalues --    0.35771   0.36866   0.39189   0.41347   0.45506
 Alpha virt. eigenvalues --    0.48050   0.49756   0.51370   0.56538   0.69679
 Alpha virt. eigenvalues --    0.72368   0.72693   0.76902   0.80461   0.83347
 Alpha virt. eigenvalues --    0.86547   0.91436   0.92293   0.94274   0.96090
 Alpha virt. eigenvalues --    0.96956   0.97479   1.00034   1.02645   1.03818
 Alpha virt. eigenvalues --    1.08347   1.10015   1.13777   1.18220   1.19858
 Alpha virt. eigenvalues --    1.22007   1.27474   1.28081   1.29347   1.31023
 Alpha virt. eigenvalues --    1.35125   1.36147   1.37115   1.39516   1.40215
 Alpha virt. eigenvalues --    1.40269   1.41281   1.44093   1.45493   1.51724
 Alpha virt. eigenvalues --    1.54429   1.57497   1.57732   1.64574   1.71781
 Alpha virt. eigenvalues --    1.76624   1.81417   1.86059   1.88269   1.90446
 Alpha virt. eigenvalues --    1.91058   1.95959   2.00961   2.02310   2.04803
 Alpha virt. eigenvalues --    2.08803   2.09733   2.13598   2.18244   2.21323
 Alpha virt. eigenvalues --    2.24244   2.28094   2.32945   2.34878   2.36099
 Alpha virt. eigenvalues --    2.42416   2.44539   2.47819   2.50406   2.54206
 Alpha virt. eigenvalues --    2.60229   2.62721   2.69573   2.71224   2.78460
 Alpha virt. eigenvalues --    2.80821   2.83333   2.86678   2.92937   2.96162
 Alpha virt. eigenvalues --    3.01870   3.09165   3.13577   3.15722   3.26832
 Alpha virt. eigenvalues --    3.27986   3.34439   3.56592   3.81924   4.09468
 Alpha virt. eigenvalues --    4.16094   4.27588   4.36351   4.43296   4.59067
 Alpha virt. eigenvalues --    4.66544   4.77608
  Beta  occ. eigenvalues --  -19.62129 -19.61772 -14.83610 -14.80735 -14.75721
  Beta  occ. eigenvalues --  -10.69761 -10.56903 -10.56492  -1.22114  -1.17688
  Beta  occ. eigenvalues --   -1.10487  -0.98297  -0.90819  -0.71960  -0.70419
  Beta  occ. eigenvalues --   -0.67375  -0.59102  -0.54750  -0.54068  -0.52576
  Beta  occ. eigenvalues --   -0.50149  -0.49327  -0.48881  -0.37190  -0.35438
  Beta  occ. eigenvalues --   -0.35228  -0.34177  -0.33062  -0.31066
  Beta virt. eigenvalues --    0.02001   0.02537   0.03995   0.04311   0.05182
  Beta virt. eigenvalues --    0.06366   0.06805   0.07617   0.08815   0.08932
  Beta virt. eigenvalues --    0.10809   0.11067   0.13004   0.13705   0.15267
  Beta virt. eigenvalues --    0.16085   0.19722   0.19770   0.20629   0.21221
  Beta virt. eigenvalues --    0.21514   0.22770   0.22817   0.24415   0.24987
  Beta virt. eigenvalues --    0.26824   0.27002   0.27657   0.27942   0.28992
  Beta virt. eigenvalues --    0.29944   0.30892   0.32217   0.32448   0.33397
  Beta virt. eigenvalues --    0.34582   0.35834   0.36603   0.38928   0.41285
  Beta virt. eigenvalues --    0.45757   0.48056   0.50003   0.51592   0.56883
  Beta virt. eigenvalues --    0.70020   0.72671   0.73131   0.77028   0.80683
  Beta virt. eigenvalues --    0.83451   0.86682   0.91493   0.92403   0.94614
  Beta virt. eigenvalues --    0.96415   0.97433   0.98846   1.01821   1.04050
  Beta virt. eigenvalues --    1.05080   1.08544   1.10235   1.14100   1.18114
  Beta virt. eigenvalues --    1.20263   1.22167   1.27759   1.28291   1.30057
  Beta virt. eigenvalues --    1.31143   1.35315   1.36526   1.37263   1.39856
  Beta virt. eigenvalues --    1.40960   1.41220   1.41703   1.44214   1.46244
  Beta virt. eigenvalues --    1.52123   1.54641   1.58223   1.58774   1.64998
  Beta virt. eigenvalues --    1.71970   1.77166   1.81555   1.86177   1.88406
  Beta virt. eigenvalues --    1.90619   1.91336   1.96283   2.01425   2.02700
  Beta virt. eigenvalues --    2.05058   2.08812   2.10249   2.13901   2.18620
  Beta virt. eigenvalues --    2.22374   2.24481   2.28596   2.33438   2.35315
  Beta virt. eigenvalues --    2.36591   2.42876   2.45012   2.48229   2.50648
  Beta virt. eigenvalues --    2.54568   2.60734   2.63415   2.70165   2.71750
  Beta virt. eigenvalues --    2.78767   2.81559   2.83794   2.87203   2.93400
  Beta virt. eigenvalues --    2.96469   3.02381   3.09506   3.13652   3.15909
  Beta virt. eigenvalues --    3.27234   3.28116   3.34786   3.56828   3.82504
  Beta virt. eigenvalues --    4.09655   4.16165   4.27697   4.36388   4.43519
  Beta virt. eigenvalues --    4.59529   4.66524   4.78118
          Condensed to atoms (all electrons):
               1          2          3          4          5          6
     1  N    7.842754  -0.494607   0.057792   0.073333  -0.444792   0.010209
     2  N   -0.494607   7.679208   0.022820  -0.076906   0.026992  -0.045931
     3  C    0.057792   0.022820   5.578734   0.239544  -0.049957   0.387757
     4  C    0.073333  -0.076906   0.239544   5.431748   0.137960  -0.016779
     5  N   -0.444792   0.026992  -0.049957   0.137960   7.878316   0.003701
     6  H    0.010209  -0.045931   0.387757  -0.016779   0.003701   0.430896
     7  H    0.007678  -0.005247  -0.023391   0.396173  -0.047689   0.000331
     8  H    0.004386   0.299750  -0.002443  -0.004077   0.004037  -0.000883
     9  C    0.121157  -0.013128  -0.015069   0.000042  -0.030769  -0.000187
    10  O   -0.106515  -0.028827   0.011854  -0.012940   0.041545  -0.000091
    11  O   -0.119722   0.045882  -0.004063  -0.002629  -0.034892   0.000012
               7          8          9         10         11
     1  N    0.007678   0.004386   0.121157  -0.106515  -0.119722
     2  N   -0.005247   0.299750  -0.013128  -0.028827   0.045882
     3  C   -0.023391  -0.002443  -0.015069   0.011854  -0.004063
     4  C    0.396173  -0.004077   0.000042  -0.012940  -0.002629
     5  N   -0.047689   0.004037  -0.030769   0.041545  -0.034892
     6  H    0.000331  -0.000883  -0.000187  -0.000091   0.000012
     7  H    0.464573  -0.000069   0.000527   0.000007   0.000005
     8  H   -0.000069   0.303049  -0.002908   0.006669   0.000789
     9  C    0.000527  -0.002908   4.428063   0.362917   0.361746
    10  O    0.000007   0.006669   0.362917   8.543430  -0.116454
    11  O    0.000005   0.000789   0.361746  -0.116454   8.569925
          Atomic-Atomic Spin Densities.
               1          2          3          4          5          6
     1  N    0.751048  -0.356140   0.133635   0.055019  -0.407845  -0.000701
     2  N   -0.356140   0.689991  -0.244086  -0.054035   0.170849   0.001364
     3  C    0.133635  -0.244086   0.361578   0.091874  -0.108473  -0.004954
     4  C    0.055019  -0.054035   0.091874  -0.096719  -0.106035   0.004728
     5  N   -0.407845   0.170849  -0.108473  -0.106035   0.829444  -0.000423
     6  H   -0.000701   0.001364  -0.004954   0.004728  -0.000423  -0.008945
     7  H    0.003621   0.000375  -0.000819   0.003176  -0.005425   0.000020
     8  H   -0.003230   0.003906  -0.003460   0.002802  -0.001719   0.000084
     9  C    0.067117  -0.016406  -0.001055   0.000730  -0.011801  -0.000018
    10  O   -0.034572   0.020047  -0.003283  -0.001814   0.008872   0.000015
    11  O   -0.035199   0.007294  -0.002273  -0.001113   0.015995  -0.000002
               7          8          9         10         11
     1  N    0.003621  -0.003230   0.067117  -0.034572  -0.035199
     2  N    0.000375   0.003906  -0.016406   0.020047   0.007294
     3  C   -0.000819  -0.003460  -0.001055  -0.003283  -0.002273
     4  C    0.003176   0.002802   0.000730  -0.001814  -0.001113
     5  N   -0.005425  -0.001719  -0.011801   0.008872   0.015995
     6  H    0.000020   0.000084  -0.000018   0.000015  -0.000002
     7  H    0.001551  -0.000001  -0.000058   0.000006   0.000000
     8  H   -0.000001  -0.011324   0.000321   0.000514  -0.000024
     9  C   -0.000058   0.000321   0.061033  -0.021302  -0.026633
    10  O    0.000006   0.000514  -0.021302   0.054163   0.007540
    11  O    0.000000  -0.000024  -0.026633   0.007540   0.074167
 Mulliken charges and spin densities:
               1          2
     1  N    0.048327   0.172755
     2  N   -0.410008   0.223160
     3  C   -0.203578   0.218684
     4  C   -0.165468  -0.101388
     5  N   -0.484451   0.383439
     6  H    0.230965  -0.008831
     7  H    0.207102   0.002444
     8  H    0.391700  -0.012131
     9  C    0.787608   0.051929
    10  O   -0.701595   0.030185
    11  O   -0.700601   0.039753
 Sum of Mulliken charges =  -1.00000   1.00000
 Mulliken charges and spin densities with hydrogens summed into heavy atoms:
               1          2
     1  N    0.048327   0.172755
     2  N   -0.018308   0.211029
     3  C    0.027386   0.209854
     4  C    0.041634  -0.098944
     5  N   -0.484451   0.383439
     9  C    0.787608   0.051929
    10  O   -0.701595   0.030185
    11  O   -0.700601   0.039753
 Electronic spatial extent (au):  <R**2>=            863.1116
 Charge=             -1.0000 electrons
 Dipole moment (field-independent basis, Debye):
    X=             -9.4993    Y=              4.9109    Z=             -0.3439  Tot=             10.6992
 Quadrupole moment (field-independent basis, Debye-Ang):
   XX=            -64.0109   YY=            -55.8321   ZZ=            -49.8722
   XY=             -1.4009   XZ=             -0.1191   YZ=             -0.5474
 Traceless Quadrupole moment (field-independent basis, Debye-Ang):
   XX=             -7.4392   YY=              0.7397   ZZ=              6.6995
   XY=             -1.4009   XZ=             -0.1191   YZ=             -0.5474
 Octapole moment (field-independent basis, Debye-Ang**2):
  XXX=            -62.9087  YYY=             25.0999  ZZZ=             -0.0917  XYY=            -21.6191
  XXY=              5.2630  XXZ=             -0.4180  XZZ=              7.6754  YZZ=              1.5662
  YYZ=             -0.7817  XYZ=             -0.5755
 Hexadecapole moment (field-independent basis, Debye-Ang**3):
 XXXX=           -871.7551 YYYY=           -294.1574 ZZZZ=            -56.0835 XXXY=             10.4667
 XXXZ=              0.0491 YYYX=            -12.2782 YYYZ=             -1.0622 ZZZX=             -0.1556
 ZZZY=              0.1527 XXYY=           -201.2255 XXZZ=           -158.4633 YYZZ=            -61.9325
 XXYZ=             -2.9090 YYXZ=              0.5926 ZZXY=             -0.1281
 N-N= 3.592803686773D+02 E-N=-1.737521435343D+03  KE= 4.274026007326D+02
                          Isotropic Fermi Contact Couplings
        Atom                 a.u.       MegaHertz       Gauss      10(-4) cm-1
     1  N(14)              0.05344      17.26823       6.16173       5.76006
     2  N(14)              0.05544      17.91291       6.39177       5.97510
     3  C(13)              0.02355      26.47017       9.44522       8.82950
     4  C(13)             -0.02258     -25.38393      -9.05762      -8.46717
     5  N(14)              0.08733      28.21664      10.06840       9.41206
     6  H(1)              -0.00301     -13.44924      -4.79902      -4.48618
     7  H(1)               0.00047       2.09878       0.74890       0.70008
     8  H(1)              -0.00589     -26.30668      -9.38688      -8.77496
     9  C(13)              0.00316       3.55014       1.26678       1.18420
    10  O(17)              0.00706      -4.27735      -1.52627      -1.42677
    11  O(17)              0.01083      -6.56359      -2.34205      -2.18938
 --------------------------------------------------------
       Center         ----  Spin Dipole Couplings  ----
                      3XX-RR        3YY-RR        3ZZ-RR
 --------------------------------------------------------
     1   Atom       -0.314247     -0.324284      0.638531
     2   Atom       -0.336361     -0.318155      0.654516
     3   Atom       -0.079946     -0.092512      0.172459
     4   Atom        0.043397      0.031930     -0.075327
     5   Atom       -0.371924     -0.365700      0.737623
     6   Atom        0.001972      0.000947     -0.002919
     7   Atom        0.004503      0.001501     -0.006004
     8   Atom       -0.019266      0.027781     -0.008515
     9   Atom       -0.018557     -0.036106      0.054663
    10   Atom       -0.069301     -0.068607      0.137908
    11   Atom       -0.092234     -0.092476      0.184711
 --------------------------------------------------------
                        XY            XZ            YZ
 --------------------------------------------------------
     1   Atom        0.003771      0.049934      0.027007
     2   Atom       -0.001252     -0.004366      0.029786
     3   Atom       -0.003579      0.000868      0.009011
     4   Atom       -0.003882      0.002891     -0.004221
     5   Atom       -0.003196      0.010778      0.041248
     6   Atom       -0.017553      0.000801     -0.000221
     7   Atom        0.000183      0.000192     -0.000340
     8   Atom        0.028479     -0.001275     -0.001498
     9   Atom       -0.000508      0.013305     -0.003269
    10   Atom       -0.000357      0.004417     -0.011771
    11   Atom        0.000216      0.015917     -0.012788
 --------------------------------------------------------


 ---------------------------------------------------------------------------------
              Anisotropic Spin Dipole Couplings in Principal Axis System
 ---------------------------------------------------------------------------------

       Atom             a.u.   MegaHertz   Gauss  10(-4) cm-1        Axes

              Baa    -0.3257   -12.561    -4.482    -4.190 -0.2590  0.9658 -0.0136
     1 N(14)  Bbb    -0.3162   -12.196    -4.352    -4.068  0.9645  0.2579 -0.0577
              Bcc     0.6419    24.757     8.834     8.258  0.0522  0.0281  0.9982
 
              Baa    -0.3365   -12.976    -4.630    -4.328  0.9979  0.0643  0.0025
     2 N(14)  Bbb    -0.3190   -12.303    -4.390    -4.104 -0.0642  0.9975 -0.0308
              Bcc     0.6554    25.279     9.020     8.432 -0.0044  0.0306  0.9995
 
              Baa    -0.0938   -12.582    -4.489    -4.197  0.2526  0.9670 -0.0336
     3 C(13)  Bbb    -0.0790   -10.602    -3.783    -3.536  0.9676 -0.2526  0.0057
              Bcc     0.1728    23.184     8.273     7.733  0.0030  0.0339  0.9994
 
              Baa    -0.0756   -10.139    -3.618    -3.382 -0.0230  0.0384  0.9990
     4 C(13)  Bbb     0.0308     4.138     1.476     1.380  0.3013  0.9531 -0.0297
              Bcc     0.0447     6.001     2.141     2.002  0.9532 -0.3004  0.0335
 
              Baa    -0.3740   -14.422    -5.146    -4.811  0.8815  0.4715 -0.0260
     5 N(14)  Bbb    -0.3653   -14.089    -5.027    -4.700 -0.4722  0.8811 -0.0283
              Bcc     0.7393    28.512    10.174     9.511  0.0096  0.0373  0.9993
 
              Baa    -0.0161    -8.597    -3.068    -2.868  0.6968  0.7166 -0.0303
     6 H(1)   Bbb    -0.0029    -1.564    -0.558    -0.522 -0.0027  0.0448  0.9990
              Bcc     0.0190    10.161     3.626     3.389  0.7172 -0.6961  0.0331
 
              Baa    -0.0060    -3.214    -1.147    -1.072 -0.0190  0.0456  0.9988
     7 H(1)   Bbb     0.0015     0.804     0.287     0.268 -0.0578  0.9972 -0.0467
              Bcc     0.0045     2.410     0.860     0.804  0.9981  0.0586  0.0163
 
              Baa    -0.0327   -17.442    -6.224    -5.818  0.9047 -0.4255  0.0213
     8 H(1)   Bbb    -0.0086    -4.576    -1.633    -1.526 -0.0031  0.0436  0.9990
              Bcc     0.0413    22.018     7.857     7.345  0.4260  0.9039 -0.0381
 
              Baa    -0.0362    -4.861    -1.734    -1.621  0.0019  0.9994  0.0357
     9 C(13)  Bbb    -0.0209    -2.805    -1.001    -0.935  0.9849  0.0044 -0.1732
              Bcc     0.0571     7.665     2.735     2.557  0.1733 -0.0355  0.9842
 
              Baa    -0.0695     5.026     1.793     1.676  0.8636  0.5041  0.0102
    10 O(17)  Bbb    -0.0692     5.008     1.787     1.671 -0.5037  0.8618  0.0597
              Bcc     0.1387   -10.034    -3.580    -3.347  0.0213 -0.0567  0.9982
 
              Baa    -0.0941     6.805     2.428     2.270  0.7200 -0.6901 -0.0728
    11 O(17)  Bbb    -0.0922     6.668     2.379     2.224  0.6916  0.7222 -0.0064
              Bcc     0.1862   -13.474    -4.808    -4.494  0.0570 -0.0457  0.9973
 

 ---------------------------------------------------------------------------------

 D1PCM: PCM CHGder 1st derivatives, ID1Alg=3 FixD1E=F DoIter=F DoCFld=F I1PDM=0.
 Calling FoFJK, ICntrl=      2127 FMM=F ISym2X=0 I1Cent= 0 IOpClX= 1 NMat=1 NMatS=1 NMatT=0.
 ***** Axes restored to original set *****
 -------------------------------------------------------------------
 Center     Atomic                   Forces (Hartrees/Bohr)
 Number     Number              X              Y              Z
 -------------------------------------------------------------------
      1        7           0.066635767   -0.034668691   -0.001921454
      2        7           0.064760279    0.032164562    0.000651540
      3        6          -0.022516639    0.006990971   -0.000269685
      4        6           0.012621874   -0.002742320   -0.000375558
      5        7          -0.086743343   -0.025173340   -0.002064403
      6        1           0.000881228   -0.001083336   -0.000023133
      7        1          -0.000717867   -0.001084459    0.000087876
      8        1           0.000321372    0.000267640    0.000303765
      9        6          -0.048810486    0.040174920    0.014817715
     10        8           0.011271890   -0.003636406   -0.006138196
     11        8           0.002295923   -0.011209542   -0.005068467
 -------------------------------------------------------------------
 Cartesian Forces:  Max     0.086743343 RMS     0.027144193

 GradGradGradGradGradGradGradGradGradGradGradGradGradGradGradGradGradGrad
 Berny optimization.
 FormGI is forming the generalized inverse of G from B-inverse, IUseBI=4.
 Internal  Forces:  Max     0.062065855 RMS     0.016000897
 Search for a local minimum.
 Step number   1 out of a maximum of   57
 All quantities printed in internal units (Hartrees-Bohrs-Radians)
 Mixed Optimization -- RFO/linear search
 Second derivative matrix not updated -- first step.
 ITU=  0
     Eigenvalues ---    0.00230   0.00386   0.01396   0.02234   0.02295
     Eigenvalues ---    0.02342   0.02399   0.02437   0.16000   0.16000
     Eigenvalues ---    0.16000   0.22202   0.24059   0.24963   0.25000
     Eigenvalues ---    0.25000   0.26395   0.36192   0.36216   0.45658
     Eigenvalues ---    0.46028   0.47942   0.53351   0.56050   0.65971
     Eigenvalues ---    0.88929   0.89064
 RFO step:  Lambda=-3.38122005D-02 EMin= 2.30000000D-03
 Linear search not attempted -- first point.
 Iteration  1 RMS(Cart)=  0.07687589 RMS(Int)=  0.01103498
 Iteration  2 RMS(Cart)=  0.01223447 RMS(Int)=  0.00668270
 Iteration  3 RMS(Cart)=  0.00017736 RMS(Int)=  0.00668083
 Iteration  4 RMS(Cart)=  0.00000534 RMS(Int)=  0.00668083
 Iteration  5 RMS(Cart)=  0.00000018 RMS(Int)=  0.00668083
 Variable       Old X    -DE/DX   Delta X   Delta X   Delta X     New X
                                 (Linear)    (Quad)   (Total)
    R1        2.52564   0.04042   0.00000   0.07329   0.07326   2.59891
    R2        2.44425   0.06207   0.00000   0.09054   0.09046   2.53471
    R3        2.95788  -0.04188   0.00000  -0.14067  -0.14067   2.81722
    R4        2.55520   0.01962   0.00000   0.03315   0.03322   2.58842
    R5        1.90800   0.00035   0.00000   0.00070   0.00070   1.90870
    R6        2.59465   0.01316   0.00000   0.01512   0.01518   2.60983
    R7        2.03782  -0.00086   0.00000  -0.00217  -0.00217   2.03565
    R8        2.57568   0.00057   0.00000  -0.00315  -0.00318   2.57250
    R9        2.03745   0.00031   0.00000   0.00080   0.00080   2.03824
   R10        2.33430   0.00889   0.00000   0.00963   0.00963   2.34393
   R11        2.33367   0.00892   0.00000   0.00964   0.00964   2.34332
    A1        1.87237   0.01634   0.00000   0.08245   0.08234   1.95471
    A2        2.04582   0.00882   0.00000   0.01854   0.01854   2.06436
    A3        2.36401  -0.02519   0.00000  -0.10148  -0.10142   2.26259
    A4        1.94940  -0.02622   0.00000  -0.09039  -0.09033   1.85907
    A5        2.07855   0.01333   0.00000   0.04631   0.04628   2.12484
    A6        2.25523   0.01289   0.00000   0.04407   0.04404   2.29927
    A7        1.80383   0.01549   0.00000   0.03991   0.04005   1.84388
    A8        2.15030  -0.00888   0.00000  -0.02583  -0.02589   2.12441
    A9        2.32905  -0.00661   0.00000  -0.01409  -0.01416   2.31490
   A10        1.89381   0.02038   0.00000   0.05389   0.05394   1.94775
   A11        2.26645  -0.00892   0.00000  -0.02042  -0.02045   2.24600
   A12        2.12292  -0.01145   0.00000  -0.03347  -0.03349   2.08943
   A13        1.90535  -0.02598   0.00000  -0.08587  -0.08599   1.81936
   A14        1.92917   0.00646   0.00000   0.03713   0.01149   1.94066
   A15        1.96908   0.00657   0.00000   0.03751   0.01190   1.98099
   A16        2.37738  -0.01103   0.00000  -0.02435  -0.05127   2.32610
    D1        0.00000   0.00011   0.00000  -0.00011   0.00003   0.00003
    D2       -3.14046   0.00022   0.00000   0.00073   0.00091  -3.13955
    D3        3.10128  -0.00126   0.00000  -0.01281  -0.01327   3.08801
    D4       -0.03918  -0.00115   0.00000  -0.01196  -0.01240  -0.05158
    D5        0.00000  -0.00005   0.00000   0.00005  -0.00005  -0.00005
    D6       -3.09048   0.00015   0.00000   0.01039   0.01016  -3.08032
    D7        0.15042  -0.00785   0.00000  -0.20699  -0.20343  -0.05301
    D8       -3.10105   0.00577   0.00000   0.15472   0.15064  -2.95041
    D9       -3.04605  -0.00803   0.00000  -0.21721  -0.21312   3.02401
   D10       -0.01434   0.00559   0.00000   0.14450   0.14094   0.12660
   D11       -0.00000  -0.00012   0.00000   0.00012  -0.00000  -0.00000
   D12        3.14159  -0.00001   0.00000   0.00022   0.00019  -3.14140
   D13        3.14031  -0.00024   0.00000  -0.00085  -0.00101   3.13931
   D14       -0.00128  -0.00013   0.00000  -0.00074  -0.00082  -0.00210
   D15        0.00000   0.00008   0.00000  -0.00009  -0.00003  -0.00003
   D16        3.14159   0.00002   0.00000  -0.00066  -0.00060   3.14099
   D17        3.14159  -0.00005   0.00000  -0.00020  -0.00025   3.14134
   D18       -0.00000  -0.00011   0.00000  -0.00078  -0.00082  -0.00082
   D19       -0.00000  -0.00002   0.00000   0.00002   0.00005   0.00005
   D20        3.14159   0.00003   0.00000   0.00054   0.00056  -3.14103
         Item               Value     Threshold  Converged?
 Maximum Force            0.062066     0.000450     NO 
 RMS     Force            0.016001     0.000300     NO 
 Maximum Displacement     0.248383     0.001800     NO 
 RMS     Displacement     0.083352     0.001200     NO 
 Predicted change in Energy=-2.051150D-02
 GradGradGradGradGradGradGradGradGradGradGradGradGradGradGradGradGradGrad

                          Input orientation:                          
 ---------------------------------------------------------------------
 Center     Atomic      Atomic             Coordinates (Angstroms)
 Number     Number       Type             X           Y           Z
 ---------------------------------------------------------------------
      1          7           0        0.539565   -1.041669    0.061387
      2          7           0        1.133103    0.198727    0.038302
      3          6           0        0.116880    1.115865   -0.009803
      4          6           0       -1.050696    0.378247   -0.013450
      5          7           0       -0.798829   -0.958840    0.030411
      6          1           0        0.310770    2.175158   -0.036368
      7          1           0       -2.069991    0.729552   -0.044810
      8          1           0        2.137099    0.307816    0.054848
      9          6           0        1.418527   -2.245681    0.044467
     10          8           0        2.613485   -1.927161   -0.050939
     11          8           0        0.802989   -3.304614   -0.149044
 ---------------------------------------------------------------------
                    Distance matrix (angstroms):
                    1          2          3          4          5
     1  N    0.000000
     2  N    1.375282   0.000000
     3  C    2.199701   1.369732   0.000000
     4  C    2.133234   2.191776   1.381060   0.000000
     5  N    1.341312   2.252195   2.268158   1.361309   0.000000
     6  H    3.226434   2.141982   1.077218   2.254552   3.325298
     7  H    3.155674   3.247844   2.221006   1.078592   2.114753
     8  H    2.091236   1.010041   2.176788   3.189304   3.197606
     9  C    1.490807   2.461022   3.605166   3.603527   2.563751
    10  O    2.257844   2.592083   3.936336   4.329265   3.547978
    11  O    2.287924   3.523843   4.475575   4.125287   2.846169
                    6          7          8          9         10
     6  H    0.000000
     7  H    2.785295   0.000000
     8  H    2.613573   4.229349   0.000000
     9  C    4.558231   4.585819   2.652697   0.000000
    10  O    4.704437   5.384525   2.287632   1.240356   0.000000
    11  O    5.502988   4.953723   3.856304   1.240030   2.277038
                   11
    11  O    0.000000
 Stoichiometry    C3H3N3O2(1-,2)
 Framework group  C1[X(C3H3N3O2)]
 Deg. of freedom    27
 Full point group                 C1      NOp   1
 Largest Abelian subgroup         C1      NOp   1
 Largest concise Abelian subgroup C1      NOp   1
                         Standard orientation:                         
 ---------------------------------------------------------------------
 Center     Atomic      Atomic             Coordinates (Angstroms)
 Number     Number       Type             X           Y           Z
 ---------------------------------------------------------------------
      1          7           0        0.016481   -0.120804    0.074062
      2          7           0       -0.714972    1.042411    0.016531
      3          6           0       -2.031923    0.671486   -0.048423
      4          6           0       -2.031463   -0.709404   -0.026761
      5          7           0       -0.767385   -1.208940    0.048948
      6          1           0       -2.823521    1.400075   -0.102549
      7          1           0       -2.871977   -1.384486   -0.060842
      8          1           0       -0.271594    1.949901    0.024410
      9          6           0        1.503867   -0.020182    0.081979
     10          8           0        1.874122    1.158465   -0.028411
     11          8           0        2.074046   -1.109160   -0.081412
 ---------------------------------------------------------------------
 Rotational constants (GHZ):           5.2342433           1.7852879           1.3337941
 Standard basis: 6-31+G(d,p) (6D, 7F)
 There are   167 symmetry adapted cartesian basis functions of A   symmetry.
 There are   167 symmetry adapted basis functions of A   symmetry.
   167 basis functions,   277 primitive gaussians,   167 cartesian basis functions
    30 alpha electrons       29 beta electrons
       nuclear repulsion energy       359.5575384599 Hartrees.
 NAtoms=   11 NActive=   11 NUniq=   11 SFac= 1.00D+00 NAtFMM=   60 NAOKFM=F Big=F
 Integral buffers will be    131072 words long.
 Raffenetti 2 integral format.
 Two-electron integral symmetry is turned on.
 ------------------------------------------------------------------------------
 Polarizable Continuum Model (PCM)
 =================================
 Model                : PCM.
 Atomic radii         : SMD-Coulomb.
 Polarization charges : Total charges.
 Charge compensation  : None.
 Solution method      : On-the-fly selection.
 Cavity type          : VdW (van der Waals Surface) (Alpha=1.000).
 Cavity algorithm     : GePol (No added spheres)
                        Default sphere list used, NSphG=   11.
                        Lebedev-Laikov grids with approx.  5.0 points / Ang**2.
                        Smoothing algorithm: York/Karplus (Gamma=1.0000).
                        Polarization charges: spherical gaussians, with
                                              point-specific exponents (IZeta= 3).
                        Self-potential: point-specific (ISelfS= 7).
                        Self-field    : sphere-specific E.n sum rule (ISelfD= 2).
 1st derivatives      : Analytical E(r).r(x)/FMM algorithm (CHGder, D1EAlg=3).
                        Cavity 1st derivative terms included.
 Solvent              : Water, Eps=  78.355300 Eps(inf)=   1.777849
 ------------------------------------------------------------------------------
 Spheres list:
 ISph  on   Nord     Re0    Alpha      Xe            Ye            Ze
    1   N      1    1.8900  1.000      0.016481     -0.120804      0.074062
    2   N      2    1.8900  1.000     -0.714972      1.042411      0.016531
    3   C      3    1.8500  1.000     -2.031923      0.671486     -0.048423
    4   C      4    1.8500  1.000     -2.031463     -0.709404     -0.026761
    5   N      5    1.8900  1.000     -0.767385     -1.208940      0.048948
    6   H      6    1.2000  1.000     -2.823521      1.400075     -0.102549
    7   H      7    1.2000  1.000     -2.871977     -1.384486     -0.060842
    8   H      8    1.2000  1.000     -0.271594      1.949901      0.024410
    9   C      9    1.8500  1.000      1.503867     -0.020182      0.081979
   10   O     10    1.5200  1.000      1.874122      1.158465     -0.028411
   11   O     11    1.5200  1.000      2.074046     -1.109160     -0.081412
 ------------------------------------------------------------------------------
 ------------------------------------------------------------------------------
 Atomic radii for non-electrostatic terms: SMD-CDS.
 ------------------------------------------------------------------------------
 Nuclear repulsion after PCM non-electrostatic terms =      359.5648325631 Hartrees.
 One-electron integrals computed using PRISM.
 NBasis=   167 RedAO= T EigKep=  2.81D-05  NBF=   167
 NBsUse=   167 1.00D-06 EigRej= -1.00D+00 NBFU=   167
 Initial guess from the checkpoint file:  "RC.chk"
 B after Tr=     0.000000    0.000000   -0.000000
         Rot=    0.999999    0.000122   -0.000289   -0.001194 Ang=   0.14 deg.
 Initial guess <Sx>= 0.0000 <Sy>= 0.0000 <Sz>= 0.5000 <S**2>= 0.7610 S= 0.5055
 ExpMin= 4.38D-02 ExpMax= 5.48D+03 ExpMxC= 8.25D+02 IAcc=2 IRadAn=         4 AccDes= 0.00D+00
 Harris functional with IExCor= 1009 and IRadAn=       4 diagonalized for initial guess.
 HarFok:  IExCor= 1009 AccDes= 0.00D+00 IRadAn=         4 IDoV= 1 UseB2=F ITyADJ=14
 ICtDFT=  3500011 ScaDFX=  1.000000  1.000000  1.000000  1.000000
 FoFCou: FMM=F IPFlag=           0 FMFlag=      100000 FMFlg1=           0
         NFxFlg=           0 DoJE=T BraDBF=F KetDBF=T FulRan=T
         wScrn=  0.000000 ICntrl=       500 IOpCl=  0 I1Cent=   200000004 NGrid=           0
         NMat0=    1 NMatS0=      1 NMatT0=    0 NMatD0=    1 NMtDS0=    0 NMtDT0=    0
 Petite list used in FoFCou.
 Keep R1 and R2 ints in memory in canonical form, NReq=216648901.
 Requested convergence on RMS density matrix=1.00D-08 within 128 cycles.
 Requested convergence on MAX density matrix=1.00D-06.
 Requested convergence on             energy=1.00D-06.
 No special actions if energy rises.
 Inv3:  Mode=1 IEnd=     3072432.
 Iteration    1 A*A^-1 deviation from unit magnitude is 3.44D-15 for   1003.
 Iteration    1 A*A^-1 deviation from orthogonality  is 1.51D-15 for    931    104.
 Iteration    1 A^-1*A deviation from unit magnitude is 3.00D-15 for   1003.
 Iteration    1 A^-1*A deviation from orthogonality  is 7.60D-14 for    860    826.
 Error on total polarization charges =  0.05236
 SCF Done:  E(UM062X) =  -430.759184245     A.U. after   18 cycles
            NFock= 18  Conv=0.55D-08     -V/T= 2.0083
 <Sx>= 0.0000 <Sy>= 0.0000 <Sz>= 0.5000 <S**2>= 0.7625 S= 0.5062
 <L.S>= 0.000000000000E+00
 SMD-CDS (non-electrostatic) energy       (kcal/mol) =       4.58
 (included in total energy above)
 Annihilation of the first spin contaminant:
 S**2 before annihilation     0.7625,   after     0.7501
 D1PCM: PCM CHGder 1st derivatives, ID1Alg=3 FixD1E=F DoIter=F DoCFld=F I1PDM=0.
 Calling FoFJK, ICntrl=      2127 FMM=F ISym2X=0 I1Cent= 0 IOpClX= 1 NMat=1 NMatS=1 NMatT=0.
 ***** Axes restored to original set *****
 -------------------------------------------------------------------
 Center     Atomic                   Forces (Hartrees/Bohr)
 Number     Number              X              Y              Z
 -------------------------------------------------------------------
      1        7           0.042538866   -0.028541515    0.008571351
      2        7          -0.003289976    0.007136478    0.000796765
      3        6          -0.011654572   -0.000882281    0.000359334
      4        6           0.007336588    0.004395967    0.000348816
      5        7          -0.015288203    0.001482373   -0.000219244
      6        1          -0.000872478    0.000672156    0.000010639
      7        1          -0.000340282    0.001787215   -0.000121916
      8        1          -0.000450063   -0.003079980   -0.000312330
      9        6          -0.038887050    0.042315377   -0.035694541
     10        8           0.020400282   -0.006680173    0.013064571
     11        8           0.000506889   -0.018605615    0.013196554
 -------------------------------------------------------------------
 Cartesian Forces:  Max     0.042538866 RMS     0.016467861

 GradGradGradGradGradGradGradGradGradGradGradGradGradGradGradGradGradGrad
 Berny optimization.
 Using GEDIIS/GDIIS optimizer.
 FormGI is forming the generalized inverse of G from B-inverse, IUseBI=4.
 Internal  Forces:  Max     0.024263074 RMS     0.008744576
 Search for a local minimum.
 Step number   2 out of a maximum of   57
 All quantities printed in internal units (Hartrees-Bohrs-Radians)
 Mixed Optimization -- RFO/linear search
 Update second derivatives using D2CorX and points    1    2
 DE= -1.40D-02 DEPred=-2.05D-02 R= 6.80D-01
 TightC=F SS=  1.41D+00  RLast= 4.60D-01 DXNew= 5.0454D-01 1.3798D+00
 Trust test= 6.80D-01 RLast= 4.60D-01 DXMaxT set to 5.05D-01
 ITU=  1  0
 Use linear search instead of GDIIS.
     Eigenvalues ---    0.00231   0.01244   0.01473   0.02236   0.02302
     Eigenvalues ---    0.02344   0.02400   0.02439   0.15316   0.16000
     Eigenvalues ---    0.16009   0.16615   0.22280   0.24913   0.25000
     Eigenvalues ---    0.25634   0.29737   0.36197   0.36219   0.44363
     Eigenvalues ---    0.46030   0.48675   0.52414   0.54652   0.61947
     Eigenvalues ---    0.89010   0.89520
 RFO step:  Lambda=-3.94711562D-02 EMin= 2.30725711D-03
 Quartic linear search produced a step of -0.15378.
 Maximum step size (   0.505) exceeded in Quadratic search.
    -- Step size scaled by   0.946
 Iteration  1 RMS(Cart)=  0.10131446 RMS(Int)=  0.04287546
 Iteration  2 RMS(Cart)=  0.04796927 RMS(Int)=  0.01960527
 Iteration  3 RMS(Cart)=  0.00383767 RMS(Int)=  0.01915774
 Iteration  4 RMS(Cart)=  0.00026799 RMS(Int)=  0.01915648
 Iteration  5 RMS(Cart)=  0.00002406 RMS(Int)=  0.01915647
 Iteration  6 RMS(Cart)=  0.00000220 RMS(Int)=  0.01915647
 Iteration  7 RMS(Cart)=  0.00000020 RMS(Int)=  0.01915647
 Variable       Old X    -DE/DX   Delta X   Delta X   Delta X     New X
                                 (Linear)    (Quad)   (Total)
    R1        2.59891   0.00364  -0.01127   0.12206   0.11061   2.70951
    R2        2.53471   0.01601  -0.01391   0.16582   0.15170   2.68641
    R3        2.81722  -0.02426   0.02163  -0.28067  -0.25904   2.55818
    R4        2.58842   0.00640  -0.00511   0.06159   0.05659   2.64501
    R5        1.90870  -0.00078  -0.00011  -0.00031  -0.00042   1.90828
    R6        2.60983  -0.00873  -0.00233   0.00836   0.00626   2.61609
    R7        2.03565   0.00051   0.00033  -0.00216  -0.00182   2.03382
    R8        2.57250   0.00196   0.00049  -0.00161  -0.00105   2.57145
    R9        2.03824   0.00090  -0.00012   0.00326   0.00313   2.04138
   R10        2.34393   0.01690  -0.00148   0.03212   0.03064   2.37457
   R11        2.34332   0.01361  -0.00148   0.02892   0.02743   2.37075
    A1        1.95471  -0.00880  -0.01266   0.09584   0.08287   2.03758
    A2        2.06436   0.01334  -0.00285   0.06843   0.06576   2.13012
    A3        2.26259  -0.00449   0.01560  -0.16376  -0.14808   2.11451
    A4        1.85907   0.00290   0.01389  -0.12193  -0.10809   1.75098
    A5        2.12484  -0.00435  -0.00712   0.04933   0.04224   2.16708
    A6        2.29927   0.00145  -0.00677   0.07260   0.06585   2.36512
    A7        1.84388   0.00193  -0.00616   0.06026   0.05442   1.89830
    A8        2.12441  -0.00002   0.00398  -0.03385  -0.03003   2.09438
    A9        2.31490  -0.00191   0.00218  -0.02641  -0.02439   2.29051
   A10        1.94775   0.00207  -0.00829   0.08329   0.07525   2.02299
   A11        2.24600  -0.00270   0.00314  -0.04027  -0.03725   2.20875
   A12        2.08943   0.00062   0.00515  -0.04302  -0.03800   2.05144
   A13        1.81936   0.00189   0.01322  -0.11746  -0.10445   1.71492
   A14        1.94066   0.01446  -0.00177   0.12302   0.04962   1.99028
   A15        1.98099   0.01122  -0.00183   0.11338   0.04012   2.02111
   A16        2.32610  -0.01433   0.00789  -0.05635  -0.12691   2.19919
    D1        0.00003   0.00004  -0.00001   0.00018  -0.00011  -0.00007
    D2       -3.13955  -0.00005  -0.00014  -0.00055  -0.00102  -3.14057
    D3        3.08801   0.00077   0.00204   0.00353   0.00670   3.09471
    D4       -0.05158   0.00067   0.00191   0.00280   0.00579  -0.04579
    D5       -0.00005   0.00007   0.00001   0.00150   0.00157   0.00151
    D6       -3.08032  -0.00143  -0.00156  -0.01292  -0.01339  -3.09371
    D7       -0.05301   0.01712   0.03128   0.27900   0.29622   0.24321
    D8       -2.95041  -0.01851  -0.02317  -0.31495  -0.32297   3.00980
    D9        3.02401   0.01800   0.03277   0.29431   0.31194  -2.94723
   D10        0.12660  -0.01763  -0.02167  -0.29963  -0.30725  -0.18064
   D11       -0.00000  -0.00014   0.00000  -0.00177  -0.00144  -0.00144
   D12       -3.14140  -0.00005  -0.00003  -0.00052  -0.00041   3.14137
   D13        3.13931  -0.00004   0.00015  -0.00102  -0.00045   3.13885
   D14       -0.00210   0.00005   0.00013   0.00023   0.00058  -0.00151
   D15       -0.00003   0.00019   0.00001   0.00283   0.00278   0.00275
   D16        3.14099   0.00008   0.00009   0.00068   0.00073  -3.14146
   D17        3.14134   0.00010   0.00004   0.00139   0.00159  -3.14026
   D18       -0.00082  -0.00001   0.00013  -0.00075  -0.00046  -0.00128
   D19        0.00005  -0.00016  -0.00001  -0.00268  -0.00256  -0.00250
   D20       -3.14103  -0.00007  -0.00009  -0.00074  -0.00069   3.14146
         Item               Value     Threshold  Converged?
 Maximum Force            0.024263     0.000450     NO 
 RMS     Force            0.008745     0.000300     NO 
 Maximum Displacement     0.329909     0.001800     NO 
 RMS     Displacement     0.131091     0.001200     NO 
 Predicted change in Energy=-3.264046D-02
 GradGradGradGradGradGradGradGradGradGradGradGradGradGradGradGradGradGrad

                          Input orientation:                          
 ---------------------------------------------------------------------
 Center     Atomic      Atomic             Coordinates (Angstroms)
 Number     Number       Type             X           Y           Z
 ---------------------------------------------------------------------
      1          7           0        0.616318   -1.019177   -0.043778
      2          7           0        1.243570    0.269604   -0.006150
      3          6           0        0.115044    1.097252    0.016923
      4          6           0       -1.019397    0.304230   -0.008656
      5          7           0       -0.805128   -1.039048   -0.045272
      6          1           0        0.232537    2.166620    0.048061
      7          1           0       -2.043950    0.646516   -0.000101
      8          1           0        2.243009    0.413959   -0.002191
      9          6           0        1.332794   -2.164513   -0.130114
     10          8           0        2.559042   -2.019901    0.103064
     11          8           0        0.679061   -3.228144   -0.006786
 ---------------------------------------------------------------------
                    Distance matrix (angstroms):
                    1          2          3          4          5
     1  N    0.000000
     2  N    1.433812   0.000000
     3  C    2.175829   1.399680   0.000000
     4  C    2.104329   2.263232   1.384375   0.000000
     5  N    1.421586   2.431309   2.326878   1.360752   0.000000
     6  H    3.210144   2.150301   1.076253   2.244783   3.370721
     7  H    3.139023   3.309061   2.205608   1.080251   2.092330
     8  H    2.168348   1.009819   2.235059   3.264257   3.377014
     9  C    1.353731   2.438904   3.484774   3.412073   2.417557
    10  O    2.190248   2.642769   3.961968   4.268406   3.507380
    11  O    2.210167   3.543009   4.362079   3.919493   2.645078
                    6          7          8          9         10
     6  H    0.000000
     7  H    2.737777   0.000000
     8  H    2.667648   4.293263   0.000000
     9  C    4.472250   4.395587   2.737403   0.000000
    10  O    4.789844   5.320522   2.456549   1.256570   0.000000
    11  O    5.413489   4.735802   3.963694   1.254547   2.237464
                   11
    11  O    0.000000
 Stoichiometry    C3H3N3O2(1-,2)
 Framework group  C1[X(C3H3N3O2)]
 Deg. of freedom    27
 Full point group                 C1      NOp   1
 Largest Abelian subgroup         C1      NOp   1
 Largest concise Abelian subgroup C1      NOp   1
                         Standard orientation:                         
 ---------------------------------------------------------------------
 Center     Atomic      Atomic             Coordinates (Angstroms)
 Number     Number       Type             X           Y           Z
 ---------------------------------------------------------------------
      1          7           0        0.043251   -0.037834   -0.032825
      2          7           0       -0.739607    1.163378   -0.026534
      3          6           0       -2.029618    0.621842    0.014854
      4          6           0       -1.932701   -0.759080    0.027345
      5          7           0       -0.670473   -1.266785    0.001601
      6          1           0       -2.886362    1.273055    0.030105
      7          1           0       -2.752989   -1.461335    0.057477
      8          1           0       -0.349604    2.094565   -0.049408
      9          6           0        1.393757   -0.014609   -0.123268
     10          8           0        1.900724    1.117526    0.077291
     11          8           0        1.970292   -1.118341    0.029277
 ---------------------------------------------------------------------
 Rotational constants (GHZ):           4.9795985           1.8884873           1.3717044
 Standard basis: 6-31+G(d,p) (6D, 7F)
 There are   167 symmetry adapted cartesian basis functions of A   symmetry.
 There are   167 symmetry adapted basis functions of A   symmetry.
   167 basis functions,   277 primitive gaussians,   167 cartesian basis functions
    30 alpha electrons       29 beta electrons
       nuclear repulsion energy       360.2246584787 Hartrees.
 NAtoms=   11 NActive=   11 NUniq=   11 SFac= 1.00D+00 NAtFMM=   60 NAOKFM=F Big=F
 Integral buffers will be    131072 words long.
 Raffenetti 2 integral format.
 Two-electron integral symmetry is turned on.
 ------------------------------------------------------------------------------
 Polarizable Continuum Model (PCM)
 =================================
 Model                : PCM.
 Atomic radii         : SMD-Coulomb.
 Polarization charges : Total charges.
 Charge compensation  : None.
 Solution method      : On-the-fly selection.
 Cavity type          : VdW (van der Waals Surface) (Alpha=1.000).
 Cavity algorithm     : GePol (No added spheres)
                        Default sphere list used, NSphG=   11.
                        Lebedev-Laikov grids with approx.  5.0 points / Ang**2.
                        Smoothing algorithm: York/Karplus (Gamma=1.0000).
                        Polarization charges: spherical gaussians, with
                                              point-specific exponents (IZeta= 3).
                        Self-potential: point-specific (ISelfS= 7).
                        Self-field    : sphere-specific E.n sum rule (ISelfD= 2).
 1st derivatives      : Analytical E(r).r(x)/FMM algorithm (CHGder, D1EAlg=3).
                        Cavity 1st derivative terms included.
 Solvent              : Water, Eps=  78.355300 Eps(inf)=   1.777849
 ------------------------------------------------------------------------------
 Spheres list:
 ISph  on   Nord     Re0    Alpha      Xe            Ye            Ze
    1   N      1    1.8900  1.000      0.043251     -0.037834     -0.032825
    2   N      2    1.8900  1.000     -0.739607      1.163378     -0.026534
    3   C      3    1.8500  1.000     -2.029618      0.621842      0.014854
    4   C      4    1.8500  1.000     -1.932701     -0.759080      0.027345
    5   N      5    1.8900  1.000     -0.670473     -1.266785      0.001601
    6   H      6    1.2000  1.000     -2.886362      1.273055      0.030105
    7   H      7    1.2000  1.000     -2.752989     -1.461335      0.057477
    8   H      8    1.2000  1.000     -0.349604      2.094565     -0.049408
    9   C      9    1.8500  1.000      1.393757     -0.014609     -0.123268
   10   O     10    1.5200  1.000      1.900724      1.117526      0.077291
   11   O     11    1.5200  1.000      1.970292     -1.118341      0.029277
 ------------------------------------------------------------------------------
 ------------------------------------------------------------------------------
 Atomic radii for non-electrostatic terms: SMD-CDS.
 ------------------------------------------------------------------------------
 Nuclear repulsion after PCM non-electrostatic terms =      360.2316348539 Hartrees.
 One-electron integrals computed using PRISM.
 NBasis=   167 RedAO= T EigKep=  2.67D-05  NBF=   167
 NBsUse=   167 1.00D-06 EigRej= -1.00D+00 NBFU=   167
 Initial guess from the checkpoint file:  "RC.chk"
 B after Tr=    -0.000000   -0.000000    0.000000
         Rot=    0.999994   -0.000025   -0.000452   -0.003543 Ang=  -0.41 deg.
 Initial guess <Sx>= 0.0000 <Sy>= 0.0000 <Sz>= 0.5000 <S**2>= 0.7624 S= 0.5062
 ExpMin= 4.38D-02 ExpMax= 5.48D+03 ExpMxC= 8.25D+02 IAcc=2 IRadAn=         4 AccDes= 0.00D+00
 Harris functional with IExCor= 1009 and IRadAn=       4 diagonalized for initial guess.
 HarFok:  IExCor= 1009 AccDes= 0.00D+00 IRadAn=         4 IDoV= 1 UseB2=F ITyADJ=14
 ICtDFT=  3500011 ScaDFX=  1.000000  1.000000  1.000000  1.000000
 FoFCou: FMM=F IPFlag=           0 FMFlag=      100000 FMFlg1=           0
         NFxFlg=           0 DoJE=T BraDBF=F KetDBF=T FulRan=T
         wScrn=  0.000000 ICntrl=       500 IOpCl=  0 I1Cent=   200000004 NGrid=           0
         NMat0=    1 NMatS0=      1 NMatT0=    0 NMatD0=    1 NMtDS0=    0 NMtDT0=    0
 Petite list used in FoFCou.
 Keep R1 and R2 ints in memory in canonical form, NReq=216648901.
 Requested convergence on RMS density matrix=1.00D-08 within 128 cycles.
 Requested convergence on MAX density matrix=1.00D-06.
 Requested convergence on             energy=1.00D-06.
 No special actions if energy rises.
 Inv3:  Mode=1 IEnd=     2976048.
 Iteration    1 A*A^-1 deviation from unit magnitude is 5.33D-15 for    239.
 Iteration    1 A*A^-1 deviation from orthogonality  is 2.13D-15 for    890    239.
 Iteration    1 A^-1*A deviation from unit magnitude is 4.66D-15 for    239.
 Iteration    1 A^-1*A deviation from orthogonality  is 1.23D-15 for    978    453.
 Error on total polarization charges =  0.05239
 SCF Done:  E(UM062X) =  -430.742557345     A.U. after   17 cycles
            NFock= 17  Conv=0.53D-08     -V/T= 2.0085
 <Sx>= 0.0000 <Sy>= 0.0000 <Sz>= 0.5000 <S**2>= 0.7648 S= 0.5074
 <L.S>= 0.000000000000E+00
 SMD-CDS (non-electrostatic) energy       (kcal/mol) =       4.38
 (included in total energy above)
 Annihilation of the first spin contaminant:
 S**2 before annihilation     0.7648,   after     0.7501
 D1PCM: PCM CHGder 1st derivatives, ID1Alg=3 FixD1E=F DoIter=F DoCFld=F I1PDM=0.
 Calling FoFJK, ICntrl=      2127 FMM=F ISym2X=0 I1Cent= 0 IOpClX= 1 NMat=1 NMatS=1 NMatT=0.
 ***** Axes restored to original set *****
 -------------------------------------------------------------------
 Center     Atomic                   Forces (Hartrees/Bohr)
 Number     Number              X              Y              Z
 -------------------------------------------------------------------
      1        7          -0.013227684    0.017588904   -0.013890063
      2        7          -0.077564288   -0.022688818   -0.001969023
      3        6           0.013046549   -0.005736711   -0.000849489
      4        6          -0.006871154    0.007344934    0.000511726
      5        7           0.049831947    0.041642301   -0.001625512
      6        1          -0.002339887    0.002181661    0.000250033
      7        1           0.000298100    0.004635155    0.000528537
      8        1           0.001234951   -0.004659783    0.000213660
      9        6           0.011256561   -0.019396673    0.060478610
     10        8           0.029493252   -0.000464150   -0.021043148
     11        8          -0.005158345   -0.020446821   -0.022605331
 -------------------------------------------------------------------
 Cartesian Forces:  Max     0.077564288 RMS     0.023498528

 GradGradGradGradGradGradGradGradGradGradGradGradGradGradGradGradGradGrad
 Berny optimization.
 Using GEDIIS/GDIIS optimizer.
 FormGI is forming the generalized inverse of G from B-inverse, IUseBI=4.
 Internal  Forces:  Max     0.051875720 RMS     0.018407041
 Search for a local minimum.
 Step number   3 out of a maximum of   57
 All quantities printed in internal units (Hartrees-Bohrs-Radians)
 Mixed Optimization -- RFO/linear search
 Update second derivatives using D2CorX and points    1    3    2
 DE=  1.66D-02 DEPred=-3.26D-02 R=-5.09D-01
 Trust test=-5.09D-01 RLast= 7.66D-01 DXMaxT set to 2.52D-01
 ITU= -1  1  0
 Use linear search instead of GDIIS.
     Eigenvalues ---    0.00231   0.01512   0.02235   0.02303   0.02345
     Eigenvalues ---    0.02400   0.02430   0.09776   0.14853   0.16000
     Eigenvalues ---    0.16002   0.16750   0.22231   0.24558   0.24995
     Eigenvalues ---    0.25140   0.30109   0.36195   0.36214   0.43600
     Eigenvalues ---    0.46029   0.49124   0.52544   0.54831   0.61546
     Eigenvalues ---    0.86265   0.89012
 RFO step:  Lambda=-9.96061082D-03 EMin= 2.30807898D-03
 Quartic linear search produced a step of -0.64789.
 Iteration  1 RMS(Cart)=  0.09816097 RMS(Int)=  0.01420280
 Iteration  2 RMS(Cart)=  0.01622592 RMS(Int)=  0.00295333
 Iteration  3 RMS(Cart)=  0.00038764 RMS(Int)=  0.00292466
 Iteration  4 RMS(Cart)=  0.00000057 RMS(Int)=  0.00292466
 Variable       Old X    -DE/DX   Delta X   Delta X   Delta X     New X
                                 (Linear)    (Quad)   (Total)
    R1        2.70951  -0.03458  -0.07166   0.00195  -0.06908   2.64043
    R2        2.68641  -0.02599  -0.09828   0.04020  -0.05774   2.62866
    R3        2.55818   0.05188   0.16783  -0.07049   0.09734   2.65552
    R4        2.64501  -0.01568  -0.03667   0.01090  -0.02572   2.61929
    R5        1.90828   0.00055   0.00027  -0.00188  -0.00160   1.90668
    R6        2.61609  -0.02362  -0.00406  -0.03845  -0.04311   2.57298
    R7        2.03382   0.00191   0.00118   0.00346   0.00464   2.03846
    R8        2.57145   0.00002   0.00068   0.00629   0.00653   2.57798
    R9        2.04138   0.00119  -0.00203   0.00467   0.00264   2.04402
   R10        2.37457   0.02485  -0.01985   0.03945   0.01959   2.39417
   R11        2.37075   0.01777  -0.01777   0.03128   0.01351   2.38426
    A1        2.03758  -0.03643  -0.05369  -0.08849  -0.14132   1.89627
    A2        2.13012   0.00401  -0.04261   0.07803   0.03498   2.16510
    A3        2.11451   0.03235   0.09594   0.01098   0.10654   2.22105
    A4        1.75098   0.03592   0.07003   0.05928   0.12992   1.88090
    A5        2.16708  -0.02249  -0.02737  -0.06155  -0.08923   2.07785
    A6        2.36512  -0.01343  -0.04267   0.00227  -0.04070   2.32442
    A7        1.89830  -0.01234  -0.03526  -0.01215  -0.04792   1.85038
    A8        2.09438   0.00882   0.01945   0.01898   0.03869   2.13307
    A9        2.29051   0.00352   0.01580  -0.00683   0.00923   2.29974
   A10        2.02299  -0.01842  -0.04875  -0.01162  -0.06127   1.96173
   A11        2.20875   0.00466   0.02414  -0.01653   0.00805   2.21681
   A12        2.05144   0.01376   0.02462   0.02815   0.05321   2.10465
   A13        1.71492   0.03127   0.06767   0.05298   0.12052   1.83544
   A14        1.99028   0.01304  -0.03215   0.07211   0.05140   2.04168
   A15        2.02111   0.01617  -0.02599   0.05905   0.04450   2.06561
   A16        2.19919  -0.00624   0.08223  -0.11746  -0.02379   2.17540
    D1       -0.00007   0.00056   0.00007   0.01053   0.01069   0.01062
    D2       -3.14057   0.00023   0.00066   0.00342   0.00415  -3.13642
    D3        3.09471  -0.00016  -0.00434   0.02325   0.01801   3.11272
    D4       -0.04579  -0.00049  -0.00375   0.01615   0.01147  -0.03432
    D5        0.00151  -0.00073  -0.00102  -0.00970  -0.01065  -0.00913
    D6       -3.09371   0.00078   0.00868  -0.02426  -0.01591  -3.10962
    D7        0.24321  -0.02717  -0.19192  -0.05809  -0.25081  -0.00760
    D8        3.00980   0.02759   0.20925  -0.05232   0.15648  -3.11690
    D9       -2.94723  -0.02977  -0.20211  -0.04731  -0.24897   3.08698
   D10       -0.18064   0.02498   0.19906  -0.04154   0.15832  -0.02232
   D11       -0.00144  -0.00013   0.00093  -0.00651  -0.00622  -0.00766
   D12        3.14137  -0.00039   0.00026  -0.00636  -0.00644   3.13494
   D13        3.13885   0.00026   0.00029   0.00182   0.00160   3.14046
   D14       -0.00151  -0.00000  -0.00038   0.00197   0.00138  -0.00013
   D15        0.00275  -0.00041  -0.00180   0.00108  -0.00074   0.00201
   D16       -3.14146  -0.00026  -0.00047   0.00098   0.00076  -3.14070
   D17       -3.14026  -0.00010  -0.00103   0.00093  -0.00047  -3.14073
   D18       -0.00128   0.00004   0.00030   0.00083   0.00103  -0.00025
   D19       -0.00250   0.00062   0.00166   0.00484   0.00694   0.00444
   D20        3.14146   0.00049   0.00045   0.00500   0.00561  -3.13612
         Item               Value     Threshold  Converged?
 Maximum Force            0.051876     0.000450     NO 
 RMS     Force            0.018407     0.000300     NO 
 Maximum Displacement     0.260581     0.001800     NO 
 RMS     Displacement     0.100882     0.001200     NO 
 Predicted change in Energy=-1.287232D-02
 GradGradGradGradGradGradGradGradGradGradGradGradGradGradGradGradGradGrad

                          Input orientation:                          
 ---------------------------------------------------------------------
 Center     Atomic      Atomic             Coordinates (Angstroms)
 Number     Number       Type             X           Y           Z
 ---------------------------------------------------------------------
      1          7           0        0.610354   -1.048881    0.011462
      2          7           0        1.144050    0.242391    0.021932
      3          6           0        0.085889    1.137539    0.008144
      4          6           0       -1.045842    0.381073   -0.020089
      5          7           0       -0.777176   -0.956415   -0.022793
      6          1           0        0.236079    2.205690    0.018587
      7          1           0       -2.066956    0.737393   -0.038157
      8          1           0        2.146153    0.358222    0.041737
      9          6           0        1.385734   -2.220582   -0.013092
     10          8           0        2.644279   -2.076617   -0.034830
     11          8           0        0.790337   -3.332412   -0.047902
 ---------------------------------------------------------------------
                    Distance matrix (angstroms):
                    1          2          3          4          5
     1  N    0.000000
     2  N    1.397257   0.000000
     3  C    2.248446   1.386069   0.000000
     4  C    2.188321   2.194682   1.361563   0.000000
     5  N    1.391029   2.265005   2.265057   1.364208   0.000000
     6  H    3.276029   2.163092   1.078709   2.230257   3.320739
     7  H    3.218886   3.249493   2.190206   1.081649   2.129027
     8  H    2.083156   1.008970   2.202988   3.192676   3.205977
     9  C    1.405240   2.475051   3.600976   3.561070   2.505273
    10  O    2.279306   2.762554   4.108285   4.433672   3.600187
    11  O    2.291382   3.592939   4.525468   4.142741   2.846593
                    6          7          8          9         10
     6  H    0.000000
     7  H    2.731865   0.000000
     8  H    2.657454   4.230892   0.000000
     9  C    4.573248   4.546572   2.689140   0.000000
    10  O    4.913292   5.487659   2.486449   1.266939   0.000000
    11  O    5.566166   4.972679   3.932818   1.261695   2.239261
                   11
    11  O    0.000000
 Stoichiometry    C3H3N3O2(1-,2)
 Framework group  C1[X(C3H3N3O2)]
 Deg. of freedom    27
 Full point group                 C1      NOp   1
 Largest Abelian subgroup         C1      NOp   1
 Largest concise Abelian subgroup C1      NOp   1
                         Standard orientation:                         
 ---------------------------------------------------------------------
 Center     Atomic      Atomic             Coordinates (Angstroms)
 Number     Number       Type             X           Y           Z
 ---------------------------------------------------------------------
      1          7           0        0.046789   -0.064978    0.025132
      2          7           0       -0.770099    1.068538    0.012440
      3          6           0       -2.088091    0.639883   -0.005939
      4          6           0       -2.040572   -0.720826   -0.014024
      5          7           0       -0.762036   -1.196422    0.000669
[...]
    A3        2.19022  -0.00000   0.00000  -0.00002  -0.00002   2.19020
    A4        1.82393  -0.00000   0.00000  -0.00001  -0.00001   1.82392
    A5        1.98662   0.00000   0.00000  -0.00000  -0.00000   1.98662
    A6        2.11626   0.00000   0.00000   0.00000   0.00000   2.11626
    A7        1.86450   0.00000   0.00000   0.00000   0.00000   1.86450
    A8        2.11456  -0.00000   0.00000   0.00000   0.00000   2.11456
    A9        2.30217  -0.00000   0.00000  -0.00000  -0.00000   2.30217
   A10        1.95690   0.00000   0.00000  -0.00000  -0.00000   1.95690
   A11        2.22988  -0.00000   0.00000  -0.00000  -0.00000   2.22988
   A12        2.09634   0.00000   0.00000   0.00000   0.00000   2.09634
   A13        1.81684   0.00000   0.00000   0.00000   0.00000   1.81685
   A14        2.00323   0.00001   0.00000   0.00002   0.00002   2.00325
   A15        2.03224  -0.00000   0.00000  -0.00000  -0.00000   2.03224
   A16        2.24714  -0.00001   0.00000  -0.00002  -0.00002   2.24713
    D1        0.16525   0.00000   0.00000   0.00001   0.00001   0.16526
    D2        2.51150   0.00000   0.00000   0.00000   0.00000   2.51150
    D3        3.03457  -0.00000   0.00000  -0.00008  -0.00008   3.03449
    D4       -0.90237  -0.00000   0.00000  -0.00008  -0.00008  -0.90245
    D5       -0.12650   0.00000   0.00000   0.00000   0.00000  -0.12649
    D6       -2.98038  -0.00000   0.00000   0.00009   0.00009  -2.98029
    D7        0.18835  -0.00000   0.00000   0.00008   0.00008   0.18843
    D8       -2.98624   0.00000   0.00000   0.00011   0.00011  -2.98614
    D9        3.01787  -0.00000   0.00000  -0.00001  -0.00001   3.01786
   D10       -0.15672   0.00000   0.00000   0.00001   0.00001  -0.15671
   D11       -0.13375  -0.00000   0.00000  -0.00001  -0.00001  -0.13376
   D12        3.06742  -0.00000   0.00000  -0.00004  -0.00004   3.06738
   D13       -2.40563  -0.00000   0.00000  -0.00001  -0.00001  -2.40564
   D14        0.79553  -0.00000   0.00000  -0.00003  -0.00003   0.79550
   D15        0.06392   0.00000   0.00000   0.00002   0.00002   0.06394
   D16       -3.06453   0.00000   0.00000   0.00001   0.00001  -3.06451
   D17        3.13701   0.00000   0.00000   0.00005   0.00005   3.13706
   D18        0.00856   0.00000   0.00000   0.00005   0.00005   0.00860
   D19        0.03680  -0.00000   0.00000  -0.00001  -0.00001   0.03679
   D20       -3.11680  -0.00000   0.00000  -0.00001  -0.00001  -3.11681
         Item               Value     Threshold  Converged?
 Maximum Force            0.000009     0.000450     YES
 RMS     Force            0.000002     0.000300     YES
 Maximum Displacement     0.000119     0.001800     YES
 RMS     Displacement     0.000035     0.001200     YES
 Predicted change in Energy=-5.546804D-10
 Optimization completed.
    -- Stationary point found.
                           ----------------------------
                           !   Optimized Parameters   !
                           ! (Angstroms and Degrees)  !
 --------------------------                            --------------------------
 ! Name  Definition              Value          Derivative Info.                !
 --------------------------------------------------------------------------------
 ! R1    R(1,2)                  1.3967         -DE/DX =    0.0                 !
 ! R2    R(1,5)                  1.365          -DE/DX =    0.0                 !
 ! R3    R(1,9)                  1.4181         -DE/DX =    0.0                 !
 ! R4    R(2,3)                  1.3911         -DE/DX =    0.0                 !
 ! R5    R(2,8)                  1.0187         -DE/DX =    0.0                 !
 ! R6    R(3,4)                  1.3688         -DE/DX =    0.0                 !
 ! R7    R(3,6)                  1.0783         -DE/DX =    0.0                 !
 ! R8    R(4,5)                  1.3552         -DE/DX =    0.0                 !
 ! R9    R(4,7)                  1.0804         -DE/DX =    0.0                 !
 ! R10   R(9,10)                 1.2589         -DE/DX =    0.0                 !
 ! R11   R(9,11)                 1.2544         -DE/DX =    0.0                 !
 ! A1    A(2,1,5)              111.63           -DE/DX =    0.0                 !
 ! A2    A(2,1,9)              120.7814         -DE/DX =    0.0                 !
 ! A3    A(5,1,9)              125.4904         -DE/DX =    0.0                 !
 ! A4    A(1,2,3)              104.5036         -DE/DX =    0.0                 !
 ! A5    A(1,2,8)              113.8249         -DE/DX =    0.0                 !
 ! A6    A(3,2,8)              121.2526         -DE/DX =    0.0                 !
 ! A7    A(2,3,4)              106.8278         -DE/DX =    0.0                 !
 ! A8    A(2,3,6)              121.1556         -DE/DX =    0.0                 !
 ! A9    A(4,3,6)              131.9047         -DE/DX =    0.0                 !
 ! A10   A(3,4,5)              112.1221         -DE/DX =    0.0                 !
 ! A11   A(3,4,7)              127.7625         -DE/DX =    0.0                 !
 ! A12   A(5,4,7)              120.1112         -DE/DX =    0.0                 !
 ! A13   A(1,5,4)              104.0975         -DE/DX =    0.0                 !
 ! A14   A(1,9,10)             114.7768         -DE/DX =    0.0                 !
 ! A15   A(1,9,11)             116.4389         -DE/DX =    0.0                 !
 ! A16   A(10,9,11)            128.7518         -DE/DX =    0.0                 !
 ! D1    D(5,1,2,3)              9.4683         -DE/DX =    0.0                 !
 ! D2    D(5,1,2,8)            143.8983         -DE/DX =    0.0                 !
 ! D3    D(9,1,2,3)            173.8679         -DE/DX =    0.0                 !
 ! D4    D(9,1,2,8)            -51.7021         -DE/DX =    0.0                 !
 ! D5    D(2,1,5,4)             -7.2477         -DE/DX =    0.0                 !
 ! D6    D(9,1,5,4)           -170.763          -DE/DX =    0.0                 !
 ! D7    D(2,1,9,10)            10.7917         -DE/DX =    0.0                 !
 ! D8    D(2,1,9,11)          -171.0991         -DE/DX =    0.0                 !
 ! D9    D(5,1,9,10)           172.9113         -DE/DX =    0.0                 !
 ! D10   D(5,1,9,11)            -8.9795         -DE/DX =    0.0                 !
 ! D11   D(1,2,3,4)             -7.6631         -DE/DX =    0.0                 !
 ! D12   D(1,2,3,6)            175.7502         -DE/DX =    0.0                 !
 ! D13   D(8,2,3,4)           -137.8327         -DE/DX =    0.0                 !
 ! D14   D(8,2,3,6)             45.5806         -DE/DX =    0.0                 !
 ! D15   D(2,3,4,5)              3.6626         -DE/DX =    0.0                 !
 ! D16   D(2,3,4,7)           -175.5844         -DE/DX =    0.0                 !
 ! D17   D(6,3,4,5)            179.7372         -DE/DX =    0.0                 !
 ! D18   D(6,3,4,7)              0.4903         -DE/DX =    0.0                 !
 ! D19   D(3,4,5,1)              2.1087         -DE/DX =    0.0                 !
 ! D20   D(7,4,5,1)           -178.5795         -DE/DX =    0.0                 !
 --------------------------------------------------------------------------------
 GradGradGradGradGradGradGradGradGradGradGradGradGradGradGradGradGradGrad


 ----------------------------------------------------------------------

 Electric dipole moment (input orientation):
 (Debye = 10**-18 statcoulomb cm , SI units = C m)
                  (au)            (Debye)         (10**-30 SI)
   Tot        0.503567D+01      0.127994D+02      0.426942D+02
   x         -0.109773D+01     -0.279014D+01     -0.930690D+01
   y          0.489132D+01      0.124325D+02      0.414703D+02
   z          0.477424D+00      0.121349D+01      0.404777D+01

 Dipole polarizability, Alpha (input orientation).
 (esu units = cm**3 , SI units = C**2 m**2 J**-1)
 Alpha(0;0):
               (au)            (10**-24 esu)      (10**-40 SI)
   iso        0.987101D+02      0.146273D+02      0.162751D+02
   aniso      0.637352D+02      0.944458D+01      0.105085D+02
   xx         0.113333D+03      0.167942D+02      0.186860D+02
   yx        -0.505442D+01     -0.748988D+00     -0.833362D+00
   yy         0.125444D+03      0.185889D+02      0.206830D+02
   zx        -0.297967D+01     -0.441541D+00     -0.491280D+00
   zy        -0.421589D+00     -0.624730D-01     -0.695106D-01
   zz         0.573534D+02      0.849889D+01      0.945629D+01

 ----------------------------------------------------------------------

 Dipole orientation:
     7          0.75139720         -0.16655629         -2.13173356
     7          2.16848340          0.74170470         -0.09867512
     6          0.59475779          0.44404627          1.98594710
     6         -1.71701930         -0.28233184          1.08130826
     7         -1.69671501         -0.61956181         -1.45732739
     1          1.24542504          0.87535841          3.86820619
     1         -3.43992529         -0.56792500          2.13871939
     1          3.98715016          0.11124918         -0.07518233
     6          1.65696992          0.05828886         -4.64377752
     8          3.92929484          0.73840153         -4.82731005
     8          0.13299557         -0.50600660         -6.36957426

 Electric dipole moment (dipole orientation):
 (Debye = 10**-18 statcoulomb cm , SI units = C m)
                  (au)            (Debye)         (10**-30 SI)
   Tot        0.503567D+01      0.127994D+02      0.426942D+02
   x          0.000000D+00      0.000000D+00      0.000000D+00
   y          0.000000D+00      0.000000D+00      0.000000D+00
   z          0.503567D+01      0.127994D+02      0.426942D+02

 Dipole polarizability, Alpha (dipole orientation).
 (esu units = cm**3 , SI units = C**2 m**2 J**-1)
 Alpha(0;0):
               (au)            (10**-24 esu)      (10**-40 SI)
   iso        0.987101D+02      0.146273D+02      0.162751D+02
   aniso      0.637352D+02      0.944458D+01      0.105085D+02
   xx         0.107977D+03      0.160005D+02      0.178030D+02
   yx         0.140291D+02      0.207889D+01      0.231308D+01
   yy         0.617105D+02      0.914456D+01      0.101747D+02
   zx        -0.359062D+01     -0.532075D+00     -0.592013D+00
   zy         0.569062D+01      0.843263D+00      0.938256D+00
   zz         0.126443D+03      0.187369D+02      0.208476D+02

 ----------------------------------------------------------------------
 1\1\GINC-NODE2\Freq\UM062X\6-31+G(d,p)\C3H3N3O2(1-,2)\GONGKE2021\01-Ju
 l-2023\0\\#N Geom=AllCheck Guess=TCheck SCRF=Check GenChk UM062X/6-31+
 G(d,p) Freq\\RC\\-1,2\N,0.6092243172,-1.0310085053,0.0653389044\N,1.18
 49975929,0.2254623691,-0.1360467422\C,0.1174278946,1.1141413513,-0.059
 9990189\C,-1.0227999018,0.3594227413,0.0013032686\N,-0.7541903741,-0.9
 680438377,0.0496198871\H,0.2738153257,2.1797769166,-0.1122052141\H,-2.
 0461568194,0.7057211538,0.0024048883\H,2.0383878758,0.3775592101,0.398
 9843055\C,1.3804226267,-2.2130937736,-0.0718011787\O,2.6214707698,-2.0
 251258964,-0.1684677654\O,0.7503006926,-3.2974117292,-0.0441313345\\Ve
 rsion=ES64L-G16RevA.03\State=2-A\HF=-430.7717035\S2=0.764077\S2-1=0.\S
 2A=0.750063\RMSD=2.745e-09\RMSF=1.905e-05\ZeroPoint=0.0717648\Thermal=
 0.0782406\Dipole=-1.0977255,4.8913197,0.477424\DipoleDeriv=-0.6143116,
 1.2804288,-0.0688384,0.8965162,-1.3525635,-0.1107799,0.0136875,-0.1615
 896,-0.1328343,-1.0539118,-0.4357824,0.1932261,0.0003846,-0.0224111,-0
 .0511733,0.4172171,0.2160852,-0.1922212,0.2047878,0.1249812,-0.1539835
 ,-0.2585439,-0.3880263,0.0200542,-0.1277158,-0.1857168,-0.2568048,0.35
 28929,-0.0085194,0.0188694,0.4649786,0.5194474,0.0307335,-0.0231406,-0
 .044265,-0.1082247,-0.2670277,-0.3222946,0.1077462,-0.4424958,-0.73456
 37,-0.0140801,-0.0300223,0.0235401,-0.3048561,0.1384711,-0.0018112,0.0
 103858,0.0056478,0.1008408,0.0051119,0.023793,0.0576603,0.2814966,0.03
 94511,0.0655311,0.0012587,0.0420349,0.1317611,0.002341,-0.0017803,0.01
 59616,0.216043,0.4776217,0.0644149,-0.0337276,0.0348779,0.30917,0.0224
 039,-0.1869298,-0.0612192,0.37813,3.5091714,-0.4075014,-0.2250493,-0.3
 016685,4.0434266,0.0834695,-0.2360167,0.1430832,0.5535294,-2.5615931,0
 .2922246,0.1262505,-0.0953042,-1.098181,0.0016642,0.1263466,-0.0359711
 ,-0.7224049,-1.2255517,-0.6516716,0.0238622,-0.3464274,-2.5089003,0.01
 02551,0.0245613,0.0324313,-0.711853\Polar=113.3325906,-5.0544242,125.4
 442546,-2.9796653,-0.4215886,57.3533718\Quadrupole=-2.1381312,-3.21815
 93,5.3562905,3.1081316,2.1373676,0.6881545\PG=C01 [X(C3H3N3O2)]\NImag=
 0\\0.66692360,-0.08738228,0.71709032,-0.01750221,-0.02296483,0.0518896
 4,-0.12698992,-0.03927544,0.00156631,0.78344994,-0.06119023,-0.2174838
 6,0.03785938,-0.00541369,0.52091490,-0.01375872,0.03072015,-0.03008050
 ,0.19806043,0.00902578,0.18921186,-0.01334926,0.03482154,-0.00277423,-
 0.23152156,0.10566322,-0.01310925,0.63528943,0.01898743,-0.08015867,-0
 .00129652,0.08146374,-0.18099438,-0.00361713,0.10412217,0.85936671,0.0
 0372157,0.00818823,-0.00373633,0.00928626,-0.02336481,-0.03869960,-0.0
 1853963,-0.02911603,0.09711351,-0.05767632,0.04418850,0.00159260,-0.07
 189917,0.02464575,0.00053807,-0.32910895,-0.13848048,0.01237897,0.9168
 3577,0.05832728,-0.04394795,0.00289309,0.00327890,0.00647178,0.0015517
 9,-0.11672337,-0.15184729,0.00864349,-0.06122868,0.55969397,-0.0029476
 7,0.00251440,0.00523609,0.00745809,-0.00077908,0.01318917,0.01198809,0
 .00937322,-0.06071882,-0.01514683,-0.02459648,0.12692799,-0.26248158,-
 0.03012220,0.00181270,-0.06946799,-0.02755939,0.00739165,0.02896355,-0
 .01589530,-0.00503602,-0.11601728,0.05165404,-0.00340936,0.43513009,0.
 03337159,-0.10520815,0.00094588,-0.02537077,-0.01306031,-0.00290722,-0
 .07187457,-0.10700266,0.00410202,0.04029946,-0.27720432,0.01173433,-0.
 01545946,0.50633206,-0.00892136,0.00216766,-0.02547320,0.00551114,0.00
 357749,-0.00458951,0.00280691,0.00425737,0.02636019,-0.00092073,0.0103
 1680,-0.05359571,-0.00192373,-0.01760361,0.06170654,-0.00686604,0.0037
 0599,0.00089079,0.00914617,0.02723022,-0.00172032,-0.06496241,-0.05392
 639,0.00508280,0.00835859,-0.02115587,0.00074642,-0.00383883,-0.003357
 90,0.00058759,0.05622598,0.00114238,0.00037672,-0.00044861,-0.00481996
 ,-0.01066743,0.00094888,-0.04538066,-0.36761586,0.01545847,0.00260635,
 -0.00390006,0.00042062,0.00006538,0.00179824,0.00021586,0.04683658,0.3
 8076462,-0.00099852,0.00159840,0.00298023,0.00026098,-0.00339418,-0.00
 306291,0.00299027,0.01933739,-0.02114689,-0.00004767,-0.00007593,0.000
 43850,0.00158012,0.00090161,0.00641271,-0.00470120,-0.01681088,0.01708
 548,0.00163192,-0.00053273,0.00031513,-0.00176267,-0.00232643,-0.00085
 727,-0.00927798,0.01116197,0.00003036,-0.34089548,0.09014007,0.0013939
 9,0.00082707,0.00158612,-0.00029714,0.00012906,-0.00025720,-0.00009155
 ,0.34922205,0.00225972,-0.00796985,-0.00005649,-0.00413928,-0.00291087
 ,-0.00043355,-0.01472909,0.01292685,0.00039120,0.08508398,-0.08766030,
 0.00141865,0.02980538,-0.00393430,-0.00014097,0.00078768,-0.00017947,-
 0.00017621,-0.10008195,0.08748136,-0.00039914,0.00011155,0.00689337,-0
 .00027546,0.00239380,0.00723738,0.00149458,-0.00065483,0.00144250,0.00
 093348,0.00193983,-0.03436975,-0.00057664,-0.00078541,-0.00487267,-0.0
 0017947,-0.00011910,-0.00276851,-0.00102000,-0.00176266,0.02539406,-0.
 01055245,-0.00313448,0.00107021,-0.30143097,-0.04729908,-0.17664708,-0
 .01675978,-0.00213730,-0.00707979,-0.00083202,0.00319973,-0.00113154,0
 .00264743,-0.00084264,-0.00264136,0.00015463,0.00016369,0.00073182,-0.
 00017034,-0.00036551,0.00031668,0.32658455,-0.03155376,-0.00496625,-0.
 01656617,-0.03729445,-0.06626980,-0.02298103,0.01601485,0.01233390,0.0
 1402703,0.00476082,-0.00539661,0.00035924,-0.00136073,-0.00391003,-0.0
 0058699,-0.00083086,-0.00018074,-0.00071187,0.00045708,0.00085087,-0.0
 0115380,0.05154754,0.06710024,0.01654885,-0.00296973,0.00424419,-0.218
 01903,-0.03086844,-0.13003703,0.01330203,0.00121467,-0.00094055,0.0017
 1437,-0.00028490,0.00108681,0.00121360,0.00254757,-0.00120355,-0.00036
 397,0.00007600,-0.00033428,0.00061844,0.00056921,0.00045081,0.18611953
 ,0.02706304,0.12674751,-0.11876439,0.04333408,-0.00000081,0.00652185,-
 0.00896902,0.00342391,0.00401935,-0.01132432,-0.00120938,-0.00792448,-
 0.00813389,0.00068467,-0.01658602,0.02528306,0.00465340,0.00180331,-0.
 00059450,0.00064812,0.00065131,0.00027524,-0.00006901,0.00198190,-0.00
 388305,-0.00257324,0.75756067,0.02513264,-0.16215569,0.01010263,0.0188
 3749,-0.02974370,-0.01129522,-0.01457270,0.00776631,0.00360996,-0.0036
 9940,0.00837526,-0.00034397,0.01536623,0.00435464,-0.00362584,-0.00046
 199,0.00015880,-0.00110108,-0.00084087,0.00235312,-0.00026168,-0.00339
 371,-0.00178477,0.00061063,0.17757344,0.64354244,0.01282473,-0.0095614
 2,-0.04204641,-0.00569961,0.00630097,-0.00748078,0.00191163,0.00098342
 ,-0.00103475,-0.00166168,-0.00030319,0.00156866,-0.00156157,0.00350833
 ,-0.01051898,-0.00046591,0.00034834,0.00053261,-0.00013938,0.00041823,
 0.00123348,-0.00076637,-0.00070066,0.00114110,-0.03972434,-0.01119308,
 0.21655018,-0.08588474,0.03280048,0.01770981,0.00729615,-0.00458157,-0
 .00631924,-0.00521569,0.00474670,0.00201798,-0.00259503,0.00078188,0.0
 0030510,-0.00111189,0.00978443,-0.00066063,-0.00024263,0.00007661,-0.0
 0046941,-0.00034149,0.00117653,-0.00022624,-0.00215016,0.00129536,0.00
 158725,-0.44426703,-0.04750622,0.02821984,0.60592637,0.04613954,-0.000
 79170,-0.00165381,0.00818441,-0.00113838,-0.00327593,0.00029222,0.0013
 3635,-0.00062418,0.00387836,-0.00073674,0.00006103,-0.00398652,-0.0049
 0406,-0.00101083,0.00008280,-0.00010559,0.00001627,0.00023418,-0.00053
 205,0.00019598,0.00041765,0.00215440,0.00227666,-0.05320564,-0.0995103
 7,0.00264304,0.07055858,0.12004834,0.01288442,-0.00372662,0.01436546,-
 0.00100667,-0.00046181,0.00023688,0.00050823,-0.00047869,0.00065103,0.
 00056808,-0.00001405,0.00033076,-0.00046837,-0.00180311,0.00495191,0.0
 0002568,-0.00000950,-0.00002628,0.00003248,-0.00021729,-0.00055829,0.0
 0013892,0.00063099,-0.00086987,0.02942720,0.00546297,-0.08193689,-0.04
 791628,-0.00388756,0.03677888,0.01400918,0.00159654,-0.00468029,-0.003
 34184,-0.00019979,0.00299782,0.00192330,0.00128179,-0.00065311,0.00175
 437,-0.00014009,0.00005903,0.00193544,0.00658068,0.00180591,0.00009217
 ,0.00016133,0.00009705,-0.00001345,-0.00007271,0.00000122,0.00052722,0
 .00084720,-0.00014784,-0.18499649,-0.16643493,0.00706265,-0.07141387,-
 0.07259558,0.00580632,0.23952396,-0.00523432,-0.09478492,-0.00881454,0
 .00454904,-0.00511796,0.00226347,0.00236638,-0.00611127,-0.00131536,-0
 .00205465,-0.00384774,-0.00016196,-0.00250743,0.00273889,0.00243307,0.
 00108973,-0.00044924,0.00041648,0.00045975,-0.00042535,0.00009631,0.00
 184411,0.00006879,-0.00023470,-0.16035539,-0.37335605,0.00755603,-0.06
 913278,-0.01582021,0.00450469,0.22897556,0.49710506,-0.00145194,-0.006
 07778,0.01572747,0.00285757,-0.00028909,0.00407503,-0.00057861,-0.0000
 0286,0.00070971,0.00005134,-0.00007044,-0.00009371,0.00097761,-0.00064
 038,0.00082228,0.00009759,-0.00008009,-0.00011066,0.00001493,-0.000010
 09,-0.00008239,-0.00011104,0.00062023,-0.00028512,0.00473949,0.0080346
 7,-0.07800823,0.00575182,0.00525934,0.02607641,-0.01234875,-0.00674349
 ,0.03116921\\0.00000280,-0.00000435,0.00000662,0.00000335,-0.00001769,
 -0.00000621,0.00002166,0.00000499,-0.00001579,0.00001175,0.00002080,-0
 .00000797,-0.00001156,0.00001871,0.00000196,0.00003592,0.00000127,-0.0
 0002797,0.00001529,0.00003471,-0.00001326,0.00001259,-0.00001683,-0.00
 000439,-0.00002766,-0.00001606,0.00001476,-0.00002485,-0.00002632,0.00
 002022,-0.00003929,0.00000077,0.00003203\\\@


 In the beginning the Universe was created.
 This has made a lot of people very angry
 and been widely regarded as a bad move.
                               -D.Adams
 Job cpu time:       0 days  0 hours 42 minutes 11.0 seconds.
 Elapsed time:       0 days  0 hours  2 minutes  7.7 seconds.
 File lengths (MBytes):  RWF=     92 Int=      0 D2E=      0 Chk=      8 Scr=      1
 Normal termination of Gaussian 16 at Sat Jul  1 05:14:06 2023.
