 Entering Gaussian System, Link 0=/opt/soft/g16/g16
 Initial command:
 /opt/soft/g16/l1.exe "/scratch/gongke2021/sidanzuo-TS/Gau-10837.inp" -scrdir="/scratch/gongke2021/sidanzuo-TS/"
 Entering Link 1 = /opt/soft/g16/l1.exe PID=     10838.
  
 Copyright (c) 1988,1990,1992,1993,1995,1998,2003,2009,2016,
            Gaussian, Inc.  All Rights Reserved.
  
 This is part of the Gaussian(R) 16 program.  It is based on
 the Gaussian(R) 09 system (copyright 2009, Gaussian, Inc.),
 the Gaussian(R) 03 system (copyright 2003, Gaussian, Inc.),
 the Gaussian(R) 98 system (copyright 1998, Gaussian, Inc.),
 the Gaussian(R) 94 system (copyright 1995, Gaussian, Inc.),
 the Gaussian 92(TM) system (copyright 1992, Gaussian, Inc.),
 the Gaussian 90(TM) system (copyright 1990, Gaussian, Inc.),
 the Gaussian 88(TM) system (copyright 1988, Gaussian, Inc.),
 the Gaussian 86(TM) system (copyright 1986, Carnegie Mellon
 University), and the Gaussian 82(TM) system (copyright 1983,
 Carnegie Mellon University). Gaussian is a federally registered
 trademark of Gaussian, Inc.
  
 This software contains proprietary and confidential information,
 including trade secrets, belonging to Gaussian, Inc.
  
 This software is provided under written license and may be
 used, copied, transmitted, or stored only in accord with that
 written license.
  
 The following legend is applicable only to US Government
 contracts under FAR:
  
                    RESTRICTED RIGHTS LEGEND
  
 Use, reproduction and disclosure by the US Government is
 subject to restrictions as set forth in subparagraphs (a)
 and (c) of the Commercial Computer Software - Restricted
 Rights clause in FAR 52.227-19.
  
 Gaussian, Inc.
 340 Quinnipiac St., Bldg. 40, Wallingford CT 06492
  
  
 ---------------------------------------------------------------
 Warning -- This program may not be used in any manner that
 competes with the business of Gaussian, Inc. or will provide
 assistance to any competitor of Gaussian, Inc.  The licensee
 of this program is prohibited from giving any competitor of
 Gaussian, Inc. access to this program.  By using this program,
 the user acknowledges that Gaussian, Inc. is engaged in the
 business of creating and licensing software in the field of
 computational chemistry and represents and warrants to the
 licensee that it is not a competitor of Gaussian, Inc. and that
 it will not use this program in any manner prohibited above.
 ---------------------------------------------------------------
  

 Cite this work as:
 Gaussian 16, Revision A.03,
 M. J. Frisch, G. W. Trucks, H. B. Schlegel, G. E. Scuseria, 
 M. A. Robb, J. R. Cheeseman, G. Scalmani, V. Barone, 
 G. A. Petersson, H. Nakatsuji, X. Li, M. Caricato, A. V. Marenich, 
 J. Bloino, B. G. Janesko, R. Gomperts, B. Mennucci, H. P. Hratchian, 
 J. V. Ortiz, A. F. Izmaylov, J. L. Sonnenberg, D. Williams-Young, 
 F. Ding, F. Lipparini, F. Egidi, J. Goings, B. Peng, A. Petrone, 
 T. Henderson, D. Ranasinghe, V. G. Zakrzewski, J. Gao, N. Rega, 
 G. Zheng, W. Liang, M. Hada, M. Ehara, K. Toyota, R. Fukuda, 
 J. Hasegawa, M. Ishida, T. Nakajima, Y. Honda, O. Kitao, H. Nakai, 
 T. Vreven, K. Throssell, J. A. Montgomery, Jr., J. E. Peralta, 
 F. Ogliaro, M. J. Bearpark, J. J. Heyd, E. N. Brothers, K. N. Kudin, 
 V. N. Staroverov, T. A. Keith, R. Kobayashi, J. Normand, 
 K. Raghavachari, A. P. Rendell, J. C. Burant, S. S. Iyengar, 
 J. Tomasi, M. Cossi, J. M. Millam, M. Klene, C. Adamo, R. Cammi, 
 J. W. Ochterski, R. L. Martin, K. Morokuma, O. Farkas, 
 J. B. Foresman, and D. J. Fox, Gaussian, Inc., Wallingford CT, 2016.
 
 ******************************************
 Gaussian 16:  ES64L-G16RevA.03 25-Dec-2016
                 6-Nov-2023 
 ******************************************
 %mem=10GB
 %nprocshared=24
 Will use up to   24 processors via shared memory.
 ----------------------------------------------------------------------
 # opt=(calcfc,ts,noeigentest) freq 6-31+g(d,p) integral=grid=ultrafine
  m062x
 ----------------------------------------------------------------------
 1/5=1,10=4,11=1,18=20,26=4,38=1/1,3;
 2/9=110,12=2,17=6,18=5,40=1/2;
 3/5=1,6=6,7=111,11=2,25=1,30=1,71=2,74=-55,75=-5,140=1/1,2,3;
 4//1;
 5/5=2,38=5/2;
 8/6=4,10=90,11=11/1;
 11/6=1,8=1,9=11,15=111,16=1/1,2,10;
 10/6=1,13=1/2;
 6/7=2,8=2,9=2,10=2,28=1/1;
 7/10=1,18=20,25=1/1,2,3,16;
 1/5=1,10=4,11=1,18=20,26=4/3(2);
 2/9=110/2;
 99//99;
 2/9=110/2;
 3/5=1,6=6,7=111,11=2,25=1,30=1,71=1,74=-55,75=-5/1,2,3;
 4/5=5,16=3,69=1/1;
 5/5=2,38=5/2;
 7//1,2,3,16;
 1/5=1,11=1,18=20,26=4/3(-5);
 2/9=110/2;
 6/7=2,8=2,9=2,10=2,19=2,28=1/1;
 99/9=1/99;
 -------------------
 Title Card Required
 -------------------
 Symbolic Z-matrix:
 Charge =  0 Multiplicity = 1
 N                    -0.30016  -1.06919   0.04338 
 N                    -0.52482   0.23514   0.00454 
 N                    -1.80736   0.55754  -0.03618 
 N                    -2.45861  -0.559    -0.02472 
 C                    -1.5239   -1.54506   0.02412 
 C                     0.51024   1.25598   0.00865 
 O                     0.16896   2.4137   -0.0117 
 O                     1.72073   0.81832   0.04214 
 H                     2.69788  -2.19619  -0.04132 
 H                    -1.76079  -2.59696   0.04335 
 O                     2.07213  -1.45792   0.01894 
 H                     0.9504   -1.29254  -0.13336 
 H                     2.05772  -0.2997    0.01102 
 
 Add virtual bond connecting atoms H12        and O11        Dist= 2.16D+00.
 Add virtual bond connecting atoms H13        and O11        Dist= 2.19D+00.
 Add virtual bond connecting atoms H12        and N1         Dist= 2.42D+00.
 Add virtual bond connecting atoms H13        and O8         Dist= 2.21D+00.

 GradGradGradGradGradGradGradGradGradGradGradGradGradGradGradGradGradGrad
 Berny optimization.
 Initialization pass.
                           ----------------------------
                           !    Initial Parameters    !
                           ! (Angstroms and Degrees)  !
 --------------------------                            --------------------------
 ! Name  Definition              Value          Derivative Info.                !
 --------------------------------------------------------------------------------
 ! R1    R(1,2)                  1.3241         calculate D2E/DX2 analytically  !
 ! R2    R(1,5)                  1.3131         calculate D2E/DX2 analytically  !
 ! R3    R(1,12)                 1.2826         calculate D2E/DX2 analytically  !
 ! R4    R(2,3)                  1.3231         calculate D2E/DX2 analytically  !
 ! R5    R(2,6)                  1.4538         calculate D2E/DX2 analytically  !
 ! R6    R(3,4)                  1.2926         calculate D2E/DX2 analytically  !
 ! R7    R(4,5)                  1.3596         calculate D2E/DX2 analytically  !
 ! R8    R(5,10)                 1.0784         calculate D2E/DX2 analytically  !
 ! R9    R(6,7)                  1.2071         calculate D2E/DX2 analytically  !
 ! R10   R(6,8)                  1.2876         calculate D2E/DX2 analytically  !
 ! R11   R(8,13)                 1.1681         calculate D2E/DX2 analytically  !
 ! R12   R(9,11)                 0.9697         calculate D2E/DX2 analytically  !
 ! R13   R(11,12)                1.144          calculate D2E/DX2 analytically  !
 ! R14   R(11,13)                1.1583         calculate D2E/DX2 analytically  !
 ! A1    A(2,1,5)              101.4451         calculate D2E/DX2 analytically  !
 ! A2    A(2,1,12)             109.4468         calculate D2E/DX2 analytically  !
 ! A3    A(5,1,12)             147.5134         calculate D2E/DX2 analytically  !
 ! A4    A(1,2,3)              113.9168         calculate D2E/DX2 analytically  !
 ! A5    A(1,2,6)              124.8078         calculate D2E/DX2 analytically  !
 ! A6    A(3,2,6)              121.2751         calculate D2E/DX2 analytically  !
 ! A7    A(2,3,4)              106.1187         calculate D2E/DX2 analytically  !
 ! A8    A(3,4,5)              106.2851         calculate D2E/DX2 analytically  !
 ! A9    A(1,5,4)              112.2343         calculate D2E/DX2 analytically  !
 ! A10   A(1,5,10)             123.9128         calculate D2E/DX2 analytically  !
 ! A11   A(4,5,10)             123.8529         calculate D2E/DX2 analytically  !
 ! A12   A(2,6,7)              118.1717         calculate D2E/DX2 analytically  !
 ! A13   A(2,6,8)              115.5135         calculate D2E/DX2 analytically  !
 ! A14   A(7,6,8)              126.3135         calculate D2E/DX2 analytically  !
 ! A15   A(6,8,13)             126.5728         calculate D2E/DX2 analytically  !
 ! A16   A(9,11,12)            137.268          calculate D2E/DX2 analytically  !
 ! A17   A(9,11,13)            140.255          calculate D2E/DX2 analytically  !
 ! A18   A(12,11,13)            80.9292         calculate D2E/DX2 analytically  !
 ! A19   A(1,12,11)            164.3327         calculate D2E/DX2 analytically  !
 ! A20   A(8,13,11)            163.8264         calculate D2E/DX2 analytically  !
 ! D1    D(5,1,2,3)              0.0136         calculate D2E/DX2 analytically  !
 ! D2    D(5,1,2,6)            179.8317         calculate D2E/DX2 analytically  !
 ! D3    D(12,1,2,3)           169.8084         calculate D2E/DX2 analytically  !
 ! D4    D(12,1,2,6)           -10.3735         calculate D2E/DX2 analytically  !
 ! D5    D(2,1,5,4)             -0.0045         calculate D2E/DX2 analytically  !
 ! D6    D(2,1,5,10)           179.9111         calculate D2E/DX2 analytically  !
 ! D7    D(12,1,5,4)          -161.8819         calculate D2E/DX2 analytically  !
 ! D8    D(12,1,5,10)           18.0337         calculate D2E/DX2 analytically  !
 ! D9    D(2,1,12,11)           88.2233         calculate D2E/DX2 analytically  !
 ! D10   D(5,1,12,11)         -110.64           calculate D2E/DX2 analytically  !
 ! D11   D(1,2,3,4)             -0.0178         calculate D2E/DX2 analytically  !
 ! D12   D(6,2,3,4)           -179.8431         calculate D2E/DX2 analytically  !
 ! D13   D(1,2,6,7)           -179.0226         calculate D2E/DX2 analytically  !
 ! D14   D(1,2,6,8)              0.5854         calculate D2E/DX2 analytically  !
 ! D15   D(3,2,6,7)              0.7829         calculate D2E/DX2 analytically  !
 ! D16   D(3,2,6,8)           -179.6091         calculate D2E/DX2 analytically  !
 ! D17   D(2,3,4,5)              0.0134         calculate D2E/DX2 analytically  !
 ! D18   D(3,4,5,1)             -0.0058         calculate D2E/DX2 analytically  !
 ! D19   D(3,4,5,10)          -179.9214         calculate D2E/DX2 analytically  !
 ! D20   D(2,6,8,13)             3.5413         calculate D2E/DX2 analytically  !
 ! D21   D(7,6,8,13)          -176.8877         calculate D2E/DX2 analytically  !
 ! D22   D(6,8,13,11)           -9.6797         calculate D2E/DX2 analytically  !
 ! D23   D(9,11,12,1)          110.149          calculate D2E/DX2 analytically  !
 ! D24   D(13,11,12,1)         -82.7805         calculate D2E/DX2 analytically  !
 ! D25   D(9,11,13,8)         -179.2033         calculate D2E/DX2 analytically  !
 ! D26   D(12,11,13,8)          14.5339         calculate D2E/DX2 analytically  !
 --------------------------------------------------------------------------------
 Trust Radius=3.00D-01 FncErr=1.00D-07 GrdErr=1.00D-06 EigMax=2.50D+02 EigMin=1.00D-04
 Number of steps in this run=     70 maximum allowed number of steps=    100.
 Search for a saddle point of order  1.
 GradGradGradGradGradGradGradGradGradGradGradGradGradGradGradGradGradGrad

                          Input orientation:                          
 ---------------------------------------------------------------------
 Center     Atomic      Atomic             Coordinates (Angstroms)
 Number     Number       Type             X           Y           Z
 ---------------------------------------------------------------------
      1          7           0       -0.300160   -1.069192    0.043376
      2          7           0       -0.524823    0.235141    0.004540
      3          7           0       -1.807361    0.557536   -0.036181
      4          7           0       -2.458606   -0.559004   -0.024718
      5          6           0       -1.523896   -1.545062    0.024122
      6          6           0        0.510236    1.255984    0.008649
      7          8           0        0.168964    2.413696   -0.011698
      8          8           0        1.720728    0.818318    0.042144
      9          1           0        2.697883   -2.196187   -0.041319
     10          1           0       -1.760792   -2.596962    0.043350
     11          8           0        2.072134   -1.457920    0.018944
     12          1           0        0.950397   -1.292539   -0.133363
     13          1           0        2.057722   -0.299704    0.011019
 ---------------------------------------------------------------------
                    Distance matrix (angstroms):
                    1          2          3          4          5
     1  N    0.000000
     2  N    1.324110   0.000000
     3  N    2.219060   1.323065   0.000000
     4  N    2.218968   2.090703   1.292638   0.000000
     5  C    1.313146   2.041483   2.122477   1.359551   0.000000
     6  C    2.462598   1.453783   2.420970   3.479844   3.461761
     7  O    3.514772   2.286418   2.711418   3.967523   4.305673
     8  O    2.765264   2.320347   3.538581   4.400945   4.014159
     9  H    3.203990   4.037238   5.280174   5.410177   4.272196
    10  H    2.113653   3.090297   3.155844   2.155192   1.078417
    11  O    2.404056   3.100137   4.372138   4.619260   3.597090
    12  H    1.282581   2.128168   3.322266   3.488722   2.492127
    13  H    2.480477   2.637355   3.959287   4.523907   3.791975
                    6          7          8          9         10
     6  C    0.000000
     7  O    1.207136   0.000000
     8  O    1.287620   2.226230   0.000000
     9  H    4.087271   5.258073   3.170022   0.000000
    10  H    4.472579   5.369700   4.876999   4.477451   0.000000
    11  O    3.131279   4.314210   2.303321   0.969655   3.998667
    12  H    2.590150   3.789673   2.253870   1.969456   3.013850
    13  H    2.194284   3.306125   1.168121   2.002297   4.456398
                   11         12         13
    11  O    0.000000
    12  H    1.144046   0.000000
    13  H    1.158333   1.494234   0.000000
 Stoichiometry    C2H4N4O3
 Framework group  C1[X(C2H4N4O3)]
 Deg. of freedom    33
 Full point group                 C1      NOp   1
 Largest Abelian subgroup         C1      NOp   1
 Largest concise Abelian subgroup C1      NOp   1
                         Standard orientation:                         
 ---------------------------------------------------------------------
 Center     Atomic      Atomic             Coordinates (Angstroms)
 Number     Number       Type             X           Y           Z
 ---------------------------------------------------------------------
      1          7           0        0.444642   -0.998614   -0.033883
      2          7           0        0.372672    0.323192   -0.003626
      3          7           0        1.551096    0.924015    0.025174
      4          7           0        2.435098   -0.019031    0.014318
      5          6           0        1.743834   -1.189168   -0.021928
      6          6           0       -0.864184    1.087176   -0.004779
      7          8           0       -0.789878    2.291967    0.006821
      8          8           0       -1.946598    0.390125   -0.026330
      9          1           0       -2.225472   -2.765795    0.080610
     10          1           0        2.209472   -2.161751   -0.037576
     11          8           0       -1.780763   -1.906906    0.011513
     12          1           0       -0.723283   -1.494261    0.153995
     13          1           0       -2.025254   -0.774671    0.013299
 ---------------------------------------------------------------------
 Rotational constants (GHZ):           2.3190462           1.6679400           0.9704562
 Standard basis: 6-31+G(d,p) (6D, 7F)
 There are   191 symmetry adapted cartesian basis functions of A   symmetry.
 There are   191 symmetry adapted basis functions of A   symmetry.
   191 basis functions,   316 primitive gaussians,   191 cartesian basis functions
    34 alpha electrons       34 beta electrons
       nuclear repulsion energy       470.9250294514 Hartrees.
 NAtoms=   13 NActive=   13 NUniq=   13 SFac= 1.00D+00 NAtFMM=   60 NAOKFM=F Big=F
 Integral buffers will be    131072 words long.
 Raffenetti 2 integral format.
 Two-electron integral symmetry is turned on.
 One-electron integrals computed using PRISM.
 NBasis=   191 RedAO= T EigKep=  2.28D-05  NBF=   191
 NBsUse=   191 1.00D-06 EigRej= -1.00D+00 NBFU=   191
 ExpMin= 4.38D-02 ExpMax= 5.48D+03 ExpMxC= 8.25D+02 IAcc=3 IRadAn=         5 AccDes= 0.00D+00
 Harris functional with IExCor= 1009 and IRadAn=       5 diagonalized for initial guess.
 HarFok:  IExCor= 1009 AccDes= 0.00D+00 IRadAn=         5 IDoV= 1 UseB2=F ITyADJ=14
 ICtDFT=  3500011 ScaDFX=  1.000000  1.000000  1.000000  1.000000
 FoFCou: FMM=F IPFlag=           0 FMFlag=      100000 FMFlg1=           0
         NFxFlg=           0 DoJE=T BraDBF=F KetDBF=T FulRan=T
         wScrn=  0.000000 ICntrl=       500 IOpCl=  0 I1Cent=   200000004 NGrid=           0
         NMat0=    1 NMatS0=      1 NMatT0=    0 NMatD0=    1 NMtDS0=    0 NMtDT0=    0
 Petite list used in FoFCou.
 Requested convergence on RMS density matrix=1.00D-08 within 128 cycles.
 Requested convergence on MAX density matrix=1.00D-06.
 Requested convergence on             energy=1.00D-06.
 No special actions if energy rises.
 SCF Done:  E(RM062X) =  -523.039765566     A.U. after   14 cycles
            NFock= 14  Conv=0.87D-08     -V/T= 2.0077
 DoSCS=F DFT=T ScalE2(SS,OS)=  1.000000  1.000000
 Range of M.O.s used for correlation:     1   191
 NBasis=   191 NAE=    34 NBE=    34 NFC=     0 NFV=     0
 NROrb=    191 NOA=    34 NOB=    34 NVA=   157 NVB=   157

 **** Warning!!: The largest alpha MO coefficient is  0.85095313D+02

 Symmetrizing basis deriv contribution to polar:
 IMax=3 JMax=2 DiffMx= 0.00D+00
 G2DrvN: will do    14 centers at a time, making    1 passes.
 Calling FoFCou, ICntrl=  3107 FMM=F I1Cent=   0 AccDes= 0.00D+00.
 End of G2Drv F.D. properties file   721 does not exist.
 End of G2Drv F.D. properties file   722 does not exist.
 End of G2Drv F.D. properties file   788 does not exist.
          IDoAtm=1111111111111
          Differentiating once with respect to nuclear coordinates.
 Keep R1 ints in memory in canonical form, NReq=192460489.
          There are    42 degrees of freedom in the 1st order CPHF.  IDoFFX=6 NUNeed=     0.
     36 vectors produced by pass  0 Test12= 1.27D-14 2.38D-09 XBig12= 1.49D-01 8.71D-02.
 AX will form    36 AO Fock derivatives at one time.
     36 vectors produced by pass  1 Test12= 1.27D-14 2.38D-09 XBig12= 2.03D-02 6.01D-02.
     36 vectors produced by pass  2 Test12= 1.27D-14 2.38D-09 XBig12= 6.02D-04 4.46D-03.
     36 vectors produced by pass  3 Test12= 1.27D-14 2.38D-09 XBig12= 7.78D-06 4.22D-04.
     36 vectors produced by pass  4 Test12= 1.27D-14 2.38D-09 XBig12= 6.70D-08 3.60D-05.
     36 vectors produced by pass  5 Test12= 1.27D-14 2.38D-09 XBig12= 3.98D-10 2.36D-06.
     36 vectors produced by pass  6 Test12= 1.27D-14 2.38D-09 XBig12= 1.91D-12 1.72D-07.
     10 vectors produced by pass  7 Test12= 1.27D-14 2.38D-09 XBig12= 7.04D-15 1.13D-08.
 InvSVY:  IOpt=1 It=  1 EMax= 1.33D-15
 Solved reduced A of dimension   262 with    36 vectors.
 End of Minotr F.D. properties file   721 does not exist.
 End of Minotr F.D. properties file   722 does not exist.
 End of Minotr F.D. properties file   788 does not exist.

 **********************************************************************

            Population analysis using the SCF density.

 **********************************************************************

 Orbital symmetries:
       Occupied  (A) (A) (A) (A) (A) (A) (A) (A) (A) (A) (A) (A)
                 (A) (A) (A) (A) (A) (A) (A) (A) (A) (A) (A) (A)
                 (A) (A) (A) (A) (A) (A) (A) (A) (A) (A)
       Virtual   (A) (A) (A) (A) (A) (A) (A) (A) (A) (A) (A) (A)
                 (A) (A) (A) (A) (A) (A) (A) (A) (A) (A) (A) (A)
                 (A) (A) (A) (A) (A) (A) (A) (A) (A) (A) (A) (A)
                 (A) (A) (A) (A) (A) (A) (A) (A) (A) (A) (A) (A)
                 (A) (A) (A) (A) (A) (A) (A) (A) (A) (A) (A) (A)
                 (A) (A) (A) (A) (A) (A) (A) (A) (A) (A) (A) (A)
                 (A) (A) (A) (A) (A) (A) (A) (A) (A) (A) (A) (A)
                 (A) (A) (A) (A) (A) (A) (A) (A) (A) (A) (A) (A)
                 (A) (A) (A) (A) (A) (A) (A) (A) (A) (A) (A) (A)
                 (A) (A) (A) (A) (A) (A) (A) (A) (A) (A) (A) (A)
                 (A) (A) (A) (A) (A) (A) (A) (A) (A) (A) (A) (A)
                 (A) (A) (A) (A) (A) (A) (A) (A) (A) (A) (A) (A)
                 (A) (A) (A) (A) (A) (A) (A) (A) (A) (A) (A) (A)
                 (A)
 The electronic state is 1-A.
 Alpha  occ. eigenvalues --  -19.67372 -19.66350 -19.64246 -14.94625 -14.90324
 Alpha  occ. eigenvalues --  -14.90194 -14.85496 -10.73698 -10.68252  -1.34842
 Alpha  occ. eigenvalues --   -1.23603  -1.17554  -1.13403  -1.12876  -1.05254
 Alpha  occ. eigenvalues --   -0.84415  -0.82004  -0.75916  -0.73753  -0.66043
 Alpha  occ. eigenvalues --   -0.65147  -0.61861  -0.56873  -0.54189  -0.53969
 Alpha  occ. eigenvalues --   -0.49012  -0.45995  -0.45933  -0.44020  -0.43074
 Alpha  occ. eigenvalues --   -0.41501  -0.40489  -0.37707  -0.37279
 Alpha virt. eigenvalues --   -0.06057  -0.00693   0.00785   0.02322   0.02606
 Alpha virt. eigenvalues --    0.03771   0.05433   0.06634   0.07570   0.08091
 Alpha virt. eigenvalues --    0.08892   0.10267   0.11524   0.13235   0.14038
 Alpha virt. eigenvalues --    0.16167   0.17327   0.17928   0.18837   0.19673
 Alpha virt. eigenvalues --    0.20131   0.20193   0.20709   0.21475   0.21545
 Alpha virt. eigenvalues --    0.23943   0.24020   0.24464   0.25808   0.26943
 Alpha virt. eigenvalues --    0.27348   0.28031   0.28480   0.29428   0.30229
 Alpha virt. eigenvalues --    0.30502   0.31470   0.33785   0.34768   0.35137
 Alpha virt. eigenvalues --    0.36760   0.37952   0.38992   0.41275   0.42366
 Alpha virt. eigenvalues --    0.45194   0.45930   0.47887   0.50962   0.54164
 Alpha virt. eigenvalues --    0.62179   0.67581   0.77776   0.78565   0.79818
 Alpha virt. eigenvalues --    0.82518   0.84518   0.87211   0.90218   0.91247
 Alpha virt. eigenvalues --    0.91499   0.94594   0.95294   0.96263   0.97634
 Alpha virt. eigenvalues --    0.99010   1.01607   1.04086   1.07680   1.10848
 Alpha virt. eigenvalues --    1.14603   1.15734   1.18660   1.21508   1.24342
 Alpha virt. eigenvalues --    1.25366   1.26942   1.27385   1.29096   1.31201
 Alpha virt. eigenvalues --    1.33265   1.33715   1.36109   1.37748   1.39943
 Alpha virt. eigenvalues --    1.41570   1.43878   1.44383   1.46615   1.49770
 Alpha virt. eigenvalues --    1.51321   1.52340   1.58531   1.59553   1.62415
 Alpha virt. eigenvalues --    1.62951   1.66706   1.73961   1.75087   1.78350
 Alpha virt. eigenvalues --    1.80064   1.83617   1.88723   1.90836   1.93235
 Alpha virt. eigenvalues --    1.95745   1.98661   1.99492   2.02605   2.03124
 Alpha virt. eigenvalues --    2.09736   2.11352   2.15172   2.18708   2.22228
 Alpha virt. eigenvalues --    2.23675   2.28963   2.33013   2.35859   2.37355
 Alpha virt. eigenvalues --    2.41198   2.45851   2.46441   2.50348   2.53832
 Alpha virt. eigenvalues --    2.57092   2.58377   2.60475   2.62310   2.68399
 Alpha virt. eigenvalues --    2.70710   2.75373   2.75645   2.83150   2.87553
 Alpha virt. eigenvalues --    2.93801   2.95245   2.96267   2.99537   3.01774
 Alpha virt. eigenvalues --    3.11972   3.18513   3.24967   3.30973   3.47742
 Alpha virt. eigenvalues --    3.61329   3.85993   3.87806   3.98291   4.08087
 Alpha virt. eigenvalues --    4.21177   4.26784   4.41422   4.49627   4.55967
 Alpha virt. eigenvalues --    4.74590   4.91716
          Condensed to atoms (all electrons):
               1          2          3          4          5          6
     1  N    7.904210  -0.320647  -0.576312   0.068341   0.285688   0.075060
     2  N   -0.320647   8.355652  -0.721964   0.225164  -0.269399  -0.132796
     3  N   -0.576312  -0.721964   8.355555  -0.254342   0.228928   0.002772
     4  N    0.068341   0.225164  -0.254342   6.916197   0.219436   0.021736
     5  C    0.285688  -0.269399   0.228928   0.219436   5.165878  -0.029963
     6  C    0.075060  -0.132796   0.002772   0.021736  -0.029963   4.519374
     7  O   -0.005547  -0.025752  -0.052369   0.006054  -0.005994   0.477024
     8  O   -0.109724  -0.017737   0.007582   0.003169  -0.012211   0.326349
     9  H    0.005335   0.001991   0.000738  -0.000111   0.000768  -0.001379
    10  H   -0.076018   0.013621  -0.021063  -0.018633   0.433048   0.000379
    11  O   -0.056565  -0.012225  -0.012913   0.000191  -0.010540   0.004951
    12  H    0.039674   0.016820   0.023474  -0.009675   0.007891   0.002563
    13  H   -0.010580   0.019836   0.005458  -0.002254   0.005452  -0.012158
               7          8          9         10         11         12
     1  N   -0.005547  -0.109724   0.005335  -0.076018  -0.056565   0.039674
     2  N   -0.025752  -0.017737   0.001991   0.013621  -0.012225   0.016820
     3  N   -0.052369   0.007582   0.000738  -0.021063  -0.012913   0.023474
     4  N    0.006054   0.003169  -0.000111  -0.018633   0.000191  -0.009675
     5  C   -0.005994  -0.012211   0.000768   0.433048  -0.010540   0.007891
     6  C    0.477024   0.326349  -0.001379   0.000379   0.004951   0.002563
     7  O    8.102239  -0.098381   0.000027  -0.000008  -0.000554   0.001262
     8  O   -0.098381   8.407833   0.005281   0.000099  -0.062187   0.008672
     9  H    0.000027   0.005281   0.289264  -0.000001   0.280276  -0.008360
    10  H   -0.000008   0.000099  -0.000001   0.455240  -0.001021   0.000530
    11  O   -0.000554  -0.062187   0.280276  -0.001021   8.509185   0.156788
    12  H    0.001262   0.008672  -0.008360   0.000530   0.156788   0.263520
    13  H    0.003534   0.141475  -0.001187  -0.000000   0.091997   0.003446
              13
     1  N   -0.010580
     2  N    0.019836
     3  N    0.005458
     4  N   -0.002254
     5  C    0.005452
     6  C   -0.012158
     7  O    0.003534
     8  O    0.141475
     9  H   -0.001187
    10  H   -0.000000
    11  O    0.091997
    12  H    0.003446
    13  H    0.211238
 Mulliken charges:
               1
     1  N   -0.222914
     2  N   -0.132564
     3  N    0.014457
     4  N   -0.175272
     5  C   -0.018983
     6  C    0.746090
     7  O   -0.401537
     8  O   -0.600219
     9  H    0.427358
    10  H    0.213829
    11  O   -0.887384
    12  H    0.493396
    13  H    0.543745
 Sum of Mulliken charges =  -0.00000
 Mulliken charges with hydrogens summed into heavy atoms:
               1
     1  N   -0.222914
     2  N   -0.132564
     3  N    0.014457
     4  N   -0.175272
     5  C    0.194846
     6  C    0.746090
     7  O   -0.401537
     8  O   -0.600219
    11  O    0.577115
 APT charges:
               1
     1  N   -0.071859
     2  N   -0.816506
     3  N    0.253760
     4  N   -0.130900
     5  C   -0.192391
     6  C    0.092199
     7  O   -0.023911
     8  O   -0.416489
     9  H    1.092401
    10  H    0.748432
    11  O   -1.327091
    12  H    0.308046
    13  H    0.484309
 Sum of APT charges =  -0.00000
 APT charges with hydrogens summed into heavy atoms:
               1
     1  N   -0.071859
     2  N   -0.816506
     3  N    0.253760
     4  N   -0.130900
     5  C    0.556041
     6  C    0.092199
     7  O   -0.023911
     8  O   -0.416489
    11  O    0.557665
 Electronic spatial extent (au):  <R**2>=           1100.9290
 Charge=             -0.0000 electrons
 Dipole moment (field-independent basis, Debye):
    X=              1.0950    Y=             -7.4200    Z=              0.3324  Tot=              7.5077
 Quadrupole moment (field-independent basis, Debye-Ang):
   XX=            -56.4949   YY=            -50.4372   ZZ=            -51.1626
   XY=              2.5947   XZ=             -0.8035   YZ=             -0.8482
 Traceless Quadrupole moment (field-independent basis, Debye-Ang):
   XX=             -3.7967   YY=              2.2610   ZZ=              1.5357
   XY=              2.5947   XZ=             -0.8035   YZ=             -0.8482
 Octapole moment (field-independent basis, Debye-Ang**2):
  XXX=            -26.7706  YYY=            -60.8347  ZZZ=              0.1162  XYY=             -6.8325
  XXY=            -32.5772  XXZ=              0.5101  XZZ=             -2.8857  YZZ=              1.8838
  YYZ=              1.5584  XYZ=              1.3764
 Hexadecapole moment (field-independent basis, Debye-Ang**3):
 XXXX=           -819.7866 YYYY=           -501.8815 ZZZZ=            -46.3381 XXXY=             31.2782
 XXXZ=             -3.2189 YYYX=             62.5159 YYYZ=             -5.0723 ZZZX=             -0.2043
 ZZZY=             -0.5179 XXYY=           -159.1851 XXZZ=           -138.5110 YYZZ=           -102.2115
 XXYZ=             -1.7788 YYXZ=             -3.6741 ZZXY=              0.6449
 N-N= 4.709250294514D+02 E-N=-2.165412217012D+03  KE= 5.190307482460D+02
  Exact polarizability:   0.000   0.000   0.000   0.000   0.000   0.000
 Approx polarizability:  92.222   3.642  97.978   0.419   0.688  46.632
 Calling FoFJK, ICntrl=    100147 FMM=F ISym2X=0 I1Cent= 0 IOpClX= 0 NMat=1 NMatS=1 NMatT=0.
 ***** Axes restored to original set *****
 -------------------------------------------------------------------
 Center     Atomic                   Forces (Hartrees/Bohr)
 Number     Number              X              Y              Z
 -------------------------------------------------------------------
      1        7          -0.025118167    0.024724801   -0.007092686
      2        7          -0.016465266    0.016671321   -0.001029318
      3        7           0.013382234   -0.007007088    0.001441343
      4        7           0.005735548   -0.012464433    0.002015723
      5        6          -0.015226267   -0.015351256   -0.001418900
      6        6           0.040164622    0.042324358    0.001051368
      7        8          -0.008816954   -0.016594848   -0.000041500
      8        8          -0.013592913    0.000862592   -0.001975643
      9        1          -0.011372923    0.010581690   -0.004152557
     10        1           0.000010365   -0.000377824   -0.000206655
     11        8          -0.002856888   -0.009155982   -0.003057817
     12        1           0.019969301   -0.051629507    0.010273701
     13        1           0.014187309    0.017416178    0.004192942
 -------------------------------------------------------------------
 Cartesian Forces:  Max     0.051629507 RMS     0.016590958
 FormGI is forming the generalized inverse of G from B-inverse, IUseBI=4.

 GradGradGradGradGradGradGradGradGradGradGradGradGradGradGradGradGradGrad
 Berny optimization.
 Internal  Forces:  Max     0.030132810 RMS     0.009073924
 Search for a saddle point.
 Step number   1 out of a maximum of   70
 All quantities printed in internal units (Hartrees-Bohrs-Radians)
 Swapping is turned off.
 Second derivative matrix not updated -- analytic derivatives used.
 ITU=  0
     Eigenvalues ---   -0.02919  -0.00862  -0.00555   0.00199   0.00315
     Eigenvalues ---    0.00434   0.00714   0.02496   0.03735   0.03895
     Eigenvalues ---    0.04509   0.05122   0.07009   0.07304   0.08740
     Eigenvalues ---    0.10009   0.11253   0.17208   0.20432   0.22522
     Eigenvalues ---    0.25680   0.27932   0.31202   0.33983   0.38064
     Eigenvalues ---    0.39017   0.45582   0.45938   0.53062   0.54770
     Eigenvalues ---    0.59919   0.66494   0.91976
 Eigenvectors required to have negative eigenvalues:
                          R3        R11       R14       R13       A17
   1                    0.44720  -0.43607   0.40922  -0.39652   0.33663
                          A16       A14       A15       A20       A3
   1                   -0.31564  -0.09569  -0.09489   0.08596   0.07724
 RFO step:  Lambda0=3.652149298D-03 Lambda=-2.00891126D-02.
 Linear search not attempted -- option 19 set.
 Maximum step size (   0.300) exceeded in Quadratic search.
    -- Step size scaled by   0.614
 Iteration  1 RMS(Cart)=  0.03497642 RMS(Int)=  0.03140409
 Iteration  2 RMS(Cart)=  0.02174849 RMS(Int)=  0.00863522
 Iteration  3 RMS(Cart)=  0.00117132 RMS(Int)=  0.00848685
 Iteration  4 RMS(Cart)=  0.00001564 RMS(Int)=  0.00848684
 Iteration  5 RMS(Cart)=  0.00000053 RMS(Int)=  0.00848684
 Variable       Old X    -DE/DX   Delta X   Delta X   Delta X     New X
                                 (Linear)    (Quad)   (Total)
    R1        2.50220   0.01512   0.00000   0.00856   0.00759   2.50979
    R2        2.48149   0.00823   0.00000   0.00920   0.00966   2.49115
    R3        2.42373   0.01585   0.00000  -0.01150  -0.00867   2.41506
    R4        2.50023  -0.00948   0.00000  -0.02554  -0.02577   2.47446
    R5        2.74725   0.03013   0.00000   0.09744   0.09342   2.84067
    R6        2.44273   0.01230   0.00000   0.01822   0.01772   2.46045
    R7        2.56918  -0.01144   0.00000  -0.02048  -0.02053   2.54865
    R8        2.03791   0.00036   0.00000  -0.00006  -0.00006   2.03785
    R9        2.28116  -0.01342   0.00000  -0.01380  -0.01380   2.26736
   R10        2.43325  -0.00345   0.00000  -0.03113  -0.03381   2.39944
   R11        2.20743   0.01047   0.00000   0.14015   0.14099   2.34842
   R12        1.83238  -0.01514   0.00000  -0.01388  -0.01388   1.81850
   R13        2.16193  -0.01150   0.00000   0.01864   0.02234   2.18427
   R14        2.18893   0.02614   0.00000  -0.06468  -0.06272   2.12622
    A1        1.77055   0.01374   0.00000   0.02367   0.02225   1.79280
    A2        1.91021  -0.00403   0.00000   0.02189   0.02530   1.93551
    A3        2.57459  -0.00945   0.00000  -0.03656  -0.03931   2.53528
    A4        1.98822  -0.01699   0.00000  -0.02335  -0.02195   1.96627
    A5        2.17831   0.00607   0.00000  -0.00238  -0.00456   2.17374
    A6        2.11665   0.01092   0.00000   0.02572   0.02649   2.14314
    A7        1.85212   0.00920   0.00000   0.01459   0.01412   1.86624
    A8        1.85503   0.00454   0.00000   0.00425   0.00402   1.85904
    A9        1.95886  -0.01049   0.00000  -0.01916  -0.01847   1.94038
   A10        2.16269   0.00516   0.00000   0.00530   0.00492   2.16760
   A11        2.16164   0.00534   0.00000   0.01388   0.01350   2.17514
   A12        2.06249  -0.01277   0.00000  -0.05004  -0.04797   2.01451
   A13        2.01609  -0.00448   0.00000  -0.02524  -0.02941   1.98668
   A14        2.20459   0.01725   0.00000   0.07533   0.07741   2.28200
   A15        2.20911   0.00169   0.00000   0.05058   0.05227   2.26139
   A16        2.39578  -0.00625   0.00000   0.01766  -0.02654   2.36923
   A17        2.44791  -0.00178   0.00000  -0.16013  -0.18169   2.26622
   A18        1.41248   0.00799   0.00000   0.04797   0.03531   1.44779
   A19        2.86815   0.00423   0.00000  -0.02107  -0.01184   2.85631
   A20        2.85931  -0.00659   0.00000  -0.07566  -0.06571   2.79360
    D1        0.00024   0.00128   0.00000   0.00708   0.00749   0.00773
    D2        3.13866   0.00088   0.00000   0.00205   0.00242   3.14108
    D3        2.96372   0.00063   0.00000   0.02891   0.03001   2.99372
    D4       -0.18105   0.00023   0.00000   0.02388   0.02494  -0.15611
    D5       -0.00008  -0.00112   0.00000  -0.00676  -0.00722  -0.00730
    D6        3.14004   0.00078   0.00000   0.00650   0.00589  -3.13725
    D7       -2.82537  -0.00432   0.00000  -0.06776  -0.06665  -2.89202
    D8        0.31475  -0.00243   0.00000  -0.05451  -0.05353   0.26122
    D9        1.53979  -0.00524   0.00000  -0.08807  -0.08352   1.45627
   D10       -1.93103  -0.00045   0.00000  -0.02539  -0.02278  -1.95381
   D11       -0.00031  -0.00098   0.00000  -0.00479  -0.00496  -0.00527
   D12       -3.13885  -0.00058   0.00000   0.00009   0.00007  -3.13879
   D13       -3.12453   0.00113   0.00000  -0.00275  -0.00117  -3.12570
   D14        0.01022   0.00241   0.00000   0.00479   0.00450   0.01472
   D15        0.01366   0.00065   0.00000  -0.00822  -0.00682   0.00684
   D16       -3.13477   0.00193   0.00000  -0.00068  -0.00115  -3.13592
   D17        0.00023   0.00021   0.00000   0.00026   0.00019   0.00042
   D18       -0.00010   0.00061   0.00000   0.00433   0.00464   0.00454
   D19       -3.14022  -0.00128   0.00000  -0.00891  -0.00854   3.13443
   D20        0.06181   0.00047   0.00000  -0.02953  -0.02549   0.03632
   D21       -3.08727   0.00172   0.00000  -0.02189  -0.01939  -3.10667
   D22       -0.16894  -0.00160   0.00000  -0.07311  -0.06369  -0.23263
   D23        1.92246   0.00302   0.00000   0.44147   0.44700   2.36946
   D24       -1.44479   0.00353   0.00000   0.02801   0.02624  -1.41855
   D25       -3.12769  -0.00209   0.00000  -0.27395  -0.24371   2.91179
   D26        0.25366  -0.00150   0.00000   0.11457   0.09585   0.34951
         Item               Value     Threshold  Converged?
 Maximum Force            0.030133     0.000450     NO 
 RMS     Force            0.009074     0.000300     NO 
 Maximum Displacement     0.205820     0.001800     NO 
 RMS     Displacement     0.047482     0.001200     NO 
 Predicted change in Energy=-1.008963D-02
 GradGradGradGradGradGradGradGradGradGradGradGradGradGradGradGradGradGrad

                          Input orientation:                          
 ---------------------------------------------------------------------
 Center     Atomic      Atomic             Coordinates (Angstroms)
 Number     Number       Type             X           Y           Z
 ---------------------------------------------------------------------
      1          7           0       -0.314914   -1.055330    0.044219
      2          7           0       -0.534668    0.253673   -0.002052
      3          7           0       -1.809443    0.550023   -0.043543
      4          7           0       -2.461246   -0.577032   -0.031564
      5          6           0       -1.534362   -1.555447    0.018955
      6          6           0        0.544674    1.299936    0.002949
      7          8           0        0.160666    2.436277   -0.026449
      8          8           0        1.720972    0.823274    0.039358
      9          1           0        2.708689   -2.141768   -0.150235
     10          1           0       -1.757570   -2.610109    0.046923
     11          8           0        2.055043   -1.483902    0.106661
     12          1           0        0.929205   -1.313785   -0.092288
     13          1           0        2.095380   -0.361706    0.035930
 ---------------------------------------------------------------------
                    Distance matrix (angstroms):
                    1          2          3          4          5
     1  N    0.000000
     2  N    1.328126   0.000000
     3  N    2.195102   1.309425   0.000000
     4  N    2.200285   2.098248   1.302015   0.000000
     5  C    1.318259   2.067061   2.124282   1.348689   0.000000
     6  C    2.507562   1.503220   2.471112   3.543974   3.532117
     7  O    3.524555   2.290818   2.727559   3.994306   4.336939
     8  O    2.770200   2.326816   3.541943   4.410990   4.031864
     9  H    3.218748   4.034781   5.260288   5.402843   4.286709
    10  H    2.120991   3.114343   3.161852   2.152841   1.078386
    11  O    2.409206   3.120511   4.369629   4.608513   3.591189
    12  H    1.277994   2.146624   3.313057   3.470109   2.477890
    13  H    2.508127   2.701349   4.010636   4.562210   3.821038
                    6          7          8          9         10
     6  C    0.000000
     7  O    1.199833   0.000000
     8  O    1.269728   2.245142   0.000000
     9  H    4.068384   5.240824   3.130975   0.000000
    10  H    4.537698   5.399169   4.887579   4.495073   0.000000
    11  O    3.168868   4.355937   2.332208   0.962308   3.975919
    12  H    2.643572   3.828571   2.282816   1.963536   2.986402
    13  H    2.273066   3.402311   1.242728   1.891937   4.461015
                   11         12         13
    11  O    0.000000
    12  H    1.155868   0.000000
    13  H    1.125145   1.510913   0.000000
 Stoichiometry    C2H4N4O3
 Framework group  C1[X(C2H4N4O3)]
 Deg. of freedom    33
 Full point group                 C1      NOp   1
 Largest Abelian subgroup         C1      NOp   1
 Largest concise Abelian subgroup C1      NOp   1
                         Standard orientation:                         
 ---------------------------------------------------------------------
 Center     Atomic      Atomic             Coordinates (Angstroms)
 Number     Number       Type             X           Y           Z
 ---------------------------------------------------------------------
      1          7           0        0.479176   -0.973641   -0.021100
      2          7           0        0.366480    0.349520    0.000424
      3          7           0        1.527665    0.954543    0.014227
      4          7           0        2.439487    0.025140    0.008390
      5          6           0        1.784997   -1.153957   -0.009883
      6          6           0       -0.939459    1.093958   -0.001727
      7          8           0       -0.850308    2.290465    0.002709
      8          8           0       -1.960291    0.338940   -0.009362
      9          1           0       -2.175499   -2.774255    0.245029
     10          1           0        2.263527   -2.120236   -0.025129
     11          8           0       -1.709896   -1.979657   -0.034012
     12          1           0       -0.659361   -1.530807    0.141890
     13          1           0       -2.027586   -0.901626    0.019616
 ---------------------------------------------------------------------
 Rotational constants (GHZ):           2.2816640           1.6596355           0.9611724
 Standard basis: 6-31+G(d,p) (6D, 7F)
 There are   191 symmetry adapted cartesian basis functions of A   symmetry.
 There are   191 symmetry adapted basis functions of A   symmetry.
   191 basis functions,   316 primitive gaussians,   191 cartesian basis functions
    34 alpha electrons       34 beta electrons
       nuclear repulsion energy       469.1914251651 Hartrees.
 NAtoms=   13 NActive=   13 NUniq=   13 SFac= 1.00D+00 NAtFMM=   60 NAOKFM=F Big=F
 Integral buffers will be    131072 words long.
 Raffenetti 2 integral format.
 Two-electron integral symmetry is turned on.
 One-electron integrals computed using PRISM.
 NBasis=   191 RedAO= T EigKep=  2.20D-05  NBF=   191
 NBsUse=   191 1.00D-06 EigRej= -1.00D+00 NBFU=   191
 Initial guess from the checkpoint file:  "/scratch/gongke2021/sidanzuo-TS/Gau-10838.chk"
 B after Tr=     0.000000    0.000000   -0.000000
         Rot=    0.999906    0.000023    0.000018   -0.013693 Ang=   1.57 deg.
 ExpMin= 4.38D-02 ExpMax= 5.48D+03 ExpMxC= 8.25D+02 IAcc=2 IRadAn=         4 AccDes= 0.00D+00
 Harris functional with IExCor= 1009 and IRadAn=       4 diagonalized for initial guess.
 HarFok:  IExCor= 1009 AccDes= 0.00D+00 IRadAn=         4 IDoV= 1 UseB2=F ITyADJ=14
 ICtDFT=  3500011 ScaDFX=  1.000000  1.000000  1.000000  1.000000
 FoFCou: FMM=F IPFlag=           0 FMFlag=      100000 FMFlg1=           0
         NFxFlg=           0 DoJE=T BraDBF=F KetDBF=T FulRan=T
         wScrn=  0.000000 ICntrl=       500 IOpCl=  0 I1Cent=   200000004 NGrid=           0
         NMat0=    1 NMatS0=      1 NMatT0=    0 NMatD0=    1 NMtDS0=    0 NMtDT0=    0
 Petite list used in FoFCou.
 Requested convergence on RMS density matrix=1.00D-08 within 128 cycles.
 Requested convergence on MAX density matrix=1.00D-06.
 Requested convergence on             energy=1.00D-06.
 No special actions if energy rises.
 SCF Done:  E(RM062X) =  -523.050070013     A.U. after   13 cycles
            NFock= 13  Conv=0.59D-08     -V/T= 2.0078
 Calling FoFJK, ICntrl=      2127 FMM=F ISym2X=0 I1Cent= 0 IOpClX= 0 NMat=1 NMatS=1 NMatT=0.
 ***** Axes restored to original set *****
 -------------------------------------------------------------------
 Center     Atomic                   Forces (Hartrees/Bohr)
 Number     Number              X              Y              Z
 -------------------------------------------------------------------
      1        7          -0.010717434    0.019984733   -0.008469750
      2        7          -0.010011184    0.004415726   -0.000048727
      3        7           0.005119092   -0.002852205    0.000821322
      4        7           0.001606253   -0.005399270    0.001189125
      5        6          -0.006176181   -0.007100678    0.000129827
      6        6           0.020288251    0.022635246    0.000326105
      7        8          -0.004287487   -0.006594114    0.000019791
      8        8          -0.006011171    0.001898393   -0.001893587
      9        1          -0.005216196    0.004733207   -0.006606434
     10        1           0.000059844   -0.000197920   -0.000437059
     11        8          -0.002132945    0.004990711    0.003552904
     12        1           0.008085148   -0.042204004    0.008446611
     13        1           0.009394011    0.005690177    0.002969872
 -------------------------------------------------------------------
 Cartesian Forces:  Max     0.042204004 RMS     0.010221432

 GradGradGradGradGradGradGradGradGradGradGradGradGradGradGradGradGradGrad
 Berny optimization.
 FormGI is forming the generalized inverse of G from B-inverse, IUseBI=4.
 Internal  Forces:  Max     0.018383187 RMS     0.004663629
 Search for a saddle point.
 Step number   2 out of a maximum of   70
 All quantities printed in internal units (Hartrees-Bohrs-Radians)
 Swapping is turned off.
 Update second derivatives using D2CorX and points    1    2
 ITU=  0  0
     Eigenvalues ---   -0.02861  -0.00767  -0.00421   0.00198   0.00315
     Eigenvalues ---    0.00434   0.00713   0.02494   0.03538   0.03854
     Eigenvalues ---    0.04418   0.05106   0.07008   0.07285   0.08736
     Eigenvalues ---    0.10004   0.11252   0.17182   0.20258   0.22481
     Eigenvalues ---    0.25676   0.27929   0.31120   0.33977   0.38014
     Eigenvalues ---    0.39006   0.45578   0.45930   0.53070   0.54758
     Eigenvalues ---    0.59908   0.66470   0.91973
 Eigenvectors required to have negative eigenvalues:
                          R3        R11       R14       R13       A17
   1                    0.44679  -0.44574   0.41288  -0.39522   0.29353
                          A16       D25       A20       A14       A15
   1                   -0.28100  -0.11142   0.09860  -0.09838  -0.09561
 RFO step:  Lambda0=8.501659682D-04 Lambda=-1.43116711D-02.
 Linear search not attempted -- option 19 set.
 Maximum step size (   0.300) exceeded in Quadratic search.
    -- Step size scaled by   0.667
 Iteration  1 RMS(Cart)=  0.04325820 RMS(Int)=  0.03571130
 Iteration  2 RMS(Cart)=  0.03016973 RMS(Int)=  0.01175888
 Iteration  3 RMS(Cart)=  0.00252288 RMS(Int)=  0.01136816
 Iteration  4 RMS(Cart)=  0.00001344 RMS(Int)=  0.01136814
 Iteration  5 RMS(Cart)=  0.00000047 RMS(Int)=  0.01136814
 Variable       Old X    -DE/DX   Delta X   Delta X   Delta X     New X
                                 (Linear)    (Quad)   (Total)
    R1        2.50979   0.00725   0.00000   0.00396   0.00280   2.51259
    R2        2.49115   0.00378   0.00000   0.00645   0.00703   2.49818
    R3        2.41506   0.00877   0.00000   0.02066   0.02503   2.44009
    R4        2.47446  -0.00304   0.00000  -0.01188  -0.01217   2.46228
    R5        2.84067   0.01838   0.00000   0.07175   0.06650   2.90717
    R6        2.46045   0.00581   0.00000   0.00996   0.00932   2.46977
    R7        2.54865  -0.00435   0.00000  -0.00925  -0.00933   2.53932
    R8        2.03785   0.00017   0.00000   0.00004   0.00004   2.03789
    R9        2.26736  -0.00487   0.00000  -0.00726  -0.00726   2.26009
   R10        2.39944   0.00044   0.00000  -0.02270  -0.02622   2.37322
   R11        2.34842   0.00765   0.00000   0.12616   0.12694   2.47536
   R12        1.81850  -0.00502   0.00000  -0.00065  -0.00065   1.81785
   R13        2.18427  -0.00604   0.00000   0.00459   0.00886   2.19313
   R14        2.12622   0.01233   0.00000  -0.05906  -0.05633   2.06988
    A1        1.79280   0.00606   0.00000   0.00873   0.00707   1.79987
    A2        1.93551  -0.00121   0.00000   0.01081   0.01742   1.95293
    A3        2.53528  -0.00459   0.00000  -0.01356  -0.01888   2.51640
    A4        1.96627  -0.00774   0.00000  -0.00938  -0.00766   1.95862
    A5        2.17374   0.00257   0.00000  -0.00465  -0.00730   2.16644
    A6        2.14314   0.00516   0.00000   0.01408   0.01498   2.15812
    A7        1.86624   0.00420   0.00000   0.00725   0.00665   1.87289
    A8        1.85904   0.00182   0.00000   0.00024  -0.00009   1.85896
    A9        1.94038  -0.00434   0.00000  -0.00687  -0.00600   1.93439
   A10        2.16760   0.00209   0.00000   0.00151   0.00107   2.16867
   A11        2.17514   0.00225   0.00000   0.00529   0.00485   2.17998
   A12        2.01451  -0.00569   0.00000  -0.02745  -0.02476   1.98975
   A13        1.98668  -0.00262   0.00000  -0.02603  -0.03142   1.95526
   A14        2.28200   0.00831   0.00000   0.05349   0.05618   2.33817
   A15        2.26139   0.00065   0.00000   0.04126   0.04331   2.30470
   A16        2.36923  -0.00547   0.00000  -0.14914  -0.19044   2.17879
   A17        2.26622  -0.00198   0.00000  -0.17178  -0.21802   2.04820
   A18        1.44779   0.00466   0.00000   0.00029  -0.01603   1.43177
   A19        2.85631   0.00179   0.00000   0.02062   0.03022   2.88653
   A20        2.79360  -0.00364   0.00000  -0.04366  -0.02675   2.76684
    D1        0.00773   0.00044   0.00000   0.00304   0.00195   0.00967
    D2        3.14108   0.00014   0.00000   0.01078   0.00775  -3.13436
    D3        2.99372   0.00086   0.00000   0.02444   0.02352   3.01724
    D4       -0.15611   0.00055   0.00000   0.03218   0.02932  -0.12679
    D5       -0.00730  -0.00038   0.00000  -0.00299  -0.00179  -0.00909
    D6       -3.13725   0.00046   0.00000   0.00350   0.00404  -3.13321
    D7       -2.89202  -0.00270   0.00000  -0.04504  -0.04520  -2.93722
    D8        0.26122  -0.00186   0.00000  -0.03855  -0.03937   0.22185
    D9        1.45627  -0.00386   0.00000   0.00547  -0.00025   1.45602
   D10       -1.95381  -0.00093   0.00000   0.04892   0.04401  -1.90980
   D11       -0.00527  -0.00034   0.00000  -0.00196  -0.00138  -0.00665
   D12       -3.13879  -0.00003   0.00000  -0.00944  -0.00703   3.13737
   D13       -3.12570   0.00062   0.00000   0.00612   0.00867  -3.11703
   D14        0.01472   0.00123   0.00000   0.01304   0.01182   0.02654
   D15        0.00684   0.00023   0.00000   0.01450   0.01501   0.02185
   D16       -3.13592   0.00084   0.00000   0.02142   0.01815  -3.11777
   D17        0.00042   0.00011   0.00000   0.00001   0.00021   0.00063
   D18        0.00454   0.00017   0.00000   0.00194   0.00102   0.00556
   D19        3.13443  -0.00067   0.00000  -0.00462  -0.00489   3.12954
   D20        0.03632  -0.00001   0.00000  -0.02349  -0.01679   0.01952
   D21       -3.10667   0.00071   0.00000  -0.01532  -0.01290  -3.11956
   D22       -0.23263  -0.00141   0.00000  -0.09184  -0.08335  -0.31598
   D23        2.36946   0.00499   0.00000   0.42048   0.38781   2.75727
   D24       -1.41855   0.00220   0.00000  -0.06750  -0.04970  -1.46825
   D25        2.91179  -0.00437   0.00000  -0.32373  -0.29359   2.61820
   D26        0.34951   0.00064   0.00000   0.10571   0.08283   0.43234
         Item               Value     Threshold  Converged?
 Maximum Force            0.018383     0.000450     NO 
 RMS     Force            0.004664     0.000300     NO 
 Maximum Displacement     0.340207     0.001800     NO 
 RMS     Displacement     0.067170     0.001200     NO 
 Predicted change in Energy=-8.048943D-03
 GradGradGradGradGradGradGradGradGradGradGradGradGradGradGradGradGradGrad

                          Input orientation:                          
 ---------------------------------------------------------------------
 Center     Atomic      Atomic             Coordinates (Angstroms)
 Number     Number       Type             X           Y           Z
 ---------------------------------------------------------------------
      1          7           0       -0.317305   -1.046137    0.066739
      2          7           0       -0.540841    0.262495   -0.006532
      3          7           0       -1.811365    0.541996   -0.080113
      4          7           0       -2.460539   -0.592220   -0.064853
      5          6           0       -1.533847   -1.561492    0.021307
      6          6           0        0.567801    1.329077   -0.001982
      7          8           0        0.161786    2.453069   -0.048674
      8          8           0        1.713549    0.817323    0.048400
      9          1           0        2.647388   -2.055211   -0.330264
     10          1           0       -1.747756   -2.617547    0.065473
     11          8           0        2.064781   -1.514226    0.211289
     12          1           0        0.941254   -1.324626   -0.009233
     13          1           0        2.117521   -0.428397    0.077308
 ---------------------------------------------------------------------
                    Distance matrix (angstroms):
                    1          2          3          4          5
     1  N    0.000000
     2  N    1.329606   0.000000
     3  N    2.185394   1.302983   0.000000
     4  N    2.194723   2.102184   1.306944   0.000000
     5  C    1.321980   2.076960   2.124138   1.343752   0.000000
     6  C    2.535700   1.538411   2.507196   3.586945   3.573914
     7  O    3.533736   2.300887   2.747092   4.018785   4.358529
     8  O    2.756299   2.322310   3.537984   4.407112   4.025553
     9  H    3.156778   3.954917   5.166095   5.319934   4.224936
    10  H    2.124976   3.123535   3.163535   2.151045   1.078406
    11  O    2.431940   3.161241   4.397438   4.626539   3.603949
    12  H    1.291239   2.171535   3.326591   3.480187   2.486596
    13  H    2.511989   2.747953   4.050010   4.583195   3.823549
                    6          7          8          9         10
     6  C    0.000000
     7  O    1.195988   0.000000
     8  O    1.255853   2.256780   0.000000
     9  H    3.985707   5.155784   3.044158   0.000000
    10  H    4.576265   5.419459   4.876398   4.448609   0.000000
    11  O    3.220373   4.407766   2.363476   0.961965   3.971652
    12  H    2.679862   3.857474   2.277654   1.883537   2.984627
    13  H    2.344489   3.484770   1.309903   1.758806   4.442171
                   11         12         13
    11  O    0.000000
    12  H    1.160556   0.000000
    13  H    1.095334   1.481324   0.000000
 Stoichiometry    C2H4N4O3
 Framework group  C1[X(C2H4N4O3)]
 Deg. of freedom    33
 Full point group                 C1      NOp   1
 Largest Abelian subgroup         C1      NOp   1
 Largest concise Abelian subgroup C1      NOp   1
                         Standard orientation:                         
 ---------------------------------------------------------------------
 Center     Atomic      Atomic             Coordinates (Angstroms)
 Number     Number       Type             X           Y           Z
 ---------------------------------------------------------------------
      1          7           0        0.487890   -0.959883   -0.026887
      2          7           0        0.368282    0.364103   -0.002249
      3          7           0        1.525247    0.963084    0.018221
      4          7           0        2.444286    0.033856    0.015651
      5          6           0        1.796926   -1.143446   -0.007900
      6          6           0       -0.977607    1.109281   -0.001329
      7          8           0       -0.874047    2.300775   -0.003857
      8          8           0       -1.953581    0.318957    0.004254
      9          1           0       -2.105196   -2.679980    0.504540
     10          1           0        2.274670   -2.110075   -0.026593
     11          8           0       -1.695879   -2.029137   -0.073594
     12          1           0       -0.653936   -1.548971    0.101584
     13          1           0       -2.023326   -0.988868    0.028266
 ---------------------------------------------------------------------
 Rotational constants (GHZ):           2.2433983           1.6531945           0.9530791
 Standard basis: 6-31+G(d,p) (6D, 7F)
 There are   191 symmetry adapted cartesian basis functions of A   symmetry.
 There are   191 symmetry adapted basis functions of A   symmetry.
   191 basis functions,   316 primitive gaussians,   191 cartesian basis functions
    34 alpha electrons       34 beta electrons
       nuclear repulsion energy       467.7481465247 Hartrees.
 NAtoms=   13 NActive=   13 NUniq=   13 SFac= 1.00D+00 NAtFMM=   60 NAOKFM=F Big=F
 Integral buffers will be    131072 words long.
 Raffenetti 2 integral format.
 Two-electron integral symmetry is turned on.
 One-electron integrals computed using PRISM.
 NBasis=   191 RedAO= T EigKep=  2.16D-05  NBF=   191
 NBsUse=   191 1.00D-06 EigRej= -1.00D+00 NBFU=   191
 Initial guess from the checkpoint file:  "/scratch/gongke2021/sidanzuo-TS/Gau-10838.chk"
 B after Tr=    -0.000000   -0.000000    0.000000
         Rot=    0.999989    0.000427   -0.000119   -0.004572 Ang=   0.53 deg.
 ExpMin= 4.38D-02 ExpMax= 5.48D+03 ExpMxC= 8.25D+02 IAcc=2 IRadAn=         4 AccDes= 0.00D+00
 Harris functional with IExCor= 1009 and IRadAn=       4 diagonalized for initial guess.
 HarFok:  IExCor= 1009 AccDes= 0.00D+00 IRadAn=         4 IDoV= 1 UseB2=F ITyADJ=14
 ICtDFT=  3500011 ScaDFX=  1.000000  1.000000  1.000000  1.000000
 FoFCou: FMM=F IPFlag=           0 FMFlag=      100000 FMFlg1=           0
         NFxFlg=           0 DoJE=T BraDBF=F KetDBF=T FulRan=T
         wScrn=  0.000000 ICntrl=       500 IOpCl=  0 I1Cent=   200000004 NGrid=           0
         NMat0=    1 NMatS0=      1 NMatT0=    0 NMatD0=    1 NMtDS0=    0 NMtDT0=    0
 Petite list used in FoFCou.
 Requested convergence on RMS density matrix=1.00D-08 within 128 cycles.
 Requested convergence on MAX density matrix=1.00D-06.
 Requested convergence on             energy=1.00D-06.
 No special actions if energy rises.
 SCF Done:  E(RM062X) =  -523.057208832     A.U. after   13 cycles
            NFock= 13  Conv=0.60D-08     -V/T= 2.0078
 Calling FoFJK, ICntrl=      2127 FMM=F ISym2X=0 I1Cent= 0 IOpClX= 0 NMat=1 NMatS=1 NMatT=0.
 ***** Axes restored to original set *****
 -------------------------------------------------------------------
 Center     Atomic                   Forces (Hartrees/Bohr)
 Number     Number              X              Y              Z
 -------------------------------------------------------------------
      1        7          -0.004523618    0.015976921   -0.008054718
      2        7          -0.007434434    0.000480818    0.000108435
      3        7           0.001982833   -0.001043662    0.000440108
      4        7          -0.000064086   -0.003031337    0.000821661
      5        6          -0.002258292   -0.003976488    0.000947602
      6        6           0.007626054    0.013480315   -0.000274893
      7        8          -0.001897903   -0.001804507    0.000053253
      8        8           0.002052982    0.001965179   -0.002093174
      9        1          -0.002776784    0.001077215   -0.004865592
     10        1           0.000030949   -0.000147743   -0.000490742
     11        8          -0.000010278    0.009186761   -0.000642182
     12        1           0.001280146   -0.034929669    0.008343728
     13        1           0.005992431    0.002766197    0.005706515
 -------------------------------------------------------------------
 Cartesian Forces:  Max     0.034929669 RMS     0.007471934

 GradGradGradGradGradGradGradGradGradGradGradGradGradGradGradGradGradGrad
 Berny optimization.
 FormGI is forming the generalized inverse of G from B-inverse, IUseBI=4.
 Internal  Forces:  Max     0.013389417 RMS     0.003028583
 Search for a saddle point.
 Step number   3 out of a maximum of   70
 All quantities printed in internal units (Hartrees-Bohrs-Radians)
 Swapping is turned off.
 Update second derivatives using D2CorX and points    2    3
 ITU=  0  0  0
     Eigenvalues ---   -0.02717  -0.00519   0.00177   0.00281   0.00355
     Eigenvalues ---    0.00519   0.00727   0.02490   0.03240   0.03830
     Eigenvalues ---    0.04215   0.05068   0.07005   0.07251   0.08704
     Eigenvalues ---    0.09979   0.11251   0.17170   0.20224   0.22461
     Eigenvalues ---    0.25677   0.27919   0.31148   0.34007   0.38089
     Eigenvalues ---    0.39014   0.45573   0.45915   0.53100   0.54851
     Eigenvalues ---    0.59912   0.66488   0.92018
 Eigenvectors required to have negative eigenvalues:
                          R3        R11       R14       R13       A16
   1                   -0.45030   0.44122  -0.40937   0.39149   0.28941
                          A17       D25       D26       A20       D24
   1                   -0.22055   0.18652  -0.12605  -0.11162  -0.09682
 RFO step:  Lambda0=5.324729466D-04 Lambda=-8.34252108D-03.
 Linear search not attempted -- option 19 set.
 Maximum step size (   0.300) exceeded in Quadratic search.
    -- Step size scaled by   0.720
 Iteration  1 RMS(Cart)=  0.04323566 RMS(Int)=  0.04173568
 Iteration  2 RMS(Cart)=  0.01964129 RMS(Int)=  0.00380747
 Iteration  3 RMS(Cart)=  0.00154714 RMS(Int)=  0.00348330
 Iteration  4 RMS(Cart)=  0.00000527 RMS(Int)=  0.00348329
 Iteration  5 RMS(Cart)=  0.00000002 RMS(Int)=  0.00348329
 Variable       Old X    -DE/DX   Delta X   Delta X   Delta X     New X
                                 (Linear)    (Quad)   (Total)
    R1        2.51259   0.00445   0.00000   0.00015   0.00392   2.51651
    R2        2.49818   0.00166   0.00000   0.00403   0.00497   2.50315
    R3        2.44009   0.00505   0.00000  -0.01132  -0.00698   2.43311
    R4        2.46228  -0.00060   0.00000  -0.00800  -0.00802   2.45426
    R5        2.90717   0.01339   0.00000   0.07493   0.07306   2.98024
    R6        2.46977   0.00361   0.00000   0.01131   0.00978   2.47954
    R7        2.53932  -0.00168   0.00000  -0.00691  -0.00780   2.53152
    R8        2.03789   0.00012   0.00000   0.00017   0.00017   2.03807
    R9        2.26009  -0.00105   0.00000  -0.00343  -0.00343   2.25666
   R10        2.37322   0.00562   0.00000  -0.00958  -0.01401   2.35920
   R11        2.47536   0.00579   0.00000   0.14548   0.14270   2.61805
   R12        1.81785   0.00045   0.00000   0.00744   0.00744   1.82529
   R13        2.19313  -0.00290   0.00000   0.04015   0.04443   2.23757
   R14        2.06988   0.00765   0.00000  -0.08961  -0.09092   1.97896
    A1        1.79987   0.00329   0.00000   0.01221   0.00954   1.80942
    A2        1.95293   0.00016   0.00000   0.05537   0.06504   2.01797
    A3        2.51640  -0.00325   0.00000  -0.05620  -0.06525   2.45115
    A4        1.95862  -0.00428   0.00000  -0.01101  -0.01102   1.94760
    A5        2.16644   0.00108   0.00000  -0.00353   0.00030   2.16675
    A6        2.15812   0.00319   0.00000   0.01445   0.00981   2.16793
    A7        1.87289   0.00213   0.00000   0.00719   0.00808   1.88097
    A8        1.85896   0.00081   0.00000  -0.00071  -0.00100   1.85796
    A9        1.93439  -0.00195   0.00000  -0.00763  -0.00557   1.92882
   A10        2.16867   0.00095   0.00000   0.00265   0.00161   2.17028
   A11        2.17998   0.00100   0.00000   0.00508   0.00404   2.18402
   A12        1.98975  -0.00221   0.00000  -0.02411  -0.02300   1.96675
   A13        1.95526  -0.00100   0.00000  -0.01839  -0.02067   1.93459
   A14        2.33817   0.00321   0.00000   0.04253   0.04365   2.38183
   A15        2.30470  -0.00185   0.00000   0.01627   0.01355   2.31825
   A16        2.17879  -0.00474   0.00000  -0.09294  -0.09286   2.08593
   A17        2.04820  -0.00129   0.00000  -0.10560  -0.11076   1.93743
   A18        1.43177   0.00355   0.00000   0.07077   0.08278   1.51454
   A19        2.88653   0.00175   0.00000  -0.11672  -0.11593   2.77059
   A20        2.76684  -0.00155   0.00000  -0.02386  -0.01637   2.75047
    D1        0.00967   0.00004   0.00000  -0.00459  -0.00456   0.00511
    D2       -3.13436  -0.00034   0.00000  -0.04601  -0.04622   3.10260
    D3        3.01724   0.00062   0.00000   0.04254   0.04728   3.06452
    D4       -0.12679   0.00024   0.00000   0.00111   0.00562  -0.12117
    D5       -0.00909   0.00001   0.00000   0.00516   0.00516  -0.00393
    D6       -3.13321   0.00035   0.00000  -0.00103  -0.00118  -3.13439
    D7       -2.93722  -0.00192   0.00000  -0.09230  -0.09183  -3.02905
    D8        0.22185  -0.00158   0.00000  -0.09849  -0.09817   0.12368
    D9        1.45602  -0.00318   0.00000  -0.28541  -0.28517   1.17085
   D10       -1.90980  -0.00099   0.00000  -0.18729  -0.18651  -2.09631
   D11       -0.00665  -0.00007   0.00000   0.00230   0.00225  -0.00439
   D12        3.13737   0.00031   0.00000   0.04353   0.04396  -3.10185
   D13       -3.11703   0.00064   0.00000  -0.03804  -0.03636   3.12979
   D14        0.02654   0.00072   0.00000  -0.04794  -0.04396  -0.01742
   D15        0.02185   0.00020   0.00000  -0.08414  -0.08324  -0.06139
   D16       -3.11777   0.00028   0.00000  -0.09404  -0.09084   3.07458
   D17        0.00063   0.00009   0.00000   0.00107   0.00110   0.00173
   D18        0.00556  -0.00007   0.00000  -0.00410  -0.00408   0.00148
   D19        3.12954  -0.00041   0.00000   0.00211   0.00230   3.13183
   D20        0.01952   0.00045   0.00000  -0.01196  -0.01244   0.00709
   D21       -3.11956   0.00057   0.00000  -0.02439  -0.02247   3.14115
   D22       -0.31598  -0.00091   0.00000   0.11157   0.10593  -0.21005
   D23        2.75727   0.00256   0.00000   0.38646   0.38191   3.13918
   D24       -1.46825   0.00251   0.00000   0.28687   0.28561  -1.18264
   D25        2.61820  -0.00400   0.00000  -0.11525  -0.11605   2.50215
   D26        0.43234  -0.00024   0.00000  -0.02639  -0.03262   0.39972
         Item               Value     Threshold  Converged?
 Maximum Force            0.013389     0.000450     NO 
 RMS     Force            0.003029     0.000300     NO 
 Maximum Displacement     0.136612     0.001800     NO 
 RMS     Displacement     0.046117     0.001200     NO 
 Predicted change in Energy=-5.665447D-03
 GradGradGradGradGradGradGradGradGradGradGradGradGradGradGradGradGradGrad

                          Input orientation:                          
 ---------------------------------------------------------------------
 Center     Atomic      Atomic             Coordinates (Angstroms)
 Number     Number       Type             X           Y           Z
 ---------------------------------------------------------------------
      1          7           0       -0.320339   -1.040173    0.009428
      2          7           0       -0.544636    0.271676   -0.036585
      3          7           0       -1.815499    0.539144   -0.046221
      4          7           0       -2.464882   -0.600497   -0.011919
      5          6           0       -1.536279   -1.565486    0.021000
      6          6           0        0.591568    1.365213   -0.017092
      7          8           0        0.161436    2.477476   -0.079615
      8          8           0        1.718129    0.833842    0.067180
      9          1           0        2.657816   -1.987588   -0.338456
     10          1           0       -1.741725   -2.623423    0.062496
     11          8           0        2.048263   -1.523336    0.249661
     12          1           0        0.914418   -1.396918   -0.067253
     13          1           0        2.134157   -0.485826    0.136243
 ---------------------------------------------------------------------
                    Distance matrix (angstroms):
                    1          2          3          4          5
     1  N    0.000000
     2  N    1.331681   0.000000
     3  N    2.175510   1.298740   0.000000
     4  N    2.189254   2.109179   1.312119   0.000000
     5  C    1.324612   2.088501   2.124136   1.339624   0.000000
     6  C    2.572579   1.577074   2.545037   3.633996   3.621904
     7  O    3.551604   2.316451   2.768848   4.046733   4.386104
     8  O    2.769588   2.333860   3.547708   4.422800   4.043523
     9  H    3.144523   3.930789   5.145904   5.317206   4.230581
    10  H    2.128340   3.134396   3.165294   2.149587   1.078498
    11  O    2.429287   3.166565   4.389764   4.613950   3.592076
    12  H    1.287545   2.216751   3.346823   3.472322   2.458073
    13  H    2.519511   2.789196   4.084561   4.602854   3.827669
                    6          7          8          9         10
     6  C    0.000000
     7  O    1.194174   0.000000
     8  O    1.248437   2.268562   0.000000
     9  H    3.951446   5.122080   3.001336   0.000000
    10  H    4.621667   5.446227   4.891144   4.463296   0.000000
    11  O    3.246049   4.435656   2.387169   0.965902   3.950852
    12  H    2.781387   3.946905   2.374934   1.860612   2.928523
    13  H    2.414423   3.566424   1.385414   1.659773   4.426875
                   11         12         13
    11  O    0.000000
    12  H    1.184070   0.000000
    13  H    1.047220   1.535989   0.000000
 Stoichiometry    C2H4N4O3
 Framework group  C1[X(C2H4N4O3)]
 Deg. of freedom    33
 Full point group                 C1      NOp   1
 Largest Abelian subgroup         C1      NOp   1
 Largest concise Abelian subgroup C1      NOp   1
                         Standard orientation:                         
 ---------------------------------------------------------------------
 Center     Atomic      Atomic             Coordinates (Angstroms)
 Number     Number       Type             X           Y           Z
 ---------------------------------------------------------------------
      1          7           0        0.522018   -0.940474    0.038288
      2          7           0        0.358678    0.381112    0.028044
      3          7           0        1.497967    1.003107   -0.015179
      4          7           0        2.448014    0.098192   -0.029137
      5          6           0        1.837327   -1.093647    0.005122
      6          6           0       -1.045156    1.099406    0.006430
      7          8           0       -0.953468    2.290037    0.013119
      8          8           0       -1.971701    0.263098   -0.019983
      9          1           0       -2.047148   -2.688031    0.521460
     10          1           0        2.338716   -2.048467   -0.004052
     11          8           0       -1.610603   -2.095116   -0.103717
     12          1           0       -0.555051   -1.633581    0.169809
     13          1           0       -1.990109   -1.122181   -0.025993
 ---------------------------------------------------------------------
 Rotational constants (GHZ):           2.2157913           1.6435093           0.9454198
 Standard basis: 6-31+G(d,p) (6D, 7F)
 There are   191 symmetry adapted cartesian basis functions of A   symmetry.
 There are   191 symmetry adapted basis functions of A   symmetry.
   191 basis functions,   316 primitive gaussians,   191 cartesian basis functions
    34 alpha electrons       34 beta electrons
       nuclear repulsion energy       466.0137685777 Hartrees.
 NAtoms=   13 NActive=   13 NUniq=   13 SFac= 1.00D+00 NAtFMM=   60 NAOKFM=F Big=F
 Integral buffers will be    131072 words long.
 Raffenetti 2 integral format.
 Two-electron integral symmetry is turned on.
 One-electron integrals computed using PRISM.
 NBasis=   191 RedAO= T EigKep=  2.17D-05  NBF=   191
 NBsUse=   191 1.00D-06 EigRej= -1.00D+00 NBFU=   191
 Initial guess from the checkpoint file:  "/scratch/gongke2021/sidanzuo-TS/Gau-10838.chk"
 B after Tr=     0.000000   -0.000000   -0.000000
         Rot=    0.999869    0.000266    0.000134   -0.016183 Ang=   1.85 deg.
 ExpMin= 4.38D-02 ExpMax= 5.48D+03 ExpMxC= 8.25D+02 IAcc=2 IRadAn=         4 AccDes= 0.00D+00
 Harris functional with IExCor= 1009 and IRadAn=       4 diagonalized for initial guess.
 HarFok:  IExCor= 1009 AccDes= 0.00D+00 IRadAn=         4 IDoV= 1 UseB2=F ITyADJ=14
 ICtDFT=  3500011 ScaDFX=  1.000000  1.000000  1.000000  1.000000
 FoFCou: FMM=F IPFlag=           0 FMFlag=      100000 FMFlg1=           0
         NFxFlg=           0 DoJE=T BraDBF=F KetDBF=T FulRan=T
         wScrn=  0.000000 ICntrl=       500 IOpCl=  0 I1Cent=   200000004 NGrid=           0
         NMat0=    1 NMatS0=      1 NMatT0=    0 NMatD0=    1 NMtDS0=    0 NMtDT0=    0
 Petite list used in FoFCou.
 Requested convergence on RMS density matrix=1.00D-08 within 128 cycles.
 Requested convergence on MAX density matrix=1.00D-06.
 Requested convergence on             energy=1.00D-06.
 No special actions if energy rises.
 SCF Done:  E(RM062X) =  -523.061556722     A.U. after   13 cycles
            NFock= 13  Conv=0.78D-08     -V/T= 2.0079
 Calling FoFJK, ICntrl=      2127 FMM=F ISym2X=0 I1Cent= 0 IOpClX= 0 NMat=1 NMatS=1 NMatT=0.
 ***** Axes restored to original set *****
 -------------------------------------------------------------------
 Center     Atomic                   Forces (Hartrees/Bohr)
 Number     Number              X              Y              Z
 -------------------------------------------------------------------
      1        7          -0.000060477    0.008264055   -0.008463734
      2        7          -0.004783357   -0.004174570   -0.000231159
      3        7           0.000170162   -0.000353110    0.000863298
      4        7          -0.000692716   -0.000739192    0.000483434
      5        6          -0.000216726   -0.000776358   -0.000044876
      6        6           0.006289132    0.008701232    0.000639859
      7        8          -0.000722625   -0.001277008   -0.000319142
      8        8          -0.000768230    0.004057465   -0.002674550
      9        1          -0.001800533   -0.000790353   -0.000240447
     10        1           0.000035734   -0.000077134   -0.000463917
     11        8           0.003876750   -0.005254584   -0.010759466
     12        1          -0.002522717   -0.016440045    0.014160148
     13        1           0.001195603    0.008859604    0.007050551
 -------------------------------------------------------------------
 Cartesian Forces:  Max     0.016440045 RMS     0.005297735

 GradGradGradGradGradGradGradGradGradGradGradGradGradGradGradGradGradGrad
 Berny optimization.
 FormGI is forming the generalized inverse of G from B-inverse, IUseBI=4.
 Internal  Forces:  Max     0.013040069 RMS     0.002462257
 Search for a saddle point.
 Step number   4 out of a maximum of   70
 All quantities printed in internal units (Hartrees-Bohrs-Radians)
 Swapping is turned off.
 Update second derivatives using D2CorX and points    3    4
 ITU=  0  0  0  0
     Eigenvalues ---   -0.02646  -0.00435   0.00163   0.00296   0.00420
     Eigenvalues ---    0.00699   0.00854   0.02486   0.03286   0.03878
     Eigenvalues ---    0.04346   0.05035   0.06999   0.07197   0.08609
     Eigenvalues ---    0.09980   0.11251   0.17125   0.20183   0.22422
     Eigenvalues ---    0.25695   0.27940   0.31362   0.33988   0.38108
     Eigenvalues ---    0.39021   0.45532   0.45855   0.53101   0.54841
     Eigenvalues ---    0.59905   0.66473   0.92012
 Eigenvectors required to have negative eigenvalues:
                          R3        R11       R14       R13       A16
   1                    0.45662  -0.42527   0.39183  -0.37896  -0.31119
                          A17       D25       D24       A20       A19
   1                    0.19919  -0.19557   0.15274   0.12560  -0.11947
 RFO step:  Lambda0=7.190696828D-04 Lambda=-6.56751158D-03.
 Linear search not attempted -- option 19 set.
 Maximum step size (   0.300) exceeded in Quadratic search.
    -- Step size scaled by   0.773
 Iteration  1 RMS(Cart)=  0.05169114 RMS(Int)=  0.01926371
 Iteration  2 RMS(Cart)=  0.00716342 RMS(Int)=  0.00333315
 Iteration  3 RMS(Cart)=  0.00028534 RMS(Int)=  0.00332185
 Iteration  4 RMS(Cart)=  0.00000133 RMS(Int)=  0.00332185
 Iteration  5 RMS(Cart)=  0.00000001 RMS(Int)=  0.00332185
 Variable       Old X    -DE/DX   Delta X   Delta X   Delta X     New X
                                 (Linear)    (Quad)   (Total)
    R1        2.51651   0.00146   0.00000  -0.00305  -0.00166   2.51486
    R2        2.50315   0.00048   0.00000   0.00214   0.00260   2.50575
    R3        2.43311   0.00130   0.00000  -0.13079  -0.12929   2.30382
    R4        2.45426   0.00047   0.00000  -0.00789  -0.00794   2.44632
    R5        2.98024   0.00913   0.00000   0.06463   0.06399   3.04423
    R6        2.47954   0.00083   0.00000   0.00910   0.00840   2.48794
    R7        2.53152  -0.00029   0.00000  -0.00633  -0.00669   2.52483
    R8        2.03807   0.00005   0.00000   0.00002   0.00002   2.03808
    R9        2.25666  -0.00091   0.00000  -0.00428  -0.00428   2.25239
   R10        2.35920   0.00094   0.00000  -0.01207  -0.01354   2.34567
   R11        2.61805   0.00515   0.00000   0.08201   0.08112   2.69917
   R12        1.82529  -0.00061   0.00000  -0.00243  -0.00243   1.82286
   R13        2.23757  -0.00082   0.00000   0.10589   0.10723   2.34480
   R14        1.97896   0.01304   0.00000  -0.01775  -0.01811   1.96085
    A1        1.80942   0.00069   0.00000   0.01282   0.01154   1.82095
    A2        2.01797   0.00119   0.00000   0.07037   0.07255   2.09052
    A3        2.45115  -0.00178   0.00000  -0.07534  -0.07950   2.37164
    A4        1.94760  -0.00144   0.00000  -0.01043  -0.01021   1.93739
    A5        2.16675   0.00140   0.00000   0.00102   0.00181   2.16855
    A6        2.16793   0.00002   0.00000   0.00802   0.00638   2.17431
    A7        1.88097   0.00097   0.00000   0.00637   0.00665   1.88761
    A8        1.85796  -0.00023   0.00000  -0.00031  -0.00047   1.85749
    A9        1.92882   0.00001   0.00000  -0.00846  -0.00752   1.92130
   A10        2.17028  -0.00005   0.00000   0.00221   0.00173   2.17202
   A11        2.18402   0.00003   0.00000   0.00631   0.00584   2.18986
   A12        1.96675  -0.00088   0.00000  -0.01883  -0.01828   1.94847
   A13        1.93459  -0.00084   0.00000  -0.01430  -0.01542   1.91917
   A14        2.38183   0.00172   0.00000   0.03311   0.03369   2.41552
   A15        2.31825  -0.00163   0.00000  -0.00046  -0.00177   2.31647
   A16        2.08593  -0.00042   0.00000   0.15393   0.14947   2.23540
   A17        1.93743   0.00271   0.00000   0.05462   0.04001   1.97745
   A18        1.51454  -0.00045   0.00000   0.07833   0.07209   1.58664
   A19        2.77059   0.00355   0.00000  -0.03152  -0.03355   2.73704
   A20        2.75047  -0.00001   0.00000  -0.00639  -0.00415   2.74632
    D1        0.00511   0.00034   0.00000   0.00275   0.00207   0.00718
    D2        3.10260  -0.00012   0.00000  -0.03095  -0.03289   3.06971
    D3        3.06452   0.00106   0.00000   0.06658   0.07344   3.13796
    D4       -0.12117   0.00060   0.00000   0.03288   0.03847  -0.08269
    D5       -0.00393  -0.00022   0.00000  -0.00171  -0.00122  -0.00515
    D6       -3.13439   0.00012   0.00000  -0.00726  -0.00790   3.14089
    D7       -3.02905  -0.00157   0.00000  -0.10701  -0.10421  -3.13326
    D8        0.12368  -0.00122   0.00000  -0.11256  -0.11089   0.01278
    D9        1.17085  -0.00296   0.00000  -0.29309  -0.29555   0.87530
   D10       -2.09631  -0.00157   0.00000  -0.18335  -0.18503  -2.28134
   D11       -0.00439  -0.00034   0.00000  -0.00276  -0.00215  -0.00655
   D12       -3.10185   0.00008   0.00000   0.03118   0.03309  -3.06876
   D13        3.12979   0.00054   0.00000  -0.03832  -0.03599   3.09380
   D14       -0.01742   0.00102   0.00000  -0.03972  -0.03609  -0.05351
[...]
 ! R12   R(9,11)                 0.9651         -DE/DX =    0.0                 !
 ! R13   R(11,12)                1.1861         -DE/DX =    0.0                 !
 ! R14   R(11,13)                1.0549         -DE/DX =    0.0                 !
 ! A1    A(2,1,5)              103.9207         -DE/DX =    0.0                 !
 ! A2    A(2,1,12)             118.5092         -DE/DX =    0.0                 !
 ! A3    A(5,1,12)             137.5694         -DE/DX =    0.0                 !
 ! A4    A(1,2,3)              111.1229         -DE/DX =    0.0                 !
 ! A5    A(1,2,6)              126.004          -DE/DX =    0.0                 !
 ! A6    A(3,2,6)              122.8618         -DE/DX =    0.0                 !
 ! A7    A(2,3,4)              108.279          -DE/DX =    0.0                 !
 ! A8    A(3,4,5)              106.1274         -DE/DX =    0.0                 !
 ! A9    A(1,5,4)              110.5499         -DE/DX =    0.0                 !
 ! A10   A(1,5,10)             124.2446         -DE/DX =    0.0                 !
 ! A11   A(4,5,10)             125.2054         -DE/DX =    0.0                 !
 ! A12   A(2,6,7)              110.5248         -DE/DX =    0.0                 !
 ! A13   A(2,6,8)              109.3756         -DE/DX =    0.0                 !
 ! A14   A(7,6,8)              140.0995         -DE/DX =    0.0                 !
 ! A15   A(6,8,13)             130.7076         -DE/DX =    0.0                 !
 ! A16   A(9,11,12)            116.2198         -DE/DX =    0.0                 !
 ! A17   A(9,11,13)            110.9666         -DE/DX =    0.0                 !
 ! A18   A(12,11,13)            91.9007         -DE/DX =    0.0                 !
 ! A19   A(1,12,11)            161.2342         -DE/DX =    0.0                 !
 ! A20   A(8,13,11)            161.9595         -DE/DX =    0.0                 !
 ! D1    D(5,1,2,3)              0.0796         -DE/DX =    0.0                 !
 ! D2    D(5,1,2,6)            178.8771         -DE/DX =    0.0                 !
 ! D3    D(12,1,2,3)           179.8301         -DE/DX =    0.0                 !
 ! D4    D(12,1,2,6)            -1.3724         -DE/DX =    0.0                 !
 ! D5    D(2,1,5,4)             -0.0021         -DE/DX =    0.0                 !
 ! D6    D(2,1,5,10)          -179.8914         -DE/DX =    0.0                 !
 ! D7    D(12,1,5,4)          -179.6772         -DE/DX =    0.0                 !
 ! D8    D(12,1,5,10)            0.4335         -DE/DX =    0.0                 !
 ! D9    D(2,1,12,11)           10.9483         -DE/DX =    0.0                 !
 ! D10   D(5,1,12,11)         -169.4107         -DE/DX =    0.0                 !
 ! D11   D(1,2,3,4)             -0.128          -DE/DX =    0.0                 !
 ! D12   D(6,2,3,4)           -178.9699         -DE/DX =    0.0                 !
 ! D13   D(1,2,6,7)            178.824          -DE/DX =    0.0                 !
 ! D14   D(1,2,6,8)             -1.1506         -DE/DX =    0.0                 !
 ! D15   D(3,2,6,7)             -2.5113         -DE/DX =    0.0                 !
 ! D16   D(3,2,6,8)            177.5141         -DE/DX =    0.0                 !
 ! D17   D(2,3,4,5)              0.1201         -DE/DX =    0.0                 !
 ! D18   D(3,4,5,1)             -0.0727         -DE/DX =    0.0                 !
 ! D19   D(3,4,5,10)           179.8154         -DE/DX =    0.0                 !
 ! D20   D(2,6,8,13)             1.2137         -DE/DX =    0.0                 !
 ! D21   D(7,6,8,13)          -178.7492         -DE/DX =    0.0                 !
 ! D22   D(6,8,13,11)            0.2753         -DE/DX =    0.0                 !
 ! D23   D(9,11,12,1)         -124.322          -DE/DX =    0.0                 !
 ! D24   D(13,11,12,1)          -9.7757         -DE/DX =    0.0                 !
 ! D25   D(9,11,13,8)          119.6403         -DE/DX =    0.0                 !
 ! D26   D(12,11,13,8)           0.5544         -DE/DX =    0.0                 !
 --------------------------------------------------------------------------------
 GradGradGradGradGradGradGradGradGradGradGradGradGradGradGradGradGradGrad


 ----------------------------------------------------------------------

 Electric dipole moment (input orientation):
 (Debye = 10**-18 statcoulomb cm , SI units = C m)
                  (au)            (Debye)         (10**-30 SI)
   Tot        0.295174D+01      0.750258D+01      0.250259D+02
   x          0.981350D+00      0.249434D+01      0.832024D+01
   y         -0.275333D+01     -0.699825D+01     -0.233437D+02
   z         -0.411014D+00     -0.104469D+01     -0.348472D+01

 Dipole polarizability, Alpha (input orientation).
 (esu units = cm**3 , SI units = C**2 m**2 J**-1)
 Alpha(0;0):
               (au)            (10**-24 esu)      (10**-40 SI)
   iso        0.641943D+02      0.951262D+01      0.105842D+02
   aniso      0.401693D+02      0.595247D+01      0.662302D+01
   xx         0.784640D+02      0.116272D+02      0.129370D+02
   yx         0.553310D+00      0.819922D-01      0.912286D-01
   yy         0.766033D+02      0.113514D+02      0.126302D+02
   zx         0.111478D+01      0.165193D+00      0.183802D+00
   zy        -0.127715D+01     -0.189254D+00     -0.210573D+00
   zz         0.375157D+02      0.555925D+01      0.618550D+01

 ----------------------------------------------------------------------

 Dipole orientation:
     7         -1.07969797          0.72139723          1.66998957
     7         -0.79492327          0.11508445         -0.75756173
     7         -2.85166195          0.53473867         -2.01917472
     7         -4.56183755          1.43070406         -0.44857624
     6         -3.44766966          1.53825173          1.81435240
     6          1.84194918         -0.99267243         -2.09917373
     8          1.50110162         -1.40744519         -4.27473043
     8          3.53612679         -1.11833811         -0.49155913
     1          3.07073034         -1.34720810          5.12278587
     1         -4.33152019          2.19645199          3.52929341
     8          2.89043106          0.01391721          3.92222806
     1          0.81444330          0.40631790          3.17826694
     1          3.50544027         -0.54754723          2.11037474

 Electric dipole moment (dipole orientation):
 (Debye = 10**-18 statcoulomb cm , SI units = C m)
                  (au)            (Debye)         (10**-30 SI)
   Tot        0.295174D+01      0.750258D+01      0.250259D+02
   x          0.000000D+00      0.000000D+00      0.000000D+00
   y          0.000000D+00      0.000000D+00      0.000000D+00
   z          0.295174D+01      0.750258D+01      0.250259D+02

 Dipole polarizability, Alpha (dipole orientation).
 (esu units = cm**3 , SI units = C**2 m**2 J**-1)
 Alpha(0;0):
               (au)            (10**-24 esu)      (10**-40 SI)
   iso        0.641943D+02      0.951262D+01      0.105842D+02
   aniso      0.401693D+02      0.595247D+01      0.662302D+01
   xx         0.745101D+02      0.110413D+02      0.122851D+02
   yx        -0.121240D+02     -0.179659D+01     -0.199898D+01
   yy         0.427999D+02      0.634229D+01      0.705675D+01
   zx         0.237968D+01      0.352632D+00      0.392356D+00
   zy         0.646267D+01      0.957669D+00      0.106555D+01
   zz         0.752729D+02      0.111543D+02      0.124108D+02

 ----------------------------------------------------------------------
 1\1\GINC-NODE5\Freq\RM062X\6-31+G(d,p)\C2H4N4O3\GONGKE2021\06-Nov-2023
 \0\\#N Geom=AllCheck Guess=TCheck SCRF=Check GenChk RM062X/6-31+G(d,p)
  Freq\\Title Card Required\\0,1\N,-0.3260276037,-1.0700399093,0.043078
 2895\N,-0.529699791,0.2450405616,-0.0272257884\N,-1.7948909909,0.51904
 14364,-0.0889678956\N,-2.4648152456,-0.6145836725,-0.0633198329\C,-1.5
 497956303,-1.5845304258,0.0190410546\C,0.6538270389,1.4256057444,-0.01
 12518312\O,0.1679537797,2.5022324627,-0.1156463757\O,1.7642983238,0.89
 18334356,0.106323183\H,2.5626316867,-1.9178644487,-0.5022200907\H,-1.7
 652286311,-2.6406457238,0.0620686958\O,2.0691926723,-1.5214119536,0.22
 63818206\H,0.8898013804,-1.5022924035,0.1096574695\H,2.1251792008,-0.4
 682810234,0.1909465114\\Version=ES64L-G16RevA.03\State=1-A\HF=-523.066
 8051\RMSD=4.240e-09\RMSF=3.830e-05\ZeroPoint=0.0830302\Thermal=0.09078
 78\Dipole=0.9813505,-2.7533251,-0.4110139\DipoleDeriv=-1.1155359,0.248
 2282,-0.0404014,0.513669,-0.2225757,0.0202127,-0.0458157,0.0101896,-0.
 1093047,-0.7288888,-0.7202562,-0.0075829,-0.7983148,-0.4563848,-0.0051
 9,-0.0038119,-0.0121591,0.0776619,0.2205193,0.3213389,-0.0019987,0.157
 704,-0.0298487,0.0007674,0.0015253,0.0101015,-0.0937852,-0.3073544,-0.
 0537769,-0.0005102,-0.3016694,-0.5350315,0.0005825,0.0093009,0.0130113
 ,-0.2194635,0.2705079,-0.1834733,0.0123654,0.0455617,0.3302054,-0.0156
 794,0.0041755,-0.0231505,0.0865794,2.6519758,0.1401859,0.1376578,0.385
 2746,2.7124151,-0.1138884,0.145041,-0.1383215,0.4508779,-0.703641,0.25
 23174,-0.0369675,-0.0004133,-1.5431201,0.0705576,-0.0279974,0.0986739,
 -0.362325,-1.663444,0.3630155,-0.089366,0.4713102,-1.2814846,0.057068,
 -0.1146364,0.0651402,-0.4278731,0.368101,-0.0471674,0.0089794,-0.07642
 86,0.3656555,0.0015299,-0.0119087,-0.0001514,0.301568,0.1082485,0.0005
 057,-0.002176,0.0073501,0.0811841,0.003495,-0.0017594,0.0039412,0.1656
 039,-1.4313134,0.288687,-0.0756537,0.3611305,-1.1250303,0.0358323,-0.0
 886677,0.0341715,-0.4300352,1.8681963,-0.4212764,0.0511504,-0.327739,0
 .3406284,-0.0331782,0.0710484,-0.0434939,0.2642636,0.4626287,-0.188328
 3,0.0445034,-0.4374351,1.3633872,-0.0221096,0.0635062,-0.0179529,0.296
 232\Polar=78.4639688,0.5533105,76.6032572,1.1147801,-1.2771469,37.5157
 051\Quadrupole=-2.2179613,0.5898682,1.6280931,-2.0455651,-3.3518057,2.
 4175826\PG=C01 [X(C2H4N4O3)]\NImag=1\\0.76653404,-0.01545991,0.5522428
 7,0.02639271,-0.02139075,0.12227854,-0.12092039,0.05139347,-0.00519469
 ,0.69702937,-0.00552113,-0.28258631,0.00997189,0.02840791,0.65835953,-
 0.00243485,0.01119932,-0.07542525,0.02469696,-0.02482944,0.11873503,-0
 .09624383,0.09067493,-0.00821826,-0.30686484,0.09692870,-0.01335000,0.
 52590402,0.01491142,-0.08245859,0.00574938,0.04024981,-0.14177455,0.00
 412536,-0.03762890,0.61804114,-0.00572173,0.00871018,0.02700607,-0.010
 38683,0.00591913,-0.08298214,0.01728907,-0.02418863,0.12314988,-0.0965
 1111,-0.02811141,-0.00370231,-0.12607664,-0.01580071,-0.00553341,-0.15
 105979,-0.06919866,0.00104853,0.59887047,0.10527386,0.02385996,0.00366
 933,-0.13096801,-0.04174606,-0.00166618,-0.09835511,-0.27709802,0.0046
 1819,-0.00389780,0.51759996,-0.00952651,-0.00067061,0.02881944,-0.0002
 6239,0.00291811,0.02843686,0.00260226,0.00573001,-0.09466853,0.0194476
 3,-0.01923614,0.11706689,-0.34331662,-0.09183847,-0.00695538,-0.045698
 27,-0.11408943,0.00312892,0.04507095,0.06913173,-0.00211499,-0.2394674
 8,0.10154875,-0.01126182,0.65572694,-0.09862393,-0.16103632,0.00021450
 ,-0.01353669,-0.10031109,0.00457344,-0.04144547,-0.12455666,0.00521454
 ,0.11914508,-0.22501429,0.01150237,0.08937874,0.96398623,-0.00608643,0
 .00053046,-0.07789294,-0.00160989,0.00102344,0.01662158,0.00256864,0.0
 0942908,0.02234933,-0.01180911,0.01114480,-0.08367554,0.01553562,-0.03
 517776,0.15742902,0.00498829,0.00697311,0.00117814,-0.02798690,0.03269
 031,-0.00045730,-0.03043496,-0.00860793,-0.00024462,0.00244450,0.02401
 562,-0.00145457,0.01628387,0.01153761,-0.00013332,0.70142247,-0.004915
 48,-0.01495954,0.00044476,0.04605805,-0.02064373,0.00263173,-0.0202256
 0,0.02008425,-0.00171528,0.01839174,0.02072740,-0.00023062,0.01428939,
 -0.00165111,0.00071230,-0.57621397,0.89635231,0.00074512,0.00101417,-0
 .00887485,-0.00189729,0.00047758,-0.03508539,0.00013013,-0.00132815,-0
 .01045421,-0.00086839,0.00064013,0.00698049,0.00009030,0.00099237,0.00
 294217,0.07286714,-0.08672492,0.20675081,0.00041628,-0.00319594,-0.000
 07162,0.00856956,-0.02105718,0.00095552,0.00077986,0.00009683,0.000044
 98,0.00292750,-0.00228106,0.00020403,-0.00157050,-0.00318952,0.0001025
 8,-0.21400380,0.28010206,-0.02761898,0.24707958,-0.01297426,0.00048857
 ,-0.00052298,-0.01445268,-0.07847439,0.00405368,0.00904155,-0.00300307
 ,0.00053942,-0.00504853,-0.00719188,0.00010876,-0.00354767,-0.00337947
 ,-0.00005376,0.30554947,-0.69018637,0.06136242,-0.32790263,0.81633811,
 0.00079994,-0.00005437,0.00314666,0.00058597,0.00416145,0.01286173,-0.
 00053638,0.00022721,0.00137178,0.00047432,0.00021756,-0.00060411,0.000
 07707,-0.00000151,-0.00066103,-0.02903961,0.05893549,-0.08547677,0.036
 50130,-0.07346923,0.04147432,0.00853093,-0.00060126,-0.00014506,-0.071
 18678,-0.00511803,-0.00593730,0.00792674,-0.01178135,0.00035784,-0.005
 44824,-0.01181261,0.00068810,-0.00895847,-0.00205138,-0.00025020,-0.45
 958797,0.22495553,-0.04304109,-0.04288246,0.05518566,-0.00902955,0.583
 61261,-0.00517150,0.00509750,-0.00021190,-0.01902584,0.01004905,-0.000
 93030,-0.00267322,-0.00277108,0.00001471,-0.00399359,0.00305243,-0.000
 34139,0.00355464,0.00371791,-0.00009456,0.18292259,-0.20220964,0.02175
 788,0.08467396,-0.04169492,0.01078097,-0.24873423,0.29974295,0.0007955
 9,-0.00022326,0.00081901,-0.00496185,0.00013960,0.01227876,0.00026325,
 -0.00072113,0.00300804,-0.00015486,-0.00087590,-0.00165678,-0.00065497
 ,-0.00030083,-0.00009961,-0.04201782,0.02526457,-0.07491382,-0.0102045
 0,0.00816183,0.02641912,0.05749238,-0.03254887,0.03996618,-0.00651457,
 -0.00068465,-0.00310876,0.00001811,0.00022689,-0.00039620,-0.00023695,
 -0.00005887,0.00030431,-0.00033700,0.00014043,0.00019412,-0.00052056,0
 .00086653,-0.00027512,-0.00196494,0.00108196,-0.00002973,0.00069135,-0
 .00085867,0.00007060,0.00192982,-0.00352462,0.00056019,0.16375708,-0.0
 0349802,0.00155756,-0.00110863,0.00003695,-0.00094816,-0.00006362,-0.0
 0045154,0.00004626,0.00010888,-0.00048480,0.00027155,-0.00004903,0.000
 54080,0.00070442,0.00002298,0.00001538,-0.00136455,0.00044195,0.000065
 34,0.00044339,-0.00023940,-0.00005179,-0.00455089,0.00260952,-0.106500
 76,0.12622359,-0.00565537,0.00030074,-0.00088605,0.00016498,-0.0005084
 4,0.00017314,-0.00041921,0.00014600,-0.00006764,-0.00044142,0.00017873
 ,0.00001284,0.00000268,0.00058814,0.00001498,0.00089118,-0.00058170,0.
 00032752,-0.00042256,0.00053241,-0.00012173,-0.00080955,0.00372102,-0.
 00072052,-0.20601375,0.16832236,0.31000108,-0.00014762,-0.03075929,0.0
 0159457,-0.00822448,-0.00186741,-0.00060770,-0.00220174,0.00687420,-0.
 00072684,0.01210216,0.02094315,-0.00037840,-0.07033031,-0.06057849,0.0
 0162194,0.00210491,0.00086621,0.00004235,-0.00024804,-0.00118550,0.000
 07840,-0.00048949,0.00034955,-0.00004099,-0.00012735,-0.00010157,0.000
 00563,0.06738303,0.00130038,-0.00184341,-0.00001699,0.00158209,0.00174
 005,0.00038801,0.00134899,-0.00158578,0.00054773,-0.00616555,-0.011723
 19,0.00010469,-0.06307161,-0.35989969,0.01326857,-0.00011308,-0.000391
 50,0.00009026,-0.00020124,0.00016988,-0.00005045,-0.00006992,0.0001348
 9,-0.00002464,-0.00006694,0.00003290,-0.00001103,0.06585459,0.37364336
 ,0.00004351,-0.00142667,-0.00310987,-0.00068287,0.00025427,0.00777189,
 -0.00052298,0.00070388,0.00827125,0.00093105,0.00115581,-0.00413466,0.
 00175020,0.01359832,-0.03480211,-0.00000095,0.00008852,0.00123456,0.00
 002402,-0.00008218,-0.00056965,-0.00000168,0.00000392,-0.00017334,0.00
 001278,0.00001612,0.00004897,-0.00166777,-0.01427497,0.02617446,-0.091
 97480,0.01803313,-0.00306149,0.00159335,-0.00706038,0.00073106,-0.0111
 9371,0.00365279,-0.00077400,-0.00609480,0.00774060,-0.00078275,0.00604
 959,0.01282754,-0.00023139,-0.01824945,-0.01052291,-0.00124965,0.00382
 978,0.00327964,0.00028661,0.02032554,0.00426069,-0.00072437,-0.1636401
 7,0.08497409,0.20739909,-0.00022142,0.00005614,0.00001960,0.33905625,0
 .01250163,0.01438884,0.00326304,0.00288212,0.00092815,0.00036350,-0.00
 291987,0.00273810,-0.00042750,0.00205192,0.00375639,-0.00031981,0.0040
 4196,-0.00197342,0.00037515,-0.04479202,-0.00375005,-0.00362642,0.0133
 1537,-0.00708085,0.00175572,0.04904251,-0.07882354,0.00476669,0.097309
 75,-0.12217742,-0.17462598,0.00047495,0.00003308,0.00004508,-0.1012877
 6,0.44401391,-0.00002486,0.00127657,0.01476507,-0.00006216,-0.00033375
 ,0.00064914,-0.00039698,0.00007903,-0.00093975,-0.00003765,0.00035285,
 -0.00104608,0.00052799,0.00039769,0.00098343,-0.00113024,-0.00084241,0
 .00127300,0.00040555,0.00013700,-0.00068669,0.00023493,-0.00218768,0.0
 1107490,0.19362497,-0.14564293,-0.31315500,-0.00000296,0.00002824,0.00
 007793,-0.19974679,0.15274057,0.37829292,-0.02217495,0.00077844,0.0011
 3403,0.00046103,0.01143652,-0.00049380,0.01941206,-0.00856111,0.000872
 86,0.00749691,-0.01357593,0.00066418,-0.01383127,-0.01359872,0.0004010
 3,0.04465265,0.01320568,0.00252769,-0.00993337,-0.00320652,-0.00062349
 ,-0.02880515,0.02368667,-0.00212263,0.00446304,0.00625153,0.00655224,0
 .00027768,-0.00042643,0.00007726,-0.02393122,0.00428742,-0.00765549,0.
 02331588,-0.00506340,-0.05229600,0.00008158,0.02031246,-0.00581370,0.0
 0113660,-0.00215474,-0.00394243,0.00021025,-0.00653438,0.00169714,-0.0
 0004004,-0.00331848,0.01241969,-0.00099679,-0.00283570,-0.00656545,0.0
 0008238,0.00047746,0.00212495,-0.00006264,0.00469691,-0.00138864,0.000
 16167,0.00904646,-0.00057421,0.00250039,-0.00034869,-0.00022794,-0.000
 06517,-0.01766365,-0.04631705,-0.00989987,0.03164874,0.09629211,-0.000
 11276,0.00056968,-0.03010553,-0.00045002,0.00059985,-0.00425155,0.0005
 9516,0.00001497,0.00412467,0.00042108,-0.00032745,0.00416652,-0.000187
 57,-0.00135646,-0.00300485,0.00137078,0.00091578,0.00063522,-0.0002774
 4,-0.00030486,-0.00003663,-0.00076119,0.00033811,-0.00169540,0.0201539
 7,0.00493427,0.00350564,0.00007652,-0.00004597,-0.00078440,-0.02331359
 ,-0.01498150,-0.04501442,0.00243923,0.00963186,0.06712815,-0.00266565,
 0.00279785,0.00015811,-0.00071312,0.00082393,-0.00030191,-0.00085781,0
 .00092004,0.00005141,0.00115351,0.00122814,-0.00013387,0.00056212,-0.0
 0073131,0.00016565,-0.01966868,0.01292733,-0.00169759,0.00434426,-0.00
 387985,0.00035483,-0.00496707,-0.01632509,0.00177059,0.00248215,0.0192
 0439,-0.00125394,0.00012268,-0.00002740,0.00001782,-0.05554894,-0.0369
 0799,0.01426367,-0.00140329,-0.02826299,0.00004581,0.07715984,0.017240
 33,-0.00245513,-0.00014324,-0.01293962,0.00122122,-0.00098211,0.007860
 27,-0.00371957,0.00044836,-0.00035331,-0.00819138,0.00052369,-0.006620
 35,-0.00300619,-0.00018391,0.06885862,0.00455797,0.00482034,-0.0209034
 5,0.01144604,-0.00220081,-0.05366004,0.00964400,-0.00640924,0.00302248
 ,0.00033555,-0.00056264,-0.00052169,-0.00008264,-0.00001693,0.00171009
 ,-0.20573613,0.00389469,-0.05192628,0.00459154,0.00001172,0.04823295,0
 .19139471,0.00078564,0.00016453,-0.00054030,0.00006007,0.00020632,0.00
 021619,-0.00000471,0.00003299,-0.00016876,0.00022454,0.00012827,0.0003
 0265,0.00006193,-0.00024481,-0.00020442,-0.00182880,0.00110177,-0.0053
 3874,0.00035711,-0.00046252,0.00288299,0.00120237,-0.00030192,-0.01430
 653,-0.00509737,-0.02935245,0.00086678,0.00000524,-0.00000347,-0.00000
 504,0.02144765,0.03067145,-0.04627445,-0.00377310,-0.00274024,0.005332
 59,-0.01344058,0.00080008,0.05723706\\-0.00000635,-0.00002387,-0.00009
 735,-0.00004941,-0.00009268,0.00005039,-0.00001554,0.00000864,0.000000
 84,-0.00001309,-0.00000683,0.00000382,0.00000376,-0.00000478,0.0000292
 3,0.00009415,0.00010335,-0.00002900,-0.00000596,0.00000136,-0.00001089
 ,0.00003139,-0.00002010,0.00002684,-0.00000056,0.00001772,-0.00001140,
 -0.00000074,-0.00000054,-0.00000994,-0.00000150,-0.00003936,0.00000038
 ,-0.00000259,0.00002884,0.00006540,-0.00003356,0.00002825,-0.00001831\
 \\@


 READER, WHETHER YOU BE DILETTANTE OR PROFESSOR ... SHOW YOURSELF TO BE
 MORE HUMAN THAN CRITICAL, AND THEN YOUR PLEASURE WILL INCREASE.
                                           -- DOMENICO SCARLATTI (1738)
 Job cpu time:       0 days  0 hours 19 minutes  2.3 seconds.
 Elapsed time:       0 days  0 hours  0 minutes 48.1 seconds.
 File lengths (MBytes):  RWF=     61 Int=      0 D2E=      0 Chk=      4 Scr=      1
 Normal termination of Gaussian 16 at Mon Nov  6 13:21:34 2023.
