 Entering Gaussian System, Link 0=/opt/soft/g16/g16
 Initial command:
 /opt/soft/g16/l1.exe "/scratch/gongke2021/2-H-1-H-Tz/Gau-4269.inp" -scrdir="/scratch/gongke2021/2-H-1-H-Tz/"
 Entering Link 1 = /opt/soft/g16/l1.exe PID=      4270.
  
 Copyright (c) 1988,1990,1992,1993,1995,1998,2003,2009,2016,
            Gaussian, Inc.  All Rights Reserved.
  
 This is part of the Gaussian(R) 16 program.  It is based on
 the Gaussian(R) 09 system (copyright 2009, Gaussian, Inc.),
 the Gaussian(R) 03 system (copyright 2003, Gaussian, Inc.),
 the Gaussian(R) 98 system (copyright 1998, Gaussian, Inc.),
 the Gaussian(R) 94 system (copyright 1995, Gaussian, Inc.),
 the Gaussian 92(TM) system (copyright 1992, Gaussian, Inc.),
 the Gaussian 90(TM) system (copyright 1990, Gaussian, Inc.),
 the Gaussian 88(TM) system (copyright 1988, Gaussian, Inc.),
 the Gaussian 86(TM) system (copyright 1986, Carnegie Mellon
 University), and the Gaussian 82(TM) system (copyright 1983,
 Carnegie Mellon University). Gaussian is a federally registered
 trademark of Gaussian, Inc.
  
 This software contains proprietary and confidential information,
 including trade secrets, belonging to Gaussian, Inc.
  
 This software is provided under written license and may be
 used, copied, transmitted, or stored only in accord with that
 written license.
  
 The following legend is applicable only to US Government
 contracts under FAR:
  
                    RESTRICTED RIGHTS LEGEND
  
 Use, reproduction and disclosure by the US Government is
 subject to restrictions as set forth in subparagraphs (a)
 and (c) of the Commercial Computer Software - Restricted
 Rights clause in FAR 52.227-19.
  
 Gaussian, Inc.
 340 Quinnipiac St., Bldg. 40, Wallingford CT 06492
  
  
 ---------------------------------------------------------------
 Warning -- This program may not be used in any manner that
 competes with the business of Gaussian, Inc. or will provide
 assistance to any competitor of Gaussian, Inc.  The licensee
 of this program is prohibited from giving any competitor of
 Gaussian, Inc. access to this program.  By using this program,
 the user acknowledges that Gaussian, Inc. is engaged in the
 business of creating and licensing software in the field of
 computational chemistry and represents and warrants to the
 licensee that it is not a competitor of Gaussian, Inc. and that
 it will not use this program in any manner prohibited above.
 ---------------------------------------------------------------
  

 Cite this work as:
 Gaussian 16, Revision A.03,
 M. J. Frisch, G. W. Trucks, H. B. Schlegel, G. E. Scuseria, 
 M. A. Robb, J. R. Cheeseman, G. Scalmani, V. Barone, 
 G. A. Petersson, H. Nakatsuji, X. Li, M. Caricato, A. V. Marenich, 
 J. Bloino, B. G. Janesko, R. Gomperts, B. Mennucci, H. P. Hratchian, 
 J. V. Ortiz, A. F. Izmaylov, J. L. Sonnenberg, D. Williams-Young, 
 F. Ding, F. Lipparini, F. Egidi, J. Goings, B. Peng, A. Petrone, 
 T. Henderson, D. Ranasinghe, V. G. Zakrzewski, J. Gao, N. Rega, 
 G. Zheng, W. Liang, M. Hada, M. Ehara, K. Toyota, R. Fukuda, 
 J. Hasegawa, M. Ishida, T. Nakajima, Y. Honda, O. Kitao, H. Nakai, 
 T. Vreven, K. Throssell, J. A. Montgomery, Jr., J. E. Peralta, 
 F. Ogliaro, M. J. Bearpark, J. J. Heyd, E. N. Brothers, K. N. Kudin, 
 V. N. Staroverov, T. A. Keith, R. Kobayashi, J. Normand, 
 K. Raghavachari, A. P. Rendell, J. C. Burant, S. S. Iyengar, 
 J. Tomasi, M. Cossi, J. M. Millam, M. Klene, C. Adamo, R. Cammi, 
 J. W. Ochterski, R. L. Martin, K. Morokuma, O. Farkas, 
 J. B. Foresman, and D. J. Fox, Gaussian, Inc., Wallingford CT, 2016.
 
 ******************************************
 Gaussian 16:  ES64L-G16RevA.03 25-Dec-2016
                16-Jul-2023 
 ******************************************
 %mem=10GB
 %nprocshared=24
 Will use up to   24 processors via shared memory.
 -----------------------------------------------------
 # opt freq 6-31+g(d,p) m062x scrf=(SMD,solvent=water)
 -----------------------------------------------------
 1/18=20,19=15,26=3,38=1/1,3;
 2/9=110,12=2,17=6,18=5,40=1/2;
 3/5=1,6=6,7=111,11=2,25=1,30=1,70=32201,71=1,72=1,74=-55/1,2,3;
 4//1;
 5/5=2,38=5,53=1/2;
 6/7=2,8=2,9=2,10=2,28=1/1;
 7//1,2,3,16;
 1/18=20,19=15,26=3/3(2);
 2/9=110/2;
 99//99;
 2/9=110/2;
 3/5=1,6=6,7=111,11=2,25=1,30=1,70=32205,71=1,72=1,74=-55/1,2,3;
 4/5=5,16=3,69=1/1;
 5/5=2,38=5,53=1/2;
 7//1,2,3,16;
 1/18=20,19=15,26=3/3(-5);
 2/9=110/2;
 6/7=2,8=2,9=2,10=2,19=2,28=1/1;
 99/9=1/99;
 ----------
 2-H-1-H-Tz
 ----------
 Symbolic Z-matrix:
 Charge =  1 Multiplicity = 1
 N                     0.504    -1.058     0. 
 N                     1.052     0.161     0. 
 C                     0.111     1.132     0. 
 C                    -1.069     0.43      0. 
 N                    -0.78     -0.902     0. 
 H                     0.348     2.184     0. 
 H                    -2.086     0.788     0. 
 H                     2.058     0.247    -0.001 
 H                     1.2495   -1.8804    0. 
 

 GradGradGradGradGradGradGradGradGradGradGradGradGradGradGradGradGradGrad
 Berny optimization.
 Initialization pass.
                           ----------------------------
                           !    Initial Parameters    !
                           ! (Angstroms and Degrees)  !
 --------------------------                            --------------------------
 ! Name  Definition              Value          Derivative Info.                !
 --------------------------------------------------------------------------------
 ! R1    R(1,2)                  1.3365         estimate D2E/DX2                !
 ! R2    R(1,5)                  1.2934         estimate D2E/DX2                !
 ! R3    R(1,9)                  1.11           estimate D2E/DX2                !
 ! R4    R(2,3)                  1.3522         estimate D2E/DX2                !
 ! R5    R(2,8)                  1.0097         estimate D2E/DX2                !
 ! R6    R(3,4)                  1.373          estimate D2E/DX2                !
 ! R7    R(3,6)                  1.0784         estimate D2E/DX2                !
 ! R8    R(4,5)                  1.363          estimate D2E/DX2                !
 ! R9    R(4,7)                  1.0782         estimate D2E/DX2                !
 ! A1    A(2,1,5)              107.279          estimate D2E/DX2                !
 ! A2    A(2,1,9)              113.6017         estimate D2E/DX2                !
 ! A3    A(5,1,9)              139.1193         estimate D2E/DX2                !
 ! A4    A(1,2,3)              111.6927         estimate D2E/DX2                !
 ! A5    A(1,2,8)              119.0924         estimate D2E/DX2                !
 ! A6    A(3,2,8)              129.2149         estimate D2E/DX2                !
 ! A7    A(2,3,4)              103.352          estimate D2E/DX2                !
 ! A8    A(2,3,6)              123.203          estimate D2E/DX2                !
 ! A9    A(4,3,6)              133.445          estimate D2E/DX2                !
 ! A10   A(3,4,5)              108.5075         estimate D2E/DX2                !
 ! A11   A(3,4,7)              129.8581         estimate D2E/DX2                !
 ! A12   A(5,4,7)              121.6344         estimate D2E/DX2                !
 ! A13   A(1,5,4)              109.1688         estimate D2E/DX2                !
 ! D1    D(5,1,2,3)              0.0            estimate D2E/DX2                !
 ! D2    D(5,1,2,8)           -179.9351         estimate D2E/DX2                !
 ! D3    D(9,1,2,3)            180.0            estimate D2E/DX2                !
 ! D4    D(9,1,2,8)              0.0649         estimate D2E/DX2                !
 ! D5    D(2,1,5,4)              0.0            estimate D2E/DX2                !
 ! D6    D(9,1,5,4)            180.0            estimate D2E/DX2                !
 ! D7    D(1,2,3,4)              0.0            estimate D2E/DX2                !
 ! D8    D(1,2,3,6)            180.0            estimate D2E/DX2                !
 ! D9    D(8,2,3,4)            179.9268         estimate D2E/DX2                !
 ! D10   D(8,2,3,6)             -0.0732         estimate D2E/DX2                !
 ! D11   D(2,3,4,5)              0.0            estimate D2E/DX2                !
 ! D12   D(2,3,4,7)            180.0            estimate D2E/DX2                !
 ! D13   D(6,3,4,5)            180.0            estimate D2E/DX2                !
 ! D14   D(6,3,4,7)              0.0            estimate D2E/DX2                !
 ! D15   D(3,4,5,1)              0.0            estimate D2E/DX2                !
 ! D16   D(7,4,5,1)            180.0            estimate D2E/DX2                !
 --------------------------------------------------------------------------------
 Trust Radius=3.00D-01 FncErr=1.00D-07 GrdErr=1.00D-06 EigMax=2.50D+02 EigMin=1.00D-04
 Number of steps in this run=     48 maximum allowed number of steps=    100.
 GradGradGradGradGradGradGradGradGradGradGradGradGradGradGradGradGradGrad

                          Input orientation:                          
 ---------------------------------------------------------------------
 Center     Atomic      Atomic             Coordinates (Angstroms)
 Number     Number       Type             X           Y           Z
 ---------------------------------------------------------------------
      1          7           0        0.504000   -1.058000    0.000000
      2          7           0        1.052000    0.161000    0.000000
      3          6           0        0.111000    1.132000    0.000000
      4          6           0       -1.069000    0.430000    0.000000
      5          7           0       -0.780000   -0.902000    0.000000
      6          1           0        0.348000    2.184000    0.000000
      7          1           0       -2.086000    0.788000    0.000000
      8          1           0        2.058000    0.247000   -0.001000
      9          1           0        1.249500   -1.880400    0.000000
 ---------------------------------------------------------------------
                    Distance matrix (angstroms):
                    1          2          3          4          5
     1  N    0.000000
     2  N    1.336512   0.000000
     3  C    2.224983   1.352155   0.000000
     4  C    2.165288   2.137990   1.373027   0.000000
     5  N    1.293442   2.118064   2.220594   1.362991   0.000000
     6  H    3.245751   2.141996   1.078366   2.254863   3.285693
     7  H    3.180537   3.200027   2.223768   1.078171   2.135822
     8  H    2.029271   1.009670   2.138699   3.132350   3.061772
     9  H    1.110005   2.050932   3.220363   3.273132   2.253028
                    6          7          8          9
     6  H    0.000000
     7  H    2.805917   0.000000
     8  H    2.583809   4.179165   0.000000
     9  H    4.163178   4.271524   2.275852   0.000000
 Stoichiometry    C2H4N3(1+)
 Framework group  C1[X(C2H4N3)]
 Deg. of freedom    21
 Full point group                 C1      NOp   1
 Largest Abelian subgroup         C1      NOp   1
 Largest concise Abelian subgroup C1      NOp   1
                         Standard orientation:                         
 ---------------------------------------------------------------------
 Center     Atomic      Atomic             Coordinates (Angstroms)
 Number     Number       Type             X           Y           Z
 ---------------------------------------------------------------------
      1          7           0       -1.062318   -0.326793   -0.000027
      2          7           0       -0.525715    0.897266   -0.000027
      3          6           0        0.825633    0.850572   -0.000027
      4          6           0        1.096388   -0.495495   -0.000027
      5          7           0       -0.085416   -1.174527   -0.000027
      6          1           0        1.446961    1.731948   -0.000027
      7          1           0        2.044037   -1.009707   -0.000027
      8          1           0       -1.136664    1.701115    0.000973
      9          1           0       -2.172323   -0.325437   -0.000027
 ---------------------------------------------------------------------
 Rotational constants (GHZ):           9.9910395           9.2052308           4.7910258
 Standard basis: 6-31+G(d,p) (6D, 7F)
 There are   115 symmetry adapted cartesian basis functions of A   symmetry.
 There are   115 symmetry adapted basis functions of A   symmetry.
   115 basis functions,   188 primitive gaussians,   115 cartesian basis functions
    18 alpha electrons       18 beta electrons
       nuclear repulsion energy       174.6948245218 Hartrees.
 NAtoms=    9 NActive=    9 NUniq=    9 SFac= 1.00D+00 NAtFMM=   60 NAOKFM=F Big=F
 Integral buffers will be    131072 words long.
 Raffenetti 2 integral format.
 Two-electron integral symmetry is turned on.
 ------------------------------------------------------------------------------
 Polarizable Continuum Model (PCM)
 =================================
 Model                : PCM.
 Atomic radii         : SMD-Coulomb.
 Polarization charges : Total charges.
 Charge compensation  : None.
 Solution method      : On-the-fly selection.
 Cavity type          : VdW (van der Waals Surface) (Alpha=1.000).
 Cavity algorithm     : GePol (No added spheres)
                        Default sphere list used, NSphG=    9.
                        Lebedev-Laikov grids with approx.  5.0 points / Ang**2.
                        Smoothing algorithm: York/Karplus (Gamma=1.0000).
                        Polarization charges: spherical gaussians, with
                                              point-specific exponents (IZeta= 3).
                        Self-potential: point-specific (ISelfS= 7).
                        Self-field    : sphere-specific E.n sum rule (ISelfD= 2).
 1st derivatives      : Analytical E(r).r(x)/FMM algorithm (CHGder, D1EAlg=3).
                        Cavity 1st derivative terms included.
 Solvent              : Water, Eps=  78.355300 Eps(inf)=   1.777849
 ------------------------------------------------------------------------------
 Spheres list:
 ISph  on   Nord     Re0    Alpha      Xe            Ye            Ze
    1   N      1    1.8900  1.000     -1.062318     -0.326793     -0.000027
    2   N      2    1.8900  1.000     -0.525715      0.897266     -0.000027
    3   C      3    1.8500  1.000      0.825633      0.850572     -0.000027
    4   C      4    1.8500  1.000      1.096388     -0.495495     -0.000027
    5   N      5    1.8900  1.000     -0.085416     -1.174527     -0.000027
    6   H      6    1.2000  1.000      1.446961      1.731948     -0.000027
    7   H      7    1.2000  1.000      2.044037     -1.009707     -0.000027
    8   H      8    1.2000  1.000     -1.136664      1.701115      0.000973
    9   H      9    1.2000  1.000     -2.172323     -0.325437     -0.000027
 ------------------------------------------------------------------------------
 ------------------------------------------------------------------------------
 Atomic radii for non-electrostatic terms: SMD-CDS.
 ------------------------------------------------------------------------------
 Nuclear repulsion after PCM non-electrostatic terms =      174.6985480316 Hartrees.
 One-electron integrals computed using PRISM.
 NBasis=   115 RedAO= T EigKep=  7.58D-05  NBF=   115
 NBsUse=   115 1.00D-06 EigRej= -1.00D+00 NBFU=   115
 ExpMin= 4.38D-02 ExpMax= 4.17D+03 ExpMxC= 6.27D+02 IAcc=3 IRadAn=         5 AccDes= 0.00D+00
 Harris functional with IExCor= 1009 and IRadAn=       5 diagonalized for initial guess.
 HarFok:  IExCor= 1009 AccDes= 0.00D+00 IRadAn=         5 IDoV= 1 UseB2=F ITyADJ=14
 ICtDFT=  3500011 ScaDFX=  1.000000  1.000000  1.000000  1.000000
 FoFCou: FMM=F IPFlag=           0 FMFlag=      100000 FMFlg1=           0
         NFxFlg=           0 DoJE=T BraDBF=F KetDBF=T FulRan=T
         wScrn=  0.000000 ICntrl=       500 IOpCl=  0 I1Cent=   200000004 NGrid=           0
         NMat0=    1 NMatS0=      1 NMatT0=    0 NMatD0=    1 NMtDS0=    0 NMtDT0=    0
 Petite list used in FoFCou.
 Keep R1 ints in memory in canonical form, NReq=44774372.
 Requested convergence on RMS density matrix=1.00D-08 within 128 cycles.
 Requested convergence on MAX density matrix=1.00D-06.
 Requested convergence on             energy=1.00D-06.
 No special actions if energy rises.
 Inv3:  Mode=1 IEnd=     2152227.
 Iteration    1 A*A^-1 deviation from unit magnitude is 2.78D-15 for    225.
 Iteration    1 A*A^-1 deviation from orthogonality  is 2.11D-15 for    624    282.
 Iteration    1 A^-1*A deviation from unit magnitude is 2.44D-15 for     31.
 Iteration    1 A^-1*A deviation from orthogonality  is 2.44D-15 for    606    199.
 Error on total polarization charges =  0.01502
 SCF Done:  E(RM062X) =  -242.566230253     A.U. after   13 cycles
            NFock= 13  Conv=0.45D-08     -V/T= 2.0097
 SMD-CDS (non-electrostatic) energy       (kcal/mol) =       2.34
 (included in total energy above)

 **********************************************************************

            Population analysis using the SCF density.

 **********************************************************************

 Orbital symmetries:
       Occupied  (A) (A) (A) (A) (A) (A) (A) (A) (A) (A) (A) (A)
                 (A) (A) (A) (A) (A) (A)
       Virtual   (A) (A) (A) (A) (A) (A) (A) (A) (A) (A) (A) (A)
                 (A) (A) (A) (A) (A) (A) (A) (A) (A) (A) (A) (A)
                 (A) (A) (A) (A) (A) (A) (A) (A) (A) (A) (A) (A)
                 (A) (A) (A) (A) (A) (A) (A) (A) (A) (A) (A) (A)
                 (A) (A) (A) (A) (A) (A) (A) (A) (A) (A) (A) (A)
                 (A) (A) (A) (A) (A) (A) (A) (A) (A) (A) (A) (A)
                 (A) (A) (A) (A) (A) (A) (A) (A) (A) (A) (A) (A)
                 (A) (A) (A) (A) (A) (A) (A) (A) (A) (A) (A) (A)
                 (A)
 The electronic state is 1-A.
 Alpha  occ. eigenvalues --  -14.94949 -14.91288 -14.86223 -10.64627 -10.62160
 Alpha  occ. eigenvalues --   -1.30152  -1.07340  -0.98775  -0.78330  -0.77636
 Alpha  occ. eigenvalues --   -0.73659  -0.61869  -0.60769  -0.56857  -0.54589
 Alpha  occ. eigenvalues --   -0.42428  -0.42186  -0.38167
 Alpha virt. eigenvalues --   -0.03324   0.01778   0.03850   0.04148   0.04232
 Alpha virt. eigenvalues --    0.05687   0.06505   0.06962   0.08793   0.11226
 Alpha virt. eigenvalues --    0.13082   0.13340   0.14561   0.15435   0.18099
 Alpha virt. eigenvalues --    0.19842   0.20546   0.21124   0.21276   0.21968
 Alpha virt. eigenvalues --    0.23094   0.23965   0.25396   0.27172   0.30660
 Alpha virt. eigenvalues --    0.31546   0.31871   0.35030   0.40990   0.45274
 Alpha virt. eigenvalues --    0.50862   0.66641   0.68637   0.73066   0.78214
 Alpha virt. eigenvalues --    0.82147   0.84853   0.87004   0.88206   0.90337
 Alpha virt. eigenvalues --    0.92850   0.93219   0.95054   0.97537   0.98988
 Alpha virt. eigenvalues --    1.01641   1.04289   1.09219   1.15186   1.23680
 Alpha virt. eigenvalues --    1.24420   1.27826   1.31093   1.32017   1.34668
 Alpha virt. eigenvalues --    1.42578   1.43151   1.51195   1.53050   1.61287
 Alpha virt. eigenvalues --    1.74710   1.86165   1.89533   1.95843   2.04605
 Alpha virt. eigenvalues --    2.06051   2.10330   2.13828   2.16774   2.21428
 Alpha virt. eigenvalues --    2.23175   2.27606   2.38268   2.43597   2.43972
 Alpha virt. eigenvalues --    2.48358   2.49899   2.51501   2.56490   2.60627
 Alpha virt. eigenvalues --    2.63869   2.68061   2.76366   2.79341   2.84646
 Alpha virt. eigenvalues --    2.90446   3.00620   3.21370   3.26842   3.32886
 Alpha virt. eigenvalues --    3.59091   3.74990   3.97615   4.14893   4.29386
 Alpha virt. eigenvalues --    4.38269   4.68474
          Condensed to atoms (all electrons):
               1          2          3          4          5          6
     1  N    6.320312   0.306079  -0.106906   0.050245   0.167311   0.006555
     2  N    0.306079   6.321102   0.384041  -0.103222  -0.010316  -0.029787
     3  C   -0.106906   0.384041   5.198149   0.180917   0.007806   0.356808
     4  C    0.050245  -0.103222   0.180917   5.317922   0.323340   0.008495
     5  N    0.167311  -0.010316   0.007806   0.323340   6.728165  -0.003599
     6  H    0.006555  -0.029787   0.356808   0.008495  -0.003599   0.365595
     7  H    0.013162  -0.002488  -0.013392   0.385129  -0.048048   0.000054
     8  H   -0.013125   0.306584   0.005039  -0.005183   0.004259  -0.000768
     9  H    0.262497  -0.010671   0.001646   0.004572   0.004320  -0.000003
               7          8          9
     1  N    0.013162  -0.013125   0.262497
     2  N   -0.002488   0.306584  -0.010671
     3  C   -0.013392   0.005039   0.001646
     4  C    0.385129  -0.005183   0.004572
     5  N   -0.048048   0.004259   0.004320
     6  H    0.000054  -0.000768  -0.000003
     7  H    0.398874  -0.000047   0.000007
     8  H   -0.000047   0.255525  -0.000486
     9  H    0.000007  -0.000486   0.232710
 Mulliken charges:
               1
     1  N   -0.006128
     2  N   -0.161322
     3  C   -0.014108
     4  C   -0.162214
     5  N   -0.173238
     6  H    0.296650
     7  H    0.266749
     8  H    0.448202
     9  H    0.505409
 Sum of Mulliken charges =   1.00000
 Mulliken charges with hydrogens summed into heavy atoms:
               1
     1  N    0.499282
     2  N    0.286880
     3  C    0.282542
     4  C    0.104535
     5  N   -0.173238
 Electronic spatial extent (au):  <R**2>=            267.3405
 Charge=              1.0000 electrons
 Dipole moment (field-independent basis, Debye):
    X=             -2.8433    Y=              4.8826    Z=              0.0020  Tot=              5.6501
 Quadrupole moment (field-independent basis, Debye-Ang):
   XX=             -9.0984   YY=            -21.7994   ZZ=            -29.2378
   XY=             -1.5711   XZ=             -0.0026   YZ=              0.0036
 Traceless Quadrupole moment (field-independent basis, Debye-Ang):
   XX=             10.9468   YY=             -1.7542   ZZ=             -9.1926
   XY=             -1.5711   XZ=             -0.0026   YZ=              0.0036
 Octapole moment (field-independent basis, Debye-Ang**2):
  XXX=            -20.3318  YYY=             25.0940  ZZZ=              0.0016  XYY=             -0.7458
  XXY=              2.1559  XXZ=              0.0031  XZZ=             -2.4420  YZZ=              1.0287
  YYZ=              0.0077  XYZ=             -0.0048
 Hexadecapole moment (field-independent basis, Debye-Ang**3):
 XXXX=            -78.5937 YYYY=           -135.4881 ZZZZ=            -28.1822 XXXY=             -2.4559
 XXXZ=             -0.0022 YYYX=             -7.0695 YYYZ=              0.0097 ZZZX=              0.0012
 ZZZY=             -0.0015 XXYY=            -29.9169 XXZZ=            -33.4421 YYZZ=            -31.7170
 XXYZ=              0.0049 YYXZ=             -0.0080 ZZXY=             -0.3332
 N-N= 1.746985480316D+02 E-N=-9.041682837631D+02  KE= 2.402413868988D+02
 D1PCM: PCM CHGder 1st derivatives, ID1Alg=3 FixD1E=F DoIter=F DoCFld=F I1PDM=0.
 Calling FoFJK, ICntrl=      2127 FMM=F ISym2X=0 I1Cent= 0 IOpClX= 0 NMat=1 NMatS=1 NMatT=0.
 ***** Axes restored to original set *****
 -------------------------------------------------------------------
 Center     Atomic                   Forces (Hartrees/Bohr)
 Number     Number              X              Y              Z
 -------------------------------------------------------------------
      1        7           0.033504412    0.030024679   -0.000014957
      2        7           0.004287926    0.012454710   -0.000020229
      3        6           0.020928728   -0.022622293   -0.000005610
      4        6           0.003128062   -0.027941630    0.000008199
      5        7          -0.021962867   -0.018870559    0.000014002
      6        1           0.002230691    0.000013649   -0.000004800
      7        1          -0.000173386   -0.002437344    0.000002121
      8        1           0.010035455    0.003643810    0.000022606
      9        1          -0.051979020    0.025734978   -0.000001332
 -------------------------------------------------------------------
 Cartesian Forces:  Max     0.051979020 RMS     0.017496393

 GradGradGradGradGradGradGradGradGradGradGradGradGradGradGradGradGradGrad
 Berny optimization.
 FormGI is forming the generalized inverse of G from B-inverse, IUseBI=4.
 Internal  Forces:  Max     0.053977276 RMS     0.015431135
 Search for a local minimum.
 Step number   1 out of a maximum of   48
 All quantities printed in internal units (Hartrees-Bohrs-Radians)
 Mixed Optimization -- RFO/linear search
 Second derivative matrix not updated -- first step.
 ITU=  0
     Eigenvalues ---    0.02233   0.02293   0.02323   0.02386   0.02402
     Eigenvalues ---    0.02473   0.16000   0.16000   0.16000   0.16000
     Eigenvalues ---    0.22000   0.22936   0.32599   0.36192   0.36216
     Eigenvalues ---    0.45453   0.46028   0.47926   0.53348   0.56025
     Eigenvalues ---    0.65947
 RFO step:  Lambda=-2.96090717D-02 EMin= 2.23330031D-02
 Linear search not attempted -- first point.
 Maximum step size (   0.300) exceeded in Quadratic search.
    -- Step size scaled by   0.917
 Iteration  1 RMS(Cart)=  0.06077089 RMS(Int)=  0.00249736
 Iteration  2 RMS(Cart)=  0.00287765 RMS(Int)=  0.00021352
 Iteration  3 RMS(Cart)=  0.00000960 RMS(Int)=  0.00021333
 Iteration  4 RMS(Cart)=  0.00000000 RMS(Int)=  0.00021333
 Variable       Old X    -DE/DX   Delta X   Delta X   Delta X     New X
                                 (Linear)    (Quad)   (Total)
    R1        2.52564  -0.00609   0.00000  -0.01017  -0.00982   2.51582
    R2        2.44425  -0.00260   0.00000  -0.00434  -0.00399   2.44026
    R3        2.09761  -0.05398   0.00000  -0.13918  -0.13918   1.95842
    R4        2.55520  -0.02746   0.00000  -0.04323  -0.04335   2.51185
    R5        1.90800   0.01031   0.00000   0.01930   0.01930   1.92730
    R6        2.59465   0.01927   0.00000   0.03469   0.03428   2.62892
    R7        2.03782   0.00050   0.00000   0.00118   0.00118   2.03900
    R8        2.57568  -0.02462   0.00000  -0.04056  -0.04069   2.53499
    R9        2.03745  -0.00065   0.00000  -0.00151  -0.00151   2.03594
    A1        1.87237   0.03312   0.00000   0.11507   0.11562   1.98799
    A2        1.98272   0.00570   0.00000   0.05013   0.04986   2.03258
    A3        2.42809  -0.03882   0.00000  -0.16520  -0.16548   2.26261
    A4        1.94940  -0.02276   0.00000  -0.08627  -0.08611   1.86330
    A5        2.07855   0.01403   0.00000   0.05594   0.05586   2.13441
    A6        2.25523   0.00873   0.00000   0.03033   0.03025   2.28548
    A7        1.80383   0.00776   0.00000   0.03124   0.03073   1.83457
    A8        2.15030  -0.00610   0.00000  -0.02633  -0.02608   2.12422
    A9        2.32905  -0.00167   0.00000  -0.00491  -0.00465   2.32440
   A10        1.89381   0.00711   0.00000   0.02794   0.02746   1.92128
   A11        2.26645  -0.00115   0.00000  -0.00237  -0.00213   2.26432
   A12        2.12292  -0.00595   0.00000  -0.02558  -0.02534   2.09758
   A13        1.90535  -0.02523   0.00000  -0.08798  -0.08770   1.81765
    D1        0.00000  -0.00001   0.00000  -0.00018  -0.00018  -0.00018
    D2       -3.14046  -0.00001   0.00000  -0.00024  -0.00025  -3.14071
    D3        3.14159  -0.00000   0.00000  -0.00004  -0.00003   3.14156
    D4        0.00113  -0.00001   0.00000  -0.00011  -0.00010   0.00103
    D5        0.00000   0.00001   0.00000   0.00011   0.00012   0.00012
    D6        3.14159  -0.00000   0.00000  -0.00007  -0.00005   3.14154
    D7        0.00000   0.00001   0.00000   0.00016   0.00016   0.00016
    D8        3.14159   0.00000   0.00000   0.00006   0.00006  -3.14154
    D9        3.14031   0.00001   0.00000   0.00024   0.00024   3.14056
   D10       -0.00128   0.00001   0.00000   0.00014   0.00014  -0.00113
   D11        0.00000  -0.00001   0.00000  -0.00009  -0.00009  -0.00009
   D12        3.14159  -0.00001   0.00000  -0.00009  -0.00009   3.14150
   D13        3.14159   0.00000   0.00000   0.00003   0.00002  -3.14157
   D14        0.00000   0.00000   0.00000   0.00002   0.00003   0.00003
   D15        0.00000  -0.00000   0.00000  -0.00002  -0.00001  -0.00001
   D16        3.14159  -0.00000   0.00000  -0.00001  -0.00001   3.14158
         Item               Value     Threshold  Converged?
 Maximum Force            0.053977     0.000450     NO 
 RMS     Force            0.015431     0.000300     NO 
 Maximum Displacement     0.257681     0.001800     NO 
 RMS     Displacement     0.061216     0.001200     NO 
 Predicted change in Energy=-1.603802D-02
 GradGradGradGradGradGradGradGradGradGradGradGradGradGradGradGradGradGrad

                          Input orientation:                          
 ---------------------------------------------------------------------
 Center     Atomic      Atomic             Coordinates (Angstroms)
 Number     Number       Type             X           Y           Z
 ---------------------------------------------------------------------
      1          7           0        0.494556   -0.998729   -0.000069
      2          7           0        1.096768    0.188594   -0.000006
      3          6           0        0.135040    1.106142   -0.000078
      4          6           0       -1.054488    0.384777    0.000024
      5          7           0       -0.795015   -0.931350    0.000035
      6          1           0        0.358352    2.161770   -0.000099
      7          1           0       -2.072979    0.736068    0.000087
      8          1           0        2.112125    0.284547   -0.000837
      9          1           0        1.113141   -1.830220   -0.000057
 ---------------------------------------------------------------------
                    Distance matrix (angstroms):
                    1          2          3          4          5
     1  N    0.000000
     2  N    1.331313   0.000000
     3  C    2.135353   1.329216   0.000000
     4  C    2.076927   2.160183   1.391166   0.000000
     5  N    1.291330   2.198436   2.239727   1.341461   0.000000
     6  H    3.163432   2.106818   1.078990   2.270203   3.301159
     7  H    3.098670   3.216679   2.238817   1.077371   2.100827
     8  H    2.064783   1.019881   2.141001   3.168199   3.151170
     9  H    1.036352   2.018881   3.094980   3.099166   2.109272
                    6          7          8          9
     6  H    0.000000
     7  H    2.818510   0.000000
     8  H    2.568986   4.209391   0.000000
     9  H    4.062720   4.091112   2.338848   0.000000
 Stoichiometry    C2H4N3(1+)
 Framework group  C1[X(C2H4N3)]
 Deg. of freedom    21
 Full point group                 C1      NOp   1
 Largest Abelian subgroup         C1      NOp   1
 Largest concise Abelian subgroup C1      NOp   1
                         Standard orientation:                         
 ---------------------------------------------------------------------
 Center     Atomic      Atomic             Coordinates (Angstroms)
 Number     Number       Type             X           Y           Z
 ---------------------------------------------------------------------
      1          7           0       -0.720601   -0.763605    0.000029
      2          7           0       -0.930332    0.551084   -0.000035
      3          6           0        0.266154    1.130081    0.000037
      4          6           0        1.177666    0.079134   -0.000065
      5          7           0        0.527661   -1.094327   -0.000076
      6          1           0        0.376799    2.203383    0.000058
      7          1           0        2.254801    0.101691   -0.000128
      8          1           0       -1.867538    0.953329    0.000796
      9          1           0       -1.564075   -1.365749    0.000016
 ---------------------------------------------------------------------
 Rotational constants (GHZ):           9.9602002           9.4432655           4.8474235
 Standard basis: 6-31+G(d,p) (6D, 7F)
 There are   115 symmetry adapted cartesian basis functions of A   symmetry.
 There are   115 symmetry adapted basis functions of A   symmetry.
   115 basis functions,   188 primitive gaussians,   115 cartesian basis functions
    18 alpha electrons       18 beta electrons
       nuclear repulsion energy       175.8308266464 Hartrees.
 NAtoms=    9 NActive=    9 NUniq=    9 SFac= 1.00D+00 NAtFMM=   60 NAOKFM=F Big=F
 Integral buffers will be    131072 words long.
 Raffenetti 2 integral format.
 Two-electron integral symmetry is turned on.
 ------------------------------------------------------------------------------
 Polarizable Continuum Model (PCM)
 =================================
 Model                : PCM.
 Atomic radii         : SMD-Coulomb.
 Polarization charges : Total charges.
 Charge compensation  : None.
 Solution method      : On-the-fly selection.
 Cavity type          : VdW (van der Waals Surface) (Alpha=1.000).
 Cavity algorithm     : GePol (No added spheres)
                        Default sphere list used, NSphG=    9.
                        Lebedev-Laikov grids with approx.  5.0 points / Ang**2.
                        Smoothing algorithm: York/Karplus (Gamma=1.0000).
                        Polarization charges: spherical gaussians, with
                                              point-specific exponents (IZeta= 3).
                        Self-potential: point-specific (ISelfS= 7).
                        Self-field    : sphere-specific E.n sum rule (ISelfD= 2).
 1st derivatives      : Analytical E(r).r(x)/FMM algorithm (CHGder, D1EAlg=3).
                        Cavity 1st derivative terms included.
 Solvent              : Water, Eps=  78.355300 Eps(inf)=   1.777849
 ------------------------------------------------------------------------------
 Spheres list:
 ISph  on   Nord     Re0    Alpha      Xe            Ye            Ze
    1   N      1    1.8900  1.000     -0.720601     -0.763605      0.000029
    2   N      2    1.8900  1.000     -0.930332      0.551084     -0.000035
    3   C      3    1.8500  1.000      0.266154      1.130081      0.000037
    4   C      4    1.8500  1.000      1.177666      0.079134     -0.000065
    5   N      5    1.8900  1.000      0.527661     -1.094327     -0.000076
    6   H      6    1.2000  1.000      0.376799      2.203383      0.000058
    7   H      7    1.2000  1.000      2.254801      0.101691     -0.000128
    8   H      8    1.2000  1.000     -1.867538      0.953329      0.000796
    9   H      9    1.2000  1.000     -1.564075     -1.365749      0.000016
 ------------------------------------------------------------------------------
 ------------------------------------------------------------------------------
 Atomic radii for non-electrostatic terms: SMD-CDS.
 ------------------------------------------------------------------------------
 Nuclear repulsion after PCM non-electrostatic terms =      175.8343998263 Hartrees.
 One-electron integrals computed using PRISM.
 NBasis=   115 RedAO= T EigKep=  7.55D-05  NBF=   115
 NBsUse=   115 1.00D-06 EigRej= -1.00D+00 NBFU=   115
 Initial guess from the checkpoint file:  "/scratch/gongke2021/2-H-1-H-Tz/Gau-4270.chk"
 B after Tr=    -0.000000    0.000000   -0.000000
         Rot=    0.966551   -0.000008   -0.000006   -0.256474 Ang= -29.72 deg.
 ExpMin= 4.38D-02 ExpMax= 4.17D+03 ExpMxC= 6.27D+02 IAcc=2 IRadAn=         4 AccDes= 0.00D+00
 Harris functional with IExCor= 1009 and IRadAn=       4 diagonalized for initial guess.
 HarFok:  IExCor= 1009 AccDes= 0.00D+00 IRadAn=         4 IDoV= 1 UseB2=F ITyADJ=14
 ICtDFT=  3500011 ScaDFX=  1.000000  1.000000  1.000000  1.000000
 FoFCou: FMM=F IPFlag=           0 FMFlag=      100000 FMFlg1=           0
         NFxFlg=           0 DoJE=T BraDBF=F KetDBF=T FulRan=T
         wScrn=  0.000000 ICntrl=       500 IOpCl=  0 I1Cent=   200000004 NGrid=           0
         NMat0=    1 NMatS0=      1 NMatT0=    0 NMatD0=    1 NMtDS0=    0 NMtDT0=    0
 Petite list used in FoFCou.
 Keep R1 ints in memory in canonical form, NReq=44774372.
 Requested convergence on RMS density matrix=1.00D-08 within 128 cycles.
 Requested convergence on MAX density matrix=1.00D-06.
 Requested convergence on             energy=1.00D-06.
 No special actions if energy rises.
 Inv3:  Mode=1 IEnd=     2066700.
 Iteration    1 A*A^-1 deviation from unit magnitude is 2.66D-15 for    375.
 Iteration    1 A*A^-1 deviation from orthogonality  is 1.67D-15 for    581    243.
 Iteration    1 A^-1*A deviation from unit magnitude is 2.66D-15 for    375.
 Iteration    1 A^-1*A deviation from orthogonality  is 1.78D-15 for    685    101.
 Error on total polarization charges =  0.01488
 SCF Done:  E(RM062X) =  -242.579913820     A.U. after   12 cycles
            NFock= 12  Conv=0.22D-08     -V/T= 2.0089
 SMD-CDS (non-electrostatic) energy       (kcal/mol) =       2.24
 (included in total energy above)
 D1PCM: PCM CHGder 1st derivatives, ID1Alg=3 FixD1E=F DoIter=F DoCFld=F I1PDM=0.
 Calling FoFJK, ICntrl=      2127 FMM=F ISym2X=0 I1Cent= 0 IOpClX= 0 NMat=1 NMatS=1 NMatT=0.
 ***** Axes restored to original set *****
 -------------------------------------------------------------------
 Center     Atomic                   Forces (Hartrees/Bohr)
 Number     Number              X              Y              Z
 -------------------------------------------------------------------
      1        7           0.035724057   -0.011664075    0.000004781
      2        7          -0.021657450   -0.004945756   -0.000042319
      3        6           0.000586959    0.004373769    0.000013967
      4        6          -0.007664598    0.000673399    0.000003933
      5        7           0.009059748    0.007880097    0.000000620
      6        1          -0.001630190    0.000464251   -0.000003917
      7        1           0.000304599    0.002281846    0.000000127
      8        1           0.002045471   -0.001180220    0.000022917
      9        1          -0.016768595    0.002116690   -0.000000110
 -------------------------------------------------------------------
 Cartesian Forces:  Max     0.035724057 RMS     0.009482990

 GradGradGradGradGradGradGradGradGradGradGradGradGradGradGradGradGradGrad
 Berny optimization.
 Using GEDIIS/GDIIS optimizer.
 FormGI is forming the generalized inverse of G from B-inverse, IUseBI=4.
 Internal  Forces:  Max     0.018016826 RMS     0.005292317
 Search for a local minimum.
 Step number   2 out of a maximum of   48
 All quantities printed in internal units (Hartrees-Bohrs-Radians)
 Mixed Optimization -- RFO/linear search
 Update second derivatives using D2CorX and points    1    2
 DE= -1.37D-02 DEPred=-1.60D-02 R= 8.53D-01
 TightC=F SS=  1.41D+00  RLast= 3.00D-01 DXNew= 5.0454D-01 8.9997D-01
 Trust test= 8.53D-01 RLast= 3.00D-01 DXMaxT set to 5.05D-01
 ITU=  1  0
 Use linear search instead of GDIIS.
     Eigenvalues ---    0.02231   0.02297   0.02319   0.02373   0.02401
     Eigenvalues ---    0.02450   0.13492   0.16000   0.16000   0.16089
     Eigenvalues ---    0.22238   0.28789   0.35426   0.36192   0.36254
     Eigenvalues ---    0.45182   0.45962   0.48237   0.55198   0.57899
     Eigenvalues ---    0.66035
 RFO step:  Lambda=-4.45727989D-03 EMin= 2.23105195D-02
 Quartic linear search produced a step of -0.02638.
 Iteration  1 RMS(Cart)=  0.02429222 RMS(Int)=  0.00119637
 Iteration  2 RMS(Cart)=  0.00124926 RMS(Int)=  0.00001302
 Iteration  3 RMS(Cart)=  0.00000165 RMS(Int)=  0.00001293
 Iteration  4 RMS(Cart)=  0.00000000 RMS(Int)=  0.00001293
 Variable       Old X    -DE/DX   Delta X   Delta X   Delta X     New X
                                 (Linear)    (Quad)   (Total)
    R1        2.51582  -0.00647   0.00026  -0.01310  -0.01282   2.50299
    R2        2.44026   0.00051   0.00011  -0.00003   0.00010   2.44036
    R3        1.95842  -0.01171   0.00367  -0.06122  -0.05755   1.90087
    R4        2.51185   0.00523   0.00114   0.00055   0.00168   2.51353
    R5        1.92730   0.00193  -0.00051   0.00772   0.00721   1.93451
    R6        2.62892  -0.00343  -0.00090   0.00033  -0.00060   2.62832
    R7        2.03900   0.00012  -0.00003   0.00054   0.00051   2.03951
    R8        2.53499   0.00118   0.00107  -0.00505  -0.00397   2.53102
    R9        2.03594   0.00046   0.00004   0.00092   0.00096   2.03690
    A1        1.98799  -0.01212  -0.00305  -0.02982  -0.03284   1.95515
    A2        2.03258   0.01802  -0.00132   0.10658   0.10525   2.13783
    A3        2.26261  -0.00590   0.00437  -0.07676  -0.07241   2.19020
    A4        1.86330   0.00886   0.00227   0.02069   0.02296   1.88626
    A5        2.13441  -0.00577  -0.00147  -0.01573  -0.01721   2.11721
    A6        2.28548  -0.00309  -0.00080  -0.00496  -0.00576   2.27972
    A7        1.83457  -0.00206  -0.00081  -0.00224  -0.00309   1.83148
    A8        2.12422   0.00273   0.00069   0.00908   0.00979   2.13400
    A9        2.32440  -0.00067   0.00012  -0.00684  -0.00670   2.31770
   A10        1.92128  -0.00620  -0.00072  -0.01871  -0.01946   1.90181
   A11        2.26432   0.00078   0.00006  -0.00207  -0.00201   2.26232
   A12        2.09758   0.00542   0.00067   0.02079   0.02147   2.11905
   A13        1.81765   0.01151   0.00231   0.03009   0.03243   1.85008
    D1       -0.00018   0.00000   0.00000   0.00009   0.00009  -0.00009
    D2       -3.14071  -0.00001   0.00001  -0.00039  -0.00038  -3.14109
    D3        3.14156   0.00001   0.00000   0.00015   0.00015  -3.14147
    D4        0.00103  -0.00001   0.00000  -0.00032  -0.00032   0.00071
    D5        0.00012  -0.00000  -0.00000  -0.00006  -0.00006   0.00006
    D6        3.14154  -0.00000   0.00000  -0.00011  -0.00011   3.14143
    D7        0.00016  -0.00000  -0.00000  -0.00007  -0.00007   0.00008
    D8       -3.14154  -0.00000  -0.00000  -0.00008  -0.00009   3.14156
    D9        3.14056   0.00001  -0.00001   0.00045   0.00045   3.14101
   D10       -0.00113   0.00001  -0.00000   0.00044   0.00044  -0.00070
   D11       -0.00009   0.00000   0.00000   0.00004   0.00005  -0.00005
   D12        3.14150   0.00000   0.00000  -0.00001  -0.00001   3.14149
   D13       -3.14157   0.00000  -0.00000   0.00006   0.00006  -3.14151
   D14        0.00003   0.00000  -0.00000   0.00001   0.00001   0.00003
   D15       -0.00001   0.00000   0.00000   0.00001   0.00001  -0.00000
   D16        3.14158   0.00000   0.00000   0.00005   0.00005  -3.14155
         Item               Value     Threshold  Converged?
 Maximum Force            0.018017     0.000450     NO 
 RMS     Force            0.005292     0.000300     NO 
 Maximum Displacement     0.101165     0.001800     NO 
 RMS     Displacement     0.023887     0.001200     NO 
 Predicted change in Energy=-2.280345D-03
 GradGradGradGradGradGradGradGradGradGradGradGradGradGradGradGradGradGrad

                          Input orientation:                          
 ---------------------------------------------------------------------
 Center     Atomic      Atomic             Coordinates (Angstroms)
 Number     Number       Type             X           Y           Z
 ---------------------------------------------------------------------
      1          7           0        0.526432   -1.002460   -0.000118
      2          7           0        1.096709    0.193013   -0.000144
      3          6           0        0.133120    1.109894   -0.000125
      4          6           0       -1.052939    0.383448    0.000023
      5          7           0       -0.762570   -0.924056    0.000026
      6          1           0        0.344739    2.168205   -0.000112
      7          1           0       -2.072756    0.732445    0.000166
      8          1           0        2.115158    0.296542   -0.000691
      9          1           0        1.059607   -1.855429   -0.000024
 ---------------------------------------------------------------------
                    Distance matrix (angstroms):
                    1          2          3          4          5
     1  N    0.000000
     2  N    1.324527   0.000000
     3  C    2.148659   1.330103   0.000000
     4  C    2.101227   2.158067   1.390849   0.000000
     5  N    1.291385   2.169046   2.222434   1.339358   0.000000
     6  H    3.175867   2.113490   1.079261   2.266906   3.284541
     7  H    3.125008   3.215042   2.237936   1.077880   2.112009
     8  H    2.052183   1.023698   2.142433   3.169289   3.125888
     9  H    1.005898   2.048778   3.106690   3.078217   2.046408
                    6          7          8          9
     6  H    0.000000
     7  H    2.811706   0.000000
     8  H    2.576336   4.210539   0.000000
     9  H    4.086645   4.063101   2.396908   0.000000
 Stoichiometry    C2H4N3(1+)
 Framework group  C1[X(C2H4N3)]
 Deg. of freedom    21
 Full point group                 C1      NOp   1
 Largest Abelian subgroup         C1      NOp   1
 Largest concise Abelian subgroup C1      NOp   1
                         Standard orientation:                         
 ---------------------------------------------------------------------
 Center     Atomic      Atomic             Coordinates (Angstroms)
 Number     Number       Type             X           Y           Z
 ---------------------------------------------------------------------
      1          7           0       -0.897774   -0.571354    0.000039
      2          7           0       -0.768677    0.746866    0.000065
      3          6           0        0.529991    1.034330    0.000046
      4          6           0        1.170431   -0.200295   -0.000102
      5          7           0        0.246498   -1.169948   -0.000105
      6          1           0        0.895368    2.049862    0.000033
      7          1           0        2.223951   -0.428153   -0.000246
      8          1           0       -1.587310    1.361519    0.000612
      9          1           0       -1.794868   -1.026386   -0.000055
 ---------------------------------------------------------------------
 Rotational constants (GHZ):           9.8326165           9.6144178           4.8611465
 Standard basis: 6-31+G(d,p) (6D, 7F)
 There are   115 symmetry adapted cartesian basis functions of A   symmetry.
 There are   115 symmetry adapted basis functions of A   symmetry.
   115 basis functions,   188 primitive gaussians,   115 cartesian basis functions
    18 alpha electrons       18 beta electrons
       nuclear repulsion energy       176.1224579506 Hartrees.
 NAtoms=    9 NActive=    9 NUniq=    9 SFac= 1.00D+00 NAtFMM=   60 NAOKFM=F Big=F
 Integral buffers will be    131072 words long.
 Raffenetti 2 integral format.
 Two-electron integral symmetry is turned on.
 ------------------------------------------------------------------------------
 Polarizable Continuum Model (PCM)
 =================================
 Model                : PCM.
 Atomic radii         : SMD-Coulomb.
 Polarization charges : Total charges.
 Charge compensation  : None.
 Solution method      : On-the-fly selection.
 Cavity type          : VdW (van der Waals Surface) (Alpha=1.000).
 Cavity algorithm     : GePol (No added spheres)
                        Default sphere list used, NSphG=    9.
                        Lebedev-Laikov grids with approx.  5.0 points / Ang**2.
                        Smoothing algorithm: York/Karplus (Gamma=1.0000).
                        Polarization charges: spherical gaussians, with
                                              point-specific exponents (IZeta= 3).
                        Self-potential: point-specific (ISelfS= 7).
                        Self-field    : sphere-specific E.n sum rule (ISelfD= 2).
 1st derivatives      : Analytical E(r).r(x)/FMM algorithm (CHGder, D1EAlg=3).
                        Cavity 1st derivative terms included.
 Solvent              : Water, Eps=  78.355300 Eps(inf)=   1.777849
 ------------------------------------------------------------------------------
 Spheres list:
 ISph  on   Nord     Re0    Alpha      Xe            Ye            Ze
    1   N      1    1.8900  1.000     -0.897774     -0.571354      0.000039
    2   N      2    1.8900  1.000     -0.768677      0.746866      0.000065
    3   C      3    1.8500  1.000      0.529991      1.034330      0.000046
    4   C      4    1.8500  1.000      1.170431     -0.200295     -0.000102
    5   N      5    1.8900  1.000      0.246498     -1.169948     -0.000105
    6   H      6    1.2000  1.000      0.895368      2.049862      0.000033
    7   H      7    1.2000  1.000      2.223951     -0.428153     -0.000246
    8   H      8    1.2000  1.000     -1.587310      1.361519      0.000612
    9   H      9    1.2000  1.000     -1.794868     -1.026386     -0.000055
 ------------------------------------------------------------------------------
 ------------------------------------------------------------------------------
 Atomic radii for non-electrostatic terms: SMD-CDS.
 ------------------------------------------------------------------------------
 Nuclear repulsion after PCM non-electrostatic terms =      176.1261065719 Hartrees.
 One-electron integrals computed using PRISM.
 NBasis=   115 RedAO= T EigKep=  7.67D-05  NBF=   115
 NBsUse=   115 1.00D-06 EigRej= -1.00D+00 NBFU=   115
 Initial guess from the checkpoint file:  "/scratch/gongke2021/2-H-1-H-Tz/Gau-4270.chk"
 B after Tr=    -0.000000    0.000000    0.000000
         Rot=    0.992973   -0.000009   -0.000013    0.118343 Ang= -13.59 deg.
 ExpMin= 4.38D-02 ExpMax= 4.17D+03 ExpMxC= 6.27D+02 IAcc=2 IRadAn=         4 AccDes= 0.00D+00
 Harris functional with IExCor= 1009 and IRadAn=       4 diagonalized for initial guess.
 HarFok:  IExCor= 1009 AccDes= 0.00D+00 IRadAn=         4 IDoV= 1 UseB2=F ITyADJ=14
 ICtDFT=  3500011 ScaDFX=  1.000000  1.000000  1.000000  1.000000
 FoFCou: FMM=F IPFlag=           0 FMFlag=      100000 FMFlg1=           0
         NFxFlg=           0 DoJE=T BraDBF=F KetDBF=T FulRan=T
         wScrn=  0.000000 ICntrl=       500 IOpCl=  0 I1Cent=   200000004 NGrid=           0
         NMat0=    1 NMatS0=      1 NMatT0=    0 NMatD0=    1 NMtDS0=    0 NMtDT0=    0
 Petite list used in FoFCou.
 Keep R1 ints in memory in canonical form, NReq=44774372.
 Requested convergence on RMS density matrix=1.00D-08 within 128 cycles.
 Requested convergence on MAX density matrix=1.00D-06.
 Requested convergence on             energy=1.00D-06.
 No special actions if energy rises.
 Inv3:  Mode=1 IEnd=     2086668.
 Iteration    1 A*A^-1 deviation from unit magnitude is 2.89D-15 for    603.
 Iteration    1 A*A^-1 deviation from orthogonality  is 1.72D-15 for    365     12.
 Iteration    1 A^-1*A deviation from unit magnitude is 2.55D-15 for    603.
 Iteration    1 A^-1*A deviation from orthogonality  is 2.06D-14 for    741    709.
 Error on total polarization charges =  0.01499
 SCF Done:  E(RM062X) =  -242.581844848     A.U. after   11 cycles
            NFock= 11  Conv=0.44D-08     -V/T= 2.0087
 SMD-CDS (non-electrostatic) energy       (kcal/mol) =       2.29
 (included in total energy above)
 D1PCM: PCM CHGder 1st derivatives, ID1Alg=3 FixD1E=F DoIter=F DoCFld=F I1PDM=0.
 Calling FoFJK, ICntrl=      2127 FMM=F ISym2X=0 I1Cent= 0 IOpClX= 0 NMat=1 NMatS=1 NMatT=0.
 ***** Axes restored to original set *****
 -------------------------------------------------------------------
 Center     Atomic                   Forces (Hartrees/Bohr)
 Number     Number              X              Y              Z
 -------------------------------------------------------------------
      1        7          -0.002256287    0.014500836    0.000000472
      2        7           0.000405470   -0.001783513   -0.000022552
      3        6           0.000366530    0.001290003    0.000009890
      4        6          -0.000538636   -0.001277356    0.000003242
      5        7          -0.004034142   -0.001056037    0.000004104
      6        1           0.000248937   -0.000193409   -0.000005185
      7        1           0.000327765    0.000453213   -0.000002081
      8        1          -0.001329299    0.000084684    0.000014342
      9        1           0.006809661   -0.012018422   -0.000002233
 -------------------------------------------------------------------
 Cartesian Forces:  Max     0.014500836 RMS     0.004003801

 GradGradGradGradGradGradGradGradGradGradGradGradGradGradGradGradGradGrad
 Berny optimization.
 Using GEDIIS/GDIIS optimizer.
 FormGI is forming the generalized inverse of G from B-inverse, IUseBI=4.
 Internal  Forces:  Max     0.013795957 RMS     0.002369017
 Search for a local minimum.
 Step number   3 out of a maximum of   48
 All quantities printed in internal units (Hartrees-Bohrs-Radians)
 Mixed Optimization -- RFO/linear search
 Update second derivatives using D2CorX and points    1    2    3
 DE= -1.93D-03 DEPred=-2.28D-03 R= 8.47D-01
 TightC=F SS=  1.41D+00  RLast= 1.54D-01 DXNew= 8.4853D-01 4.6330D-01
 Trust test= 8.47D-01 RLast= 1.54D-01 DXMaxT set to 5.05D-01
 ITU=  1  1  0
 Use linear search instead of GDIIS.
     Eigenvalues ---    0.02230   0.02297   0.02306   0.02362   0.02400
     Eigenvalues ---    0.02445   0.12137   0.16000   0.16029   0.16087
     Eigenvalues ---    0.22270   0.33586   0.36192   0.36230   0.41574
     Eigenvalues ---    0.45402   0.46305   0.48129   0.54839   0.57405
     Eigenvalues ---    0.66489
 RFO step:  Lambda=-3.96037089D-04 EMin= 2.22979492D-02
 Quartic linear search produced a step of -0.13203.
 Iteration  1 RMS(Cart)=  0.00527308 RMS(Int)=  0.00002566
 Iteration  2 RMS(Cart)=  0.00002911 RMS(Int)=  0.00000251
 Iteration  3 RMS(Cart)=  0.00000000 RMS(Int)=  0.00000251
 Variable       Old X    -DE/DX   Delta X   Delta X   Delta X     New X
                                 (Linear)    (Quad)   (Total)
    R1        2.50299  -0.00184   0.00169  -0.00489  -0.00321   2.49979
    R2        2.44036   0.00356  -0.00001   0.00438   0.00436   2.44473
    R3        1.90087   0.01380   0.00760   0.02446   0.03205   1.93293
    R4        2.51353   0.00007  -0.00022   0.00005  -0.00017   2.51336
    R5        1.93451  -0.00131  -0.00095  -0.00109  -0.00204   1.93247
    R6        2.62832   0.00104   0.00008   0.00163   0.00171   2.63004
    R7        2.03951  -0.00014  -0.00007  -0.00022  -0.00029   2.03922
    R8        2.53102   0.00009   0.00052  -0.00034   0.00019   2.53121
    R9        2.03690  -0.00016  -0.00013  -0.00021  -0.00033   2.03656
    A1        1.95515   0.00049   0.00434  -0.00327   0.00106   1.95621
    A2        2.13783   0.00036  -0.01390   0.02145   0.00755   2.14538
    A3        2.19020  -0.00084   0.00956  -0.01817  -0.00861   2.18159
    A4        1.88626   0.00038  -0.00303   0.00393   0.00090   1.88716
    A5        2.11721  -0.00001   0.00227  -0.00196   0.00031   2.11751
    A6        2.27972  -0.00037   0.00076  -0.00197  -0.00121   2.27852
    A7        1.83148   0.00008   0.00041  -0.00096  -0.00055   1.83093
    A8        2.13400  -0.00036  -0.00129   0.00021  -0.00108   2.13292
    A9        2.31770   0.00028   0.00088   0.00075   0.00163   2.31934
   A10        1.90181   0.00033   0.00257  -0.00175   0.00083   1.90264
   A11        2.26232  -0.00075   0.00026  -0.00413  -0.00386   2.25845
   A12        2.11905   0.00042  -0.00283   0.00587   0.00304   2.12209
   A13        1.85008  -0.00127  -0.00428   0.00205  -0.00223   1.84785
    D1       -0.00009  -0.00000  -0.00001   0.00001  -0.00001  -0.00010
    D2       -3.14109  -0.00000   0.00005  -0.00029  -0.00024  -3.14133
    D3       -3.14147  -0.00000  -0.00002   0.00003   0.00001  -3.14146
    D4        0.00071  -0.00000   0.00004  -0.00027  -0.00023   0.00049
    D5        0.00006   0.00000   0.00001   0.00001   0.00002   0.00008
    D6        3.14143   0.00000   0.00001  -0.00001   0.00001   3.14144
    D7        0.00008  -0.00000   0.00001  -0.00002  -0.00001   0.00007
    D8        3.14156   0.00000   0.00001   0.00002   0.00003  -3.14159
    D9        3.14101   0.00001  -0.00006   0.00031   0.00026   3.14126
   D10       -0.00070   0.00001  -0.00006   0.00036   0.00030  -0.00040
   D11       -0.00005   0.00000  -0.00001   0.00003   0.00002  -0.00002
   D12        3.14149   0.00000   0.00000   0.00005   0.00005   3.14155
   D13       -3.14151  -0.00000  -0.00001  -0.00002  -0.00003  -3.14154
   D14        0.00003  -0.00000  -0.00000   0.00000   0.00000   0.00003
   D15       -0.00000  -0.00000  -0.00000  -0.00003  -0.00003  -0.00003
   D16       -3.14155  -0.00000  -0.00001  -0.00005  -0.00005   3.14158
         Item               Value     Threshold  Converged?
 Maximum Force            0.013796     0.000450     NO 
 RMS     Force            0.002369     0.000300     NO 
 Maximum Displacement     0.028285     0.001800     NO 
 RMS     Displacement     0.005274     0.001200     NO 
 Predicted change in Energy=-2.444246D-04
 GradGradGradGradGradGradGradGradGradGradGradGradGradGradGradGradGradGrad

                          Input orientation:                          
 ---------------------------------------------------------------------
 Center     Atomic      Atomic             Coordinates (Angstroms)
 Number     Number       Type             X           Y           Z
 ---------------------------------------------------------------------
      1          7           0        0.527759   -0.999595   -0.000147
      2          7           0        1.095922    0.195006   -0.000198
      3          6           0        0.132158    1.111575   -0.000137
      4          6           0       -1.054086    0.383694    0.000047
      5          7           0       -0.763719   -0.923911    0.000060
      6          1           0        0.344618    2.169561   -0.000162
      7          1           0       -2.072665    0.735748    0.000186
      8          1           0        2.113145    0.299918   -0.000582
      9          1           0        1.064367   -1.870397   -0.000066
 ---------------------------------------------------------------------
                    Distance matrix (angstroms):
                    1          2          3          4          5
     1  N    0.000000
     2  N    1.322831   0.000000
     3  C    2.147915   1.330015   0.000000
     4  C    2.101363   2.158272   1.391756   0.000000
     5  N    1.293694   2.170309   2.223915   1.339457   0.000000
     6  H    3.174444   2.112658   1.079108   2.268412   3.286028
     7  H    3.126279   3.214397   2.236625   1.077704   2.113719
     8  H    2.049923   1.022619   2.140817   3.168339   3.126356
     9  H    1.022861   2.065644   3.124287   3.093343   2.058576
                    6          7          8          9
     6  H    0.000000
     7  H    2.810531   0.000000
     8  H    2.573568   4.208439   0.000000
     9  H    4.103572   4.078353   2.410436   0.000000
 Stoichiometry    C2H4N3(1+)
 Framework group  C1[X(C2H4N3)]
 Deg. of freedom    21
 Full point group                 C1      NOp   1
 Largest Abelian subgroup         C1      NOp   1
 Largest concise Abelian subgroup C1      NOp   1
                         Standard orientation:                         
 ---------------------------------------------------------------------
 Center     Atomic      Atomic             Coordinates (Angstroms)
 Number     Number       Type             X           Y           Z
 ---------------------------------------------------------------------
      1          7           0       -0.904827   -0.558516    0.000062
      2          7           0       -0.759167    0.756271    0.000113
      3          6           0        0.542721    1.028350    0.000052
      4          6           0        1.168252   -0.214910   -0.000133
      5          7           0        0.233124   -1.173910   -0.000146
      6          1           0        0.918923    2.039758    0.000077
      7          1           0        2.219626   -0.451678   -0.000271
      8          1           0       -1.568871    1.380873    0.000497
      9          1           0       -1.819425   -1.016506   -0.000020
 ---------------------------------------------------------------------
 Rotational constants (GHZ):           9.8216507           9.6058374           4.8562727
 Standard basis: 6-31+G(d,p) (6D, 7F)
 There are   115 symmetry adapted cartesian basis functions of A   symmetry.
 There are   115 symmetry adapted basis functions of A   symmetry.
   115 basis functions,   188 primitive gaussians,   115 cartesian basis functions
    18 alpha electrons       18 beta electrons
       nuclear repulsion energy       175.9986375001 Hartrees.
 NAtoms=    9 NActive=    9 NUniq=    9 SFac= 1.00D+00 NAtFMM=   60 NAOKFM=F Big=F
 Integral buffers will be    131072 words long.
 Raffenetti 2 integral format.
 Two-electron integral symmetry is turned on.
 ------------------------------------------------------------------------------
 Polarizable Continuum Model (PCM)
 =================================
 Model                : PCM.
 Atomic radii         : SMD-Coulomb.
 Polarization charges : Total charges.
 Charge compensation  : None.
 Solution method      : On-the-fly selection.
 Cavity type          : VdW (van der Waals Surface) (Alpha=1.000).
 Cavity algorithm     : GePol (No added spheres)
                        Default sphere list used, NSphG=    9.
                        Lebedev-Laikov grids with approx.  5.0 points / Ang**2.
                        Smoothing algorithm: York/Karplus (Gamma=1.0000).
                        Polarization charges: spherical gaussians, with
                                              point-specific exponents (IZeta= 3).
                        Self-potential: point-specific (ISelfS= 7).
                        Self-field    : sphere-specific E.n sum rule (ISelfD= 2).
 1st derivatives      : Analytical E(r).r(x)/FMM algorithm (CHGder, D1EAlg=3).
                        Cavity 1st derivative terms included.
 Solvent              : Water, Eps=  78.355300 Eps(inf)=   1.777849
 ------------------------------------------------------------------------------
 Spheres list:
 ISph  on   Nord     Re0    Alpha      Xe            Ye            Ze
    1   N      1    1.8900  1.000     -0.904827     -0.558516      0.000062
    2   N      2    1.8900  1.000     -0.759167      0.756271      0.000113
    3   C      3    1.8500  1.000      0.542721      1.028350      0.000052
    4   C      4    1.8500  1.000      1.168252     -0.214910     -0.000133
    5   N      5    1.8900  1.000      0.233124     -1.173910     -0.000146
    6   H      6    1.2000  1.000      0.918923      2.039758      0.000077
    7   H      7    1.2000  1.000      2.219626     -0.451678     -0.000271
    8   H      8    1.2000  1.000     -1.568871      1.380873      0.000497
    9   H      9    1.2000  1.000     -1.819425     -1.016506     -0.000020
 ------------------------------------------------------------------------------
 ------------------------------------------------------------------------------
 Atomic radii for non-electrostatic terms: SMD-CDS.
 ------------------------------------------------------------------------------
 Nuclear repulsion after PCM non-electrostatic terms =      176.0023020815 Hartrees.
 One-electron integrals computed using PRISM.
 NBasis=   115 RedAO= T EigKep=  7.69D-05  NBF=   115
 NBsUse=   115 1.00D-06 EigRej= -1.00D+00 NBFU=   115
 Initial guess from the checkpoint file:  "/scratch/gongke2021/2-H-1-H-Tz/Gau-4270.chk"
 B after Tr=     0.000000    0.000000    0.000000
         Rot=    0.999982   -0.000008   -0.000009    0.006023 Ang=  -0.69 deg.
 ExpMin= 4.38D-02 ExpMax= 4.17D+03 ExpMxC= 6.27D+02 IAcc=2 IRadAn=         4 AccDes= 0.00D+00
 Harris functional with IExCor= 1009 and IRadAn=       4 diagonalized for initial guess.
 HarFok:  IExCor= 1009 AccDes= 0.00D+00 IRadAn=         4 IDoV= 1 UseB2=F ITyADJ=14
 ICtDFT=  3500011 ScaDFX=  1.000000  1.000000  1.000000  1.000000
 FoFCou: FMM=F IPFlag=           0 FMFlag=      100000 FMFlg1=           0
         NFxFlg=           0 DoJE=T BraDBF=F KetDBF=T FulRan=T
         wScrn=  0.000000 ICntrl=       500 IOpCl=  0 I1Cent=   200000004 NGrid=           0
         NMat0=    1 NMatS0=      1 NMatT0=    0 NMatD0=    1 NMtDS0=    0 NMtDT0=    0
 Petite list used in FoFCou.
 Keep R1 ints in memory in canonical form, NReq=44774372.
 Requested convergence on RMS density matrix=1.00D-08 within 128 cycles.
 Requested convergence on MAX density matrix=1.00D-06.
 Requested convergence on             energy=1.00D-06.
 No special actions if energy rises.
 Inv3:  Mode=1 IEnd=     2096688.
 Iteration    1 A*A^-1 deviation from unit magnitude is 2.66D-15 for    206.
 Iteration    1 A*A^-1 deviation from orthogonality  is 1.78D-15 for    601    128.
 Iteration    1 A^-1*A deviation from unit magnitude is 2.66D-15 for    211.
 Iteration    1 A^-1*A deviation from orthogonality  is 6.98D-14 for    745    713.
 Error on total polarization charges =  0.01514
 SCF Done:  E(RM062X) =  -242.582076715     A.U. after   10 cycles
            NFock= 10  Conv=0.80D-08     -V/T= 2.0088
 SMD-CDS (non-electrostatic) energy       (kcal/mol) =       2.30
 (included in total energy above)
 D1PCM: PCM CHGder 1st derivatives, ID1Alg=3 FixD1E=F DoIter=F DoCFld=F I1PDM=0.
 Calling FoFJK, ICntrl=      2127 FMM=F ISym2X=0 I1Cent= 0 IOpClX= 0 NMat=1 NMatS=1 NMatT=0.
 ***** Axes restored to original set *****
 -------------------------------------------------------------------
 Center     Atomic                   Forces (Hartrees/Bohr)
 Number     Number              X              Y              Z
 -------------------------------------------------------------------
      1        7           0.002350656   -0.000366892    0.000007735
      2        7           0.000297943   -0.001344558   -0.000015190
      3        6          -0.000387256    0.000792075    0.000006591
      4        6           0.000163018   -0.000494622    0.000002530
      5        7          -0.001766803   -0.000131031   -0.000002670
      6        1           0.000123352   -0.000050312   -0.000002988
      7        1           0.000079555    0.000196414   -0.000000321
      8        1          -0.000471234    0.000095952    0.000007237
      9        1          -0.000389232    0.001302974   -0.000002925
 -------------------------------------------------------------------
 Cartesian Forces:  Max     0.002350656 RMS     0.000717189

 GradGradGradGradGradGradGradGradGradGradGradGradGradGradGradGradGradGrad
 Berny optimization.
 Using GEDIIS/GDIIS optimizer.
 FormGI is forming the generalized inverse of G from B-inverse, IUseBI=4.
 Internal  Forces:  Max     0.001573231 RMS     0.000407353
 Search for a local minimum.
 Step number   4 out of a maximum of   48
 All quantities printed in internal units (Hartrees-Bohrs-Radians)
 Mixed Optimization -- En-DIIS/RFO-DIIS
 Update second derivatives using D2CorX and points    1    2    3    4
 DE= -2.32D-04 DEPred=-2.44D-04 R= 9.49D-01
 TightC=F SS=  1.41D+00  RLast= 3.51D-02 DXNew= 8.4853D-01 1.0534D-01
 Trust test= 9.49D-01 RLast= 3.51D-02 DXMaxT set to 5.05D-01
 ITU=  1  1  1  0
 Use linear search instead of GDIIS.
     Eigenvalues ---    0.02229   0.02296   0.02305   0.02361   0.02400
     Eigenvalues ---    0.02444   0.12461   0.15997   0.16000   0.16088
     Eigenvalues ---    0.22234   0.34223   0.36192   0.36239   0.45136
     Eigenvalues ---    0.45944   0.47099   0.48098   0.54712   0.58111
     Eigenvalues ---    0.64191
 RFO step:  Lambda=-1.10648002D-05 EMin= 2.22944127D-02
 Quartic linear search produced a step of -0.05903.
 Iteration  1 RMS(Cart)=  0.00111926 RMS(Int)=  0.00000113
 Iteration  2 RMS(Cart)=  0.00000132 RMS(Int)=  0.00000008
 Iteration  3 RMS(Cart)=  0.00000000 RMS(Int)=  0.00000008
 Variable       Old X    -DE/DX   Delta X   Delta X   Delta X     New X
                                 (Linear)    (Quad)   (Total)
    R1        2.49979  -0.00096   0.00019  -0.00187  -0.00168   2.49811
    R2        2.44473   0.00157  -0.00026   0.00262   0.00236   2.44708
    R3        1.93293  -0.00132  -0.00189  -0.00060  -0.00249   1.93044
    R4        2.51336   0.00040   0.00001   0.00059   0.00060   2.51396
    R5        1.93247  -0.00046   0.00012  -0.00114  -0.00102   1.93145
    R6        2.63004   0.00014  -0.00010   0.00035   0.00025   2.63028
    R7        2.03922  -0.00002   0.00002  -0.00009  -0.00007   2.03915
    R8        2.53121   0.00005  -0.00001   0.00023   0.00022   2.53143
    R9        2.03656  -0.00001   0.00002  -0.00005  -0.00003   2.03653
    A1        1.95621   0.00008  -0.00006   0.00035   0.00029   1.95649
    A2        2.14538  -0.00035  -0.00045  -0.00133  -0.00178   2.14361
    A3        2.18159   0.00027   0.00051   0.00098   0.00149   2.18309
    A4        1.88716   0.00024  -0.00005   0.00083   0.00078   1.88794
    A5        2.11751  -0.00001  -0.00002   0.00030   0.00028   2.11779
    A6        2.27852  -0.00023   0.00007  -0.00113  -0.00106   2.27745
    A7        1.83093  -0.00007   0.00003  -0.00081  -0.00078   1.83015
    A8        2.13292  -0.00013   0.00006  -0.00065  -0.00059   2.13233
    A9        2.31934   0.00020  -0.00010   0.00147   0.00137   2.32071
   A10        1.90264   0.00022  -0.00005   0.00103   0.00098   1.90362
   A11        2.25845  -0.00036   0.00023  -0.00232  -0.00210   2.25636
   A12        2.12209   0.00014  -0.00018   0.00129   0.00111   2.12320
   A13        1.84785  -0.00047   0.00013  -0.00140  -0.00127   1.84658
    D1       -0.00010   0.00000   0.00000   0.00008   0.00008  -0.00002
    D2       -3.14133  -0.00000   0.00001  -0.00009  -0.00007  -3.14141
    D3       -3.14146  -0.00000  -0.00000  -0.00001  -0.00001  -3.14147
    D4        0.00049  -0.00000   0.00001  -0.00018  -0.00017   0.00032
    D5        0.00008  -0.00000  -0.00000  -0.00007  -0.00007   0.00000
    D6        3.14144   0.00000  -0.00000   0.00002   0.00002   3.14146
    D7        0.00007  -0.00000   0.00000  -0.00005  -0.00005   0.00002
    D8       -3.14159  -0.00000  -0.00000   0.00000  -0.00000  -3.14159
    D9        3.14126   0.00000  -0.00002   0.00014   0.00012   3.14139
   D10       -0.00040   0.00000  -0.00002   0.00019   0.00017  -0.00023
   D11       -0.00002   0.00000  -0.00000   0.00001   0.00000  -0.00002
   D12        3.14155   0.00000  -0.00000   0.00005   0.00005   3.14159
   D13       -3.14154  -0.00000   0.00000  -0.00005  -0.00005  -3.14159
   D14        0.00003  -0.00000  -0.00000  -0.00001  -0.00001   0.00002
   D15       -0.00003   0.00000   0.00000   0.00004   0.00004   0.00001
   D16        3.14158   0.00000   0.00000   0.00000   0.00000   3.14158
         Item               Value     Threshold  Converged?
 Maximum Force            0.001573     0.000450     NO 
 RMS     Force            0.000407     0.000300     NO 
 Maximum Displacement     0.003898     0.001800     NO 
 RMS     Displacement     0.001119     0.001200     YES
 Predicted change in Energy=-6.512432D-06
 GradGradGradGradGradGradGradGradGradGradGradGradGradGradGradGradGradGrad

                          Input orientation:                          
 ---------------------------------------------------------------------
 Center     Atomic      Atomic             Coordinates (Angstroms)
 Number     Number       Type             X           Y           Z
 ---------------------------------------------------------------------
      1          7           0        0.528046   -0.999780   -0.000134
      2          7           0        1.095444    0.194200   -0.000234
      3          6           0        0.131873    1.111431   -0.000132
      4          6           0       -1.054249    0.383104    0.000064
      5          7           0       -0.764723   -0.924808    0.000049
      6          1           0        0.345439    2.169158   -0.000184
      7          1           0       -2.072185    0.736960    0.000195
      8          1           0        2.112068    0.299668   -0.000543
      9          1           0        1.065788   -1.868334   -0.000081
 ---------------------------------------------------------------------
                    Distance matrix (angstroms):
                    1          2          3          4          5
     1  N    0.000000
     2  N    1.321941   0.000000
     3  C    2.148060   1.330331   0.000000
     4  C    2.101434   2.157977   1.391886   0.000000
     5  N    1.294941   2.170807   2.224895   1.339575   0.000000
     6  H    3.174194   2.112573   1.079072   2.269166   3.287109
     7  H    3.126894   3.213793   2.235644   1.077686   2.114458
     8  H    2.048826   1.022080   2.140124   3.167417   3.126543
     9  H    1.021544   2.062747   3.122691   3.092496   2.059372
                    6          7          8          9
     6  H    0.000000
     7  H    2.809999   0.000000
     8  H    2.572153   4.207042   0.000000
     9  H    4.101249   4.078533   2.407267   0.000000
 Stoichiometry    C2H4N3(1+)
 Framework group  C1[X(C2H4N3)]
 Deg. of freedom    21
 Full point group                 C1      NOp   1
 Largest Abelian subgroup         C1      NOp   1
 Largest concise Abelian subgroup C1      NOp   1
                         Standard orientation:                         
 ---------------------------------------------------------------------
 Center     Atomic      Atomic             Coordinates (Angstroms)
 Number     Number       Type             X           Y           Z
 ---------------------------------------------------------------------
      1          7           0       -0.904014   -0.559917    0.000046
      2          7           0       -0.760752    0.754238    0.000146
      3          6           0        0.540753    1.029678    0.000044
      4          6           0        1.168520   -0.212600   -0.000152
      5          7           0        0.235936   -1.174237   -0.000137
      6          1           0        0.913782    2.042222    0.000096
      7          1           0        2.220780   -0.445317   -0.000283
      8          1           0       -1.570947    1.377321    0.000455
      9          1           0       -1.817447   -1.017292   -0.000007
 ---------------------------------------------------------------------
 Rotational constants (GHZ):           9.8214772           9.6032654           4.8555728
 Standard basis: 6-31+G(d,p) (6D, 7F)
 There are   115 symmetry adapted cartesian basis functions of A   symmetry.
 There are   115 symmetry adapted basis functions of A   symmetry.
   115 basis functions,   188 primitive gaussians,   115 cartesian basis functions
    18 alpha electrons       18 beta electrons
       nuclear repulsion energy       175.9898931743 Hartrees.
 NAtoms=    9 NActive=    9 NUniq=    9 SFac= 1.00D+00 NAtFMM=   60 NAOKFM=F Big=F
 Integral buffers will be    131072 words long.
 Raffenetti 2 integral format.
 Two-electron integral symmetry is turned on.
 ------------------------------------------------------------------------------
 Polarizable Continuum Model (PCM)
 =================================
 Model                : PCM.
 Atomic radii         : SMD-Coulomb.
 Polarization charges : Total charges.
 Charge compensation  : None.
 Solution method      : On-the-fly selection.
 Cavity type          : VdW (van der Waals Surface) (Alpha=1.000).
 Cavity algorithm     : GePol (No added spheres)
                        Default sphere list used, NSphG=    9.
                        Lebedev-Laikov grids with approx.  5.0 points / Ang**2.
                        Smoothing algorithm: York/Karplus (Gamma=1.0000).
                        Polarization charges: spherical gaussians, with
                                              point-specific exponents (IZeta= 3).
                        Self-potential: point-specific (ISelfS= 7).
                        Self-field    : sphere-specific E.n sum rule (ISelfD= 2).
 1st derivatives      : Analytical E(r).r(x)/FMM algorithm (CHGder, D1EAlg=3).
                        Cavity 1st derivative terms included.
 Solvent              : Water, Eps=  78.355300 Eps(inf)=   1.777849
 ------------------------------------------------------------------------------
 Spheres list:
 ISph  on   Nord     Re0    Alpha      Xe            Ye            Ze
    1   N      1    1.8900  1.000     -0.904014     -0.559917      0.000046
    2   N      2    1.8900  1.000     -0.760752      0.754238      0.000146
    3   C      3    1.8500  1.000      0.540753      1.029678      0.000044
    4   C      4    1.8500  1.000      1.168520     -0.212600     -0.000152
    5   N      5    1.8900  1.000      0.235936     -1.174237     -0.000137
    6   H      6    1.2000  1.000      0.913782      2.042222      0.000096
    7   H      7    1.2000  1.000      2.220780     -0.445317     -0.000283
    8   H      8    1.2000  1.000     -1.570947      1.377321      0.000455
    9   H      9    1.2000  1.000     -1.817447     -1.017292     -0.000007
 ------------------------------------------------------------------------------
 ------------------------------------------------------------------------------
 Atomic radii for non-electrostatic terms: SMD-CDS.
 ------------------------------------------------------------------------------
 Nuclear repulsion after PCM non-electrostatic terms =      175.9935552759 Hartrees.
 One-electron integrals computed using PRISM.
 NBasis=   115 RedAO= T EigKep=  7.70D-05  NBF=   115
 NBsUse=   115 1.00D-06 EigRej= -1.00D+00 NBFU=   115
 Initial guess from the checkpoint file:  "/scratch/gongke2021/2-H-1-H-Tz/Gau-4270.chk"
 B after Tr=    -0.000000    0.000000   -0.000000
         Rot=    0.999999   -0.000002   -0.000003   -0.001027 Ang=  -0.12 deg.
 Keep R1 ints in memory in canonical form, NReq=44774372.
 Requested convergence on RMS density matrix=1.00D-08 within 128 cycles.
 Requested convergence on MAX density matrix=1.00D-06.
 Requested convergence on             energy=1.00D-06.
 No special actions if energy rises.
 Inv3:  Mode=1 IEnd=     2096688.
 Iteration    1 A*A^-1 deviation from unit magnitude is 2.66D-15 for    220.
 Iteration    1 A*A^-1 deviation from orthogonality  is 1.57D-15 for    736    172.
 Iteration    1 A^-1*A deviation from unit magnitude is 2.66D-15 for    220.
 Iteration    1 A^-1*A deviation from orthogonality  is 1.01D-13 for    756    713.
 Error on total polarization charges =  0.01513
 SCF Done:  E(RM062X) =  -242.582083487     A.U. after    9 cycles
            NFock=  9  Conv=0.32D-08     -V/T= 2.0088
 SMD-CDS (non-electrostatic) energy       (kcal/mol) =       2.30
 (included in total energy above)
 D1PCM: PCM CHGder 1st derivatives, ID1Alg=3 FixD1E=F DoIter=F DoCFld=F I1PDM=0.
 Calling FoFJK, ICntrl=      2127 FMM=F ISym2X=0 I1Cent= 0 IOpClX= 0 NMat=1 NMatS=1 NMatT=0.
 ***** Axes restored to original set *****
 -------------------------------------------------------------------
 Center     Atomic                   Forces (Hartrees/Bohr)
 Number     Number              X              Y              Z
 -------------------------------------------------------------------
      1        7           0.000741065    0.000098400   -0.000000425
      2        7          -0.000153593   -0.000470462   -0.000004751
      3        6          -0.000137302    0.000238962    0.000001937
      4        6           0.000135311   -0.000354336   -0.000001866
      5        7          -0.000593778    0.000163294    0.000004430
      6        1           0.000037029   -0.000018858   -0.000001472
      7        1          -0.000009428    0.000034990    0.000000220
      8        1           0.000011853    0.000090247    0.000005004
      9        1          -0.000031156    0.000217762   -0.000003077
 -------------------------------------------------------------------
 Cartesian Forces:  Max     0.000741065 RMS     0.000232749

 GradGradGradGradGradGradGradGradGradGradGradGradGradGradGradGradGradGrad
 Berny optimization.
 Using GEDIIS/GDIIS optimizer.
 FormGI is forming the generalized inverse of G from B-inverse, IUseBI=4.
 Internal  Forces:  Max     0.000507246 RMS     0.000117869
 Search for a local minimum.
 Step number   5 out of a maximum of   48
 All quantities printed in internal units (Hartrees-Bohrs-Radians)
 Mixed Optimization -- En-DIIS/RFO-DIIS
 Swapping is turned off.
[...]
 Vibrational             46.650              6.797              2.197
 Vibration     1          0.966              1.016              0.437
                       Q            Log10(Q)             Ln(Q)
 Total Bot       0.180404D-21        -21.743755        -50.066846
 Total V=0       0.118324D+13         12.073073         27.799277
 Vib (Bot)       0.193075D-33        -33.714275        -77.629987
 Vib (Bot)    1  0.244048D+00         -0.612524         -1.410388
 Vib (V=0)       0.126635D+01          0.102553          0.236136
 Vib (V=0)    1  0.105638D+01          0.023821          0.054849
 Electronic      0.100000D+01          0.000000          0.000000
 Translational   0.230398D+08          7.362478         16.952732
 Rotational      0.405548D+05          4.608042         10.610409
 ***** Axes restored to original set *****
 -------------------------------------------------------------------
 Center     Atomic                   Forces (Hartrees/Bohr)
 Number     Number              X              Y              Z
 -------------------------------------------------------------------
      1        7           0.000036165    0.000000048    0.000012004
      2        7          -0.000043118    0.000005574   -0.000010602
      3        6           0.000003296    0.000033503    0.000003041
      4        6          -0.000006041   -0.000076294    0.000003856
      5        7          -0.000029345    0.000037527   -0.000010352
      6        1          -0.000015980   -0.000001000    0.000000047
      7        1          -0.000012711   -0.000035631    0.000000749
      8        1           0.000024769    0.000046050    0.000001032
      9        1           0.000042966   -0.000009775    0.000000227
 -------------------------------------------------------------------
 Cartesian Forces:  Max     0.000076294 RMS     0.000026674
 FormGI is forming the generalized inverse of G from B-inverse, IUseBI=4.

 GradGradGradGradGradGradGradGradGradGradGradGradGradGradGradGradGradGrad
 Berny optimization.
 Internal  Forces:  Max     0.000038159 RMS     0.000013429
 Search for a local minimum.
 Step number   1 out of a maximum of    2
 All quantities printed in internal units (Hartrees-Bohrs-Radians)
 Second derivative matrix not updated -- analytic derivatives used.
 ITU=  0
     Eigenvalues ---    0.00774   0.01216   0.01572   0.02894   0.05967
     Eigenvalues ---    0.06436   0.09832   0.10727   0.11325   0.12698
     Eigenvalues ---    0.24951   0.27984   0.38931   0.39082   0.41304
     Eigenvalues ---    0.43616   0.44161   0.44905   0.47875   0.54348
     Eigenvalues ---    0.62318
 Angle between quadratic step and forces=  43.64 degrees.
 Linear search not attempted -- first point.
 Iteration  1 RMS(Cart)=  0.00007884 RMS(Int)=  0.00000001
 Iteration  2 RMS(Cart)=  0.00000001 RMS(Int)=  0.00000001
 Variable       Old X    -DE/DX   Delta X   Delta X   Delta X     New X
                                 (Linear)    (Quad)   (Total)
    R1        2.49716   0.00001   0.00000   0.00001   0.00001   2.49718
    R2        2.44825   0.00003   0.00000   0.00009   0.00009   2.44834
    R3        1.92991   0.00003   0.00000   0.00006   0.00006   1.92997
    R4        2.51415  -0.00001   0.00000  -0.00003  -0.00003   2.51412
    R5        1.93147   0.00003   0.00000   0.00007   0.00007   1.93153
    R6        2.63036   0.00003   0.00000   0.00009   0.00009   2.63046
    R7        2.03911  -0.00000   0.00000  -0.00000  -0.00000   2.03911
    R8        2.53100  -0.00004   0.00000  -0.00012  -0.00012   2.53088
    R9        2.03661   0.00000   0.00000   0.00001   0.00001   2.03662
    A1        1.95645  -0.00002   0.00000  -0.00007  -0.00007   1.95637
    A2        2.14338   0.00001   0.00000   0.00004   0.00004   2.14341
    A3        2.18336   0.00001   0.00000   0.00004   0.00004   2.18340
    A4        1.88837   0.00001   0.00000   0.00007   0.00007   1.88843
    A5        2.11810   0.00001   0.00000   0.00011   0.00011   2.11821
    A6        2.27672  -0.00002   0.00000  -0.00017  -0.00017   2.27654
    A7        1.82972  -0.00001   0.00000  -0.00005  -0.00005   1.82967
    A8        2.13191  -0.00001   0.00000  -0.00011  -0.00011   2.13180
    A9        2.32155   0.00002   0.00000   0.00017   0.00017   2.32172
   A10        1.90410   0.00001   0.00000   0.00003   0.00003   1.90413
   A11        2.25546   0.00000   0.00000   0.00002   0.00002   2.25548
   A12        2.12362  -0.00001   0.00000  -0.00005  -0.00005   2.12357
   A13        1.84614   0.00001   0.00000   0.00003   0.00003   1.84618
    D1       -0.00010   0.00000   0.00000   0.00010   0.00010  -0.00000
    D2       -3.14156   0.00000   0.00000  -0.00003  -0.00003  -3.14159
    D3       -3.14155   0.00000   0.00000  -0.00003  -0.00003  -3.14158
    D4        0.00018  -0.00000   0.00000  -0.00016  -0.00016   0.00002
    D5        0.00010  -0.00000   0.00000  -0.00010  -0.00010   0.00000
    D6        3.14154  -0.00000   0.00000   0.00004   0.00004   3.14158
    D7        0.00006  -0.00000   0.00000  -0.00006  -0.00006   0.00000
    D8       -3.14155  -0.00000   0.00000  -0.00004  -0.00004  -3.14159
    D9        3.14150   0.00000   0.00000   0.00009   0.00009   3.14159
   D10       -0.00011   0.00000   0.00000   0.00010   0.00010  -0.00000
   D11       -0.00000  -0.00000   0.00000  -0.00000  -0.00000  -0.00000
   D12        3.14158   0.00000   0.00000   0.00001   0.00001   3.14159
   D13       -3.14158  -0.00000   0.00000  -0.00002  -0.00002   3.14159
   D14       -0.00000   0.00000   0.00000  -0.00000  -0.00000  -0.00001
   D15       -0.00006   0.00000   0.00000   0.00006   0.00006  -0.00000
   D16        3.14155   0.00000   0.00000   0.00004   0.00004   3.14159
         Item               Value     Threshold  Converged?
 Maximum Force            0.000038     0.000450     YES
 RMS     Force            0.000013     0.000300     YES
 Maximum Displacement     0.000310     0.001800     YES
 RMS     Displacement     0.000079     0.001200     YES
 Predicted change in Energy=-1.402591D-08
 Optimization completed.
    -- Stationary point found.
                           ----------------------------
                           !   Optimized Parameters   !
                           ! (Angstroms and Degrees)  !
 --------------------------                            --------------------------
 ! Name  Definition              Value          Derivative Info.                !
 --------------------------------------------------------------------------------
 ! R1    R(1,2)                  1.3214         -DE/DX =    0.0                 !
 ! R2    R(1,5)                  1.2956         -DE/DX =    0.0                 !
 ! R3    R(1,9)                  1.0213         -DE/DX =    0.0                 !
 ! R4    R(2,3)                  1.3304         -DE/DX =    0.0                 !
 ! R5    R(2,8)                  1.0221         -DE/DX =    0.0                 !
 ! R6    R(3,4)                  1.3919         -DE/DX =    0.0                 !
 ! R7    R(3,6)                  1.0791         -DE/DX =    0.0                 !
 ! R8    R(4,5)                  1.3393         -DE/DX =    0.0                 !
 ! R9    R(4,7)                  1.0777         -DE/DX =    0.0                 !
 ! A1    A(2,1,5)              112.096          -DE/DX =    0.0                 !
 ! A2    A(2,1,9)              122.8064         -DE/DX =    0.0                 !
 ! A3    A(5,1,9)              125.0976         -DE/DX =    0.0                 !
 ! A4    A(1,2,3)              108.1954         -DE/DX =    0.0                 !
 ! A5    A(1,2,8)              121.3583         -DE/DX =    0.0                 !
 ! A6    A(3,2,8)              130.4463         -DE/DX =    0.0                 !
 ! A7    A(2,3,4)              104.8354         -DE/DX =    0.0                 !
 ! A8    A(2,3,6)              122.1496         -DE/DX =    0.0                 !
 ! A9    A(4,3,6)              133.015          -DE/DX =    0.0                 !
 ! A10   A(3,4,5)              109.097          -DE/DX =    0.0                 !
 ! A11   A(3,4,7)              129.2285         -DE/DX =    0.0                 !
 ! A12   A(5,4,7)              121.6745         -DE/DX =    0.0                 !
 ! A13   A(1,5,4)              105.7762         -DE/DX =    0.0                 !
 ! D1    D(5,1,2,3)             -0.0059         -DE/DX =    0.0                 !
 ! D2    D(5,1,2,8)           -179.9981         -DE/DX =    0.0                 !
 ! D3    D(9,1,2,3)           -179.9973         -DE/DX =    0.0                 !
 ! D4    D(9,1,2,8)              0.0105         -DE/DX =    0.0                 !
 ! D5    D(2,1,5,4)              0.0057         -DE/DX =    0.0                 !
 ! D6    D(9,1,5,4)            179.9969         -DE/DX =    0.0                 !
 ! D7    D(1,2,3,4)              0.0034         -DE/DX =    0.0                 !
 ! D8    D(1,2,3,6)           -179.9974         -DE/DX =    0.0                 !
 ! D9    D(8,2,3,4)            179.9947         -DE/DX =    0.0                 !
 ! D10   D(8,2,3,6)             -0.0061         -DE/DX =    0.0                 !
 ! D11   D(2,3,4,5)              0.0            -DE/DX =    0.0                 !
 ! D12   D(2,3,4,7)            179.999          -DE/DX =    0.0                 !
 ! D13   D(6,3,4,5)            180.0009         -DE/DX =    0.0                 !
 ! D14   D(6,3,4,7)             -0.0001         -DE/DX =    0.0                 !
 ! D15   D(3,4,5,1)             -0.0034         -DE/DX =    0.0                 !
 ! D16   D(7,4,5,1)            179.9975         -DE/DX =    0.0                 !
 --------------------------------------------------------------------------------
 GradGradGradGradGradGradGradGradGradGradGradGradGradGradGradGradGradGrad


 ----------------------------------------------------------------------

 Electric dipole moment (input orientation):
 (Debye = 10**-18 statcoulomb cm , SI units = C m)
                  (au)            (Debye)         (10**-30 SI)
   Tot        0.212437D+01      0.539961D+01      0.180112D+02
   x          0.204992D+01      0.521038D+01      0.173800D+02
   y          0.557470D+00      0.141695D+01      0.472643D+01
   z         -0.388946D-03     -0.988602D-03     -0.329762D-02

 Dipole polarizability, Alpha (input orientation).
 (esu units = cm**3 , SI units = C**2 m**2 J**-1)
 Alpha(0;0):
               (au)            (10**-24 esu)      (10**-40 SI)
   iso        0.487439D+02      0.722310D+01      0.803678D+01
   aniso      0.300493D+02      0.445285D+01      0.495446D+01
   xx         0.570537D+02      0.845448D+01      0.940688D+01
   yx        -0.149344D+01     -0.221305D+00     -0.246235D+00
   yy         0.603042D+02      0.893616D+01      0.994282D+01
   zx        -0.433759D-02     -0.642765D-03     -0.715173D-03
   zy        -0.113410D-02     -0.168056D-03     -0.186987D-03
   zz         0.288738D+02      0.427866D+01      0.476065D+01

 ----------------------------------------------------------------------

 Dipole orientation:
     7          0.54734219         -2.01191527          0.46745177
     7          0.04979596         -0.18288883          2.09316403
     6         -0.51454092          1.89259317          0.79129749
     6         -0.32017788          1.17807887         -1.73268906
     7          0.34318521         -1.26142628         -1.85396952
     1         -0.99273799          3.65098262          1.70638252
     1         -0.62223953          2.28898182         -3.41270090
     1          0.13143640         -0.48279237          3.99945703
     1          1.03263962         -3.79683788          1.01799177

 Electric dipole moment (dipole orientation):
 (Debye = 10**-18 statcoulomb cm , SI units = C m)
                  (au)            (Debye)         (10**-30 SI)
   Tot        0.212437D+01      0.539961D+01      0.180112D+02
   x          0.000000D+00      0.000000D+00      0.000000D+00
   y          0.000000D+00      0.000000D+00      0.000000D+00
   z          0.212437D+01      0.539961D+01      0.180112D+02

 Dipole polarizability, Alpha (dipole orientation).
 (esu units = cm**3 , SI units = C**2 m**2 J**-1)
 Alpha(0;0):
               (au)            (10**-24 esu)      (10**-40 SI)
   iso        0.487439D+02      0.722310D+01      0.803678D+01
   aniso      0.300493D+02      0.445285D+01      0.495446D+01
   xx         0.310748D+02      0.460482D+01      0.512355D+01
   yx        -0.809361D+01     -0.119935D+01     -0.133446D+01
   yy         0.586357D+02      0.868891D+01      0.966772D+01
   zx         0.121375D+00      0.179859D-01      0.200120D-01
   zy        -0.448523D+00     -0.664642D-01     -0.739514D-01
   zz         0.565212D+02      0.837557D+01      0.931908D+01

 ----------------------------------------------------------------------
 1\1\GINC-NODE4\Freq\RM062X\6-31+G(d,p)\C2H4N3(1+)\GONGKE2021\16-Jul-20
 23\0\\#N Geom=AllCheck Guess=TCheck SCRF=Check GenChk RM062X/6-31+G(d,
 p) Freq\\2-H-1-H-Tz\\1,1\N,0.5282345075,-0.9997749001,-0.0001513312\N,
 1.095157939,0.1938783788,-0.000233372\C,0.1317073867,1.1113812795,-0.0
 001503498\C,-1.0542945478,0.3827763702,0.0000671511\N,-0.7651613563,-0
 .9249886217,0.0001060956\H,0.3459321244,2.1689551827,-0.0002348427\H,-
 2.0720287844,0.737340173,0.0002068466\H,2.1117337545,0.2998823745,-0.0
 004602111\H,1.0662189764,-1.8678502368,-0.0001499864\\Version=ES64L-G1
 6RevA.03\State=1-A\HF=-242.5820834\RMSD=1.777e-09\RMSF=2.667e-05\ZeroP
 oint=0.07352\Thermal=0.0771734\Dipole=2.049922,0.5574703,-0.0003889\Di
 poleDeriv=-0.0109888,0.9320631,-0.0000118,0.6112759,-0.6470952,-0.0000
 67,0.0000856,-0.0002734,-0.0261967,-0.9500939,-0.2922706,0.0001275,-0.
 2749153,0.4062038,0.0000617,0.000038,0.0000668,-0.1088093,0.2870747,0.
 4878745,-0.0000258,-0.0780599,0.0958151,-0.0000154,-0.0000116,-0.00007
 17,0.0613015,0.266977,-0.2568083,-0.0000404,0.052223,-0.4123402,-0.000
 0078,-0.0000454,0.0000601,-0.070063,-0.058826,-0.6864198,-0.0000351,-0
 .1509306,0.1254676,0.0000167,-0.0000459,0.0001564,-0.2086929,0.1841206
 ,-0.0146171,0.0000068,0.0076474,0.2773203,-0.0000023,0.0000067,0.00000
 19,0.2384198,0.1779431,-0.0000571,0.0000095,-0.0286731,0.1711853,0.000
 0083,0.0000078,0.0000042,0.2256052,0.6974856,0.0388708,-0.0000465,0.04
 78652,0.3341382,-0.0000103,-0.0000239,-0.0000042,0.4509864,0.4063078,-
 0.2086355,0.0000159,-0.1864326,0.6493051,0.0000163,-0.0000113,0.000059
 8,0.437449\Polar=57.0536714,-1.4934383,60.3042006,-0.0043376,-0.001134
 1,28.8738153\Quadrupole=4.1389389,2.358213,-6.4971519,-3.5902752,-0.00
 159,0.0000719\PG=C01 [X(C2H4N3)]\NImag=0\\0.83909895,-0.17510543,0.972
 56190,-0.00010384,-0.00002664,0.10481312,-0.17486574,-0.05967505,0.000
 01824,1.07462803,-0.10124277,-0.32984181,0.00002592,-0.00433342,0.7169
 4735,0.00001983,0.00001533,-0.05869889,-0.00017732,-0.00001654,0.11101
 279,-0.03198315,0.06217741,0.00001442,-0.27610109,0.12405118,0.0000272
 3,0.63338694,0.00321665,-0.11674467,0.00000506,0.14191956,-0.26831029,
 -0.00001177,0.04930612,0.96924546,0.00000675,-0.00000898,0.01518684,0.
 00002349,-0.00000494,-0.06741338,-0.00007694,-0.00004410,0.13897436,-0
 .05788519,0.02859650,0.00000656,-0.08833171,0.05618305,0.00001402,-0.2
 9102053,-0.11592370,0.00003914,0.92138235,0.10143076,-0.06916880,-0.00
 002086,-0.04086764,0.05152847,0.00000194,-0.06965312,-0.18283170,0.000
 01623,-0.10797311,0.63571797,0.00000934,-0.00000304,0.01340798,0.00001
 720,-0.00001180,0.01123568,0.00003490,0.00002222,-0.07347810,-0.000115
 58,-0.00001018,0.14180596,-0.39063267,-0.02481898,0.00005515,-0.126148
 01,-0.04369649,0.00002557,0.05389978,-0.00165063,-0.00000347,-0.133464
 19,0.03606665,0.00000799,0.60152017,0.04257443,-0.11381403,0.00000135,
 -0.01620574,-0.05954365,0.00000936,-0.09540954,-0.05929951,0.00001888,
 0.04189131,-0.35446895,0.00001202,0.00237220,0.59135804,0.00006499,0.0
 0001227,-0.07272409,0.00002044,0.00000796,0.02214510,-0.00000335,0.000
 00324,0.02012229,0.00000889,0.00001570,-0.07293906,-0.00008830,-0.0000
 3116,0.10959494,-0.00658665,0.00436800,0.00000128,0.01065231,0.0299147
 8,-0.00000280,-0.07278649,-0.07626534,0.00000803,0.00836426,-0.0177300
 4,-0.00000004,-0.00376428,-0.00567227,0.00000173,0.06241367,0.00162011
 ,0.00267284,0.00000044,-0.00565767,-0.01271611,0.00000101,-0.06281425,
 -0.36865171,0.00002470,0.00124411,0.00141500,-0.00000029,0.00059283,0.
 00059340,0.00000012,0.06498496,0.37671140,0.00000177,-0.00000099,0.005
 48993,-0.00000128,-0.00000266,-0.00094205,0.00000787,0.00002575,-0.034
 38442,-0.00000088,0.00000302,0.00163356,0.00000137,0.00000090,0.005692
 85,-0.00000770,-0.00002571,0.02511143,0.00379176,-0.00144815,0.0000003
 7,-0.00188516,-0.00240847,0.00000142,-0.00778069,0.00852783,0.00000089
 ,-0.35220144,0.09942529,0.00004278,0.00248758,0.00017078,-0.00000134,0
 .00009911,-0.00013915,-0.00000031,0.35503211,0.00214281,-0.00665924,0.
 00000087,-0.00543890,-0.00322108,0.00000142,-0.01543139,0.01181710,0.0
 0000172,0.09118207,-0.08758182,-0.00000951,0.03040569,-0.00665685,-0.0
 0000546,0.00070835,-0.00009534,-0.00000022,-0.10477070,0.09033088,0.00
 000056,0.00000106,0.00741488,0.00000178,0.00000061,0.00568228,0.000001
 55,-0.00000196,0.00013805,0.00004370,-0.00001069,-0.03247118,-0.000003
 63,-0.00000053,-0.00710615,-0.00000032,-0.00000007,-0.00184368,-0.0000
 4404,0.00001158,0.02554509,-0.00413701,-0.00346357,-0.00000090,-0.4369
 2690,-0.03880225,0.00009362,-0.00639016,-0.00271697,0.00000162,0.00018
 846,0.00300745,0.00000092,0.00750435,0.00113053,0.00000005,0.00030568,
 0.00030101,-0.00000080,0.00010592,0.00001904,0.00000012,0.43853724,-0.
 03799763,0.00545922,0.00000854,-0.02541400,-0.07576408,-0.00000016,0.0
 1723712,0.01439732,-0.00000500,0.00615015,-0.00303258,-0.00000018,-0.0
 0181107,-0.00784205,0.,-0.00089868,0.00028809,0.00000001,0.00051550,0.
 00127117,-0.00000003,0.04156831,0.06551858,-0.00000398,-0.00000110,-0.
 00783252,0.00010062,0.00000354,-0.01464534,-0.00000393,-0.00000002,-0.
 00219163,0.00000045,0.00000181,0.00484849,0.00000180,-0.00000095,0.006
 36554,-0.00000036,-0.00000020,-0.00277013,0.00000002,-0.00000010,0.000
 96676,-0.00009431,-0.00000303,0.01624456,-0.17680029,0.16936927,0.0000
 0872,0.01897828,-0.01966561,-0.00000157,-0.00122461,-0.00641351,0.0000
 0049,-0.00703201,-0.00370623,0.00000249,-0.01140273,0.02914829,-0.0000
 0311,0.00130238,-0.00013195,-0.00000004,0.00035082,0.00118303,0.000000
 29,0.00081243,0.00065030,-0.00000032,0.17501572,0.16336106,-0.34446542
 ,0.00000531,0.01567286,-0.01907881,-0.00000058,-0.00946352,0.00037800,
 0.00000148,-0.00135038,0.00842241,0.00000077,0.00253981,0.00967361,-0.
 00000266,0.00059024,-0.00021755,-0.00000012,0.00012707,0.00079518,0.00
 000002,-0.00104356,-0.00029565,0.00000004,-0.17043358,0.34478823,0.000
 00460,0.00001209,-0.00705724,-0.00000317,-0.00000209,-0.00837619,-0.00
 000176,0.00000157,0.00304599,0.00000369,0.00000303,0.00595667,0.000003
 51,-0.00000988,-0.01115142,0.00000017,0.,0.00201251,0.00000021,-0.0000
 0029,0.00167395,-0.00000031,-0.00000016,-0.00098573,-0.00000695,-0.000
 00426,0.01488146\\-0.00003616,-0.00000005,-0.00001200,0.00004312,-0.00
 000557,0.00001060,-0.00000330,-0.00003350,-0.00000304,0.00000604,0.000
 07629,-0.00000386,0.00002935,-0.00003753,0.00001035,0.00001598,0.00000
 100,-0.00000005,0.00001271,0.00003563,-0.00000075,-0.00002477,-0.00004
 605,-0.00000103,-0.00004297,0.00000978,-0.00000023\\\@


 GOD GAVE US TWO ENDS... ONE TO SIT ON...    
 AND THE OTHER TO THINK WITH...              
 YOUR SUCCESS DEPENDS UPON WHICH END YOU     
 USE THE MOST...                             
                                             
 IT'S A CASE OF HEADS YOU WIN TAILS YOU LOSE.
          SOURCE UNKNOWN(IT'S JUST AS WELL.) 
 Job cpu time:       0 days  0 hours  7 minutes 44.7 seconds.
 Elapsed time:       0 days  0 hours  0 minutes 20.1 seconds.
 File lengths (MBytes):  RWF=     30 Int=      0 D2E=      0 Chk=      5 Scr=      1
 Normal termination of Gaussian 16 at Sun Jul 16 00:56:14 2023.
