 Entering Gaussian System, Link 0=/opt/soft/g16/g16
 Initial command:
 /opt/soft/g16/l1.exe "/scratch/gongke2021/TS-cycle/Gau-15413.inp" -scrdir="/scratch/gongke2021/TS-cycle/"
 Entering Link 1 = /opt/soft/g16/l1.exe PID=     15419.
  
 Copyright (c) 1988,1990,1992,1993,1995,1998,2003,2009,2016,
            Gaussian, Inc.  All Rights Reserved.
  
 This is part of the Gaussian(R) 16 program.  It is based on
 the Gaussian(R) 09 system (copyright 2009, Gaussian, Inc.),
 the Gaussian(R) 03 system (copyright 2003, Gaussian, Inc.),
 the Gaussian(R) 98 system (copyright 1998, Gaussian, Inc.),
 the Gaussian(R) 94 system (copyright 1995, Gaussian, Inc.),
 the Gaussian 92(TM) system (copyright 1992, Gaussian, Inc.),
 the Gaussian 90(TM) system (copyright 1990, Gaussian, Inc.),
 the Gaussian 88(TM) system (copyright 1988, Gaussian, Inc.),
 the Gaussian 86(TM) system (copyright 1986, Carnegie Mellon
 University), and the Gaussian 82(TM) system (copyright 1983,
 Carnegie Mellon University). Gaussian is a federally registered
 trademark of Gaussian, Inc.
  
 This software contains proprietary and confidential information,
 including trade secrets, belonging to Gaussian, Inc.
  
 This software is provided under written license and may be
 used, copied, transmitted, or stored only in accord with that
 written license.
  
 The following legend is applicable only to US Government
 contracts under FAR:
  
                    RESTRICTED RIGHTS LEGEND
  
 Use, reproduction and disclosure by the US Government is
 subject to restrictions as set forth in subparagraphs (a)
 and (c) of the Commercial Computer Software - Restricted
 Rights clause in FAR 52.227-19.
  
 Gaussian, Inc.
 340 Quinnipiac St., Bldg. 40, Wallingford CT 06492
  
  
 ---------------------------------------------------------------
 Warning -- This program may not be used in any manner that
 competes with the business of Gaussian, Inc. or will provide
 assistance to any competitor of Gaussian, Inc.  The licensee
 of this program is prohibited from giving any competitor of
 Gaussian, Inc. access to this program.  By using this program,
 the user acknowledges that Gaussian, Inc. is engaged in the
 business of creating and licensing software in the field of
 computational chemistry and represents and warrants to the
 licensee that it is not a competitor of Gaussian, Inc. and that
 it will not use this program in any manner prohibited above.
 ---------------------------------------------------------------
  

 Cite this work as:
 Gaussian 16, Revision A.03,
 M. J. Frisch, G. W. Trucks, H. B. Schlegel, G. E. Scuseria, 
 M. A. Robb, J. R. Cheeseman, G. Scalmani, V. Barone, 
 G. A. Petersson, H. Nakatsuji, X. Li, M. Caricato, A. V. Marenich, 
 J. Bloino, B. G. Janesko, R. Gomperts, B. Mennucci, H. P. Hratchian, 
 J. V. Ortiz, A. F. Izmaylov, J. L. Sonnenberg, D. Williams-Young, 
 F. Ding, F. Lipparini, F. Egidi, J. Goings, B. Peng, A. Petrone, 
 T. Henderson, D. Ranasinghe, V. G. Zakrzewski, J. Gao, N. Rega, 
 G. Zheng, W. Liang, M. Hada, M. Ehara, K. Toyota, R. Fukuda, 
 J. Hasegawa, M. Ishida, T. Nakajima, Y. Honda, O. Kitao, H. Nakai, 
 T. Vreven, K. Throssell, J. A. Montgomery, Jr., J. E. Peralta, 
 F. Ogliaro, M. J. Bearpark, J. J. Heyd, E. N. Brothers, K. N. Kudin, 
 V. N. Staroverov, T. A. Keith, R. Kobayashi, J. Normand, 
 K. Raghavachari, A. P. Rendell, J. C. Burant, S. S. Iyengar, 
 J. Tomasi, M. Cossi, J. M. Millam, M. Klene, C. Adamo, R. Cammi, 
 J. W. Ochterski, R. L. Martin, K. Morokuma, O. Farkas, 
 J. B. Foresman, and D. J. Fox, Gaussian, Inc., Wallingford CT, 2016.
 
 ******************************************
 Gaussian 16:  ES64L-G16RevA.03 25-Dec-2016
                 9-Jul-2023 
 ******************************************
 %mem=10GB
 %nprocshared=24
 Will use up to   24 processors via shared memory.
 ----------------------------------------------------------------------
 # opt=(calcfc,ts,noeigentest,maxcycle=600) freq 6-31+g(d,p) integral=g
 rid=ultrafine m062x scrf=(SMD,solvent=water)
 ----------------------------------------------------------------------
 1/5=1,6=600,10=4,11=1,18=20,26=6,38=1/1,3;
 2/9=110,12=2,17=6,18=5,40=1/2;
 3/5=1,6=6,7=111,11=2,25=1,30=1,70=32201,71=2,72=1,74=-55,75=-5,140=1/1,2,3;
 4//1;
 5/5=2,38=5,53=1/2;
 8/6=4,10=90,11=11/1;
 11/6=1,8=1,9=11,15=111,16=1/1,2,10;
 10/6=1,13=1/2;
 6/7=2,8=2,9=2,10=2,28=1/1;
 7/10=1,18=20,25=1/1,2,3,16;
 1/5=1,6=600,10=4,11=1,18=20,26=6/3(2);
 2/9=110/2;
 99//99;
 2/9=110/2;
 3/5=1,6=6,7=111,11=2,25=1,30=1,70=32205,71=1,72=1,74=-55,75=-5/1,2,3;
 4/5=5,16=3,69=1/1;
 5/5=2,38=5,53=1/2;
 7//1,2,3,16;
 1/5=1,6=600,11=1,18=20,26=6/3(-5);
 2/9=110/2;
 6/7=2,8=2,9=2,10=2,19=2,28=1/1;
 99/9=1/99;
 --
 TS
 --
 Symbolic Z-matrix:
 Charge = -1 Multiplicity = 2
 O                     2.70136  -1.37907   0.07749 
 H                     3.44219  -0.84897  -0.27535 
 H                     2.62192  -2.2      -0.44487 
 N                    -0.55775   0.26143  -0.00018 
 N                    -0.10425  -0.98477   0.01411 
 C                    -1.19649  -1.73794   0.01032 
 C                    -2.31045  -0.88065  -0.00628 
 N                    -1.87537   0.37431  -0.01244 
 H                    -1.14363  -2.81619   0.01952 
 H                    -3.36428  -1.11368  -0.01369 
 H                     1.85054  -0.84249   0.02303 
 C                     0.38352   1.40667   0.00117 
 O                     1.57584   1.04791   0.01515 
 O                    -0.14027   2.52317  -0.01143 
 
 Add virtual bond connecting atoms N5         and H11        Dist= 3.70D+00.
 Add virtual bond connecting atoms O13        and H11        Dist= 3.61D+00.

 GradGradGradGradGradGradGradGradGradGradGradGradGradGradGradGradGradGrad
 Berny optimization.
 Initialization pass.
                           ----------------------------
                           !    Initial Parameters    !
                           ! (Angstroms and Degrees)  !
 --------------------------                            --------------------------
 ! Name  Definition              Value          Derivative Info.                !
 --------------------------------------------------------------------------------
 ! R1    R(1,2)                  0.9769         calculate D2E/DX2 analytically  !
 ! R2    R(1,3)                  0.9763         calculate D2E/DX2 analytically  !
 ! R3    R(1,11)                 1.0074         calculate D2E/DX2 analytically  !
 ! R4    R(4,5)                  1.3262         calculate D2E/DX2 analytically  !
 ! R5    R(4,8)                  1.3225         calculate D2E/DX2 analytically  !
 ! R6    R(4,12)                 1.4824         calculate D2E/DX2 analytically  !
 ! R7    R(5,6)                  1.3268         calculate D2E/DX2 analytically  !
 ! R8    R(5,11)                 1.96           calculate D2E/DX2 analytically  !
 ! R9    R(6,7)                  1.4057         calculate D2E/DX2 analytically  !
 ! R10   R(6,9)                  1.0796         calculate D2E/DX2 analytically  !
 ! R11   R(7,8)                  1.3283         calculate D2E/DX2 analytically  !
 ! R12   R(7,10)                 1.0793         calculate D2E/DX2 analytically  !
 ! R13   R(11,13)                1.9103         calculate D2E/DX2 analytically  !
 ! R14   R(12,13)                1.2452         calculate D2E/DX2 analytically  !
 ! R15   R(12,14)                1.2333         calculate D2E/DX2 analytically  !
 ! A1    A(2,1,3)              108.9508         calculate D2E/DX2 analytically  !
 ! A2    A(2,1,11)             109.3868         calculate D2E/DX2 analytically  !
 ! A3    A(3,1,11)             110.5026         calculate D2E/DX2 analytically  !
 ! A4    A(5,4,8)              114.8972         calculate D2E/DX2 analytically  !
 ! A5    A(5,4,12)             120.5835         calculate D2E/DX2 analytically  !
 ! A6    A(8,4,12)             124.5192         calculate D2E/DX2 analytically  !
 ! A7    A(4,5,6)              104.5892         calculate D2E/DX2 analytically  !
 ! A8    A(4,5,11)             105.8361         calculate D2E/DX2 analytically  !
 ! A9    A(6,5,11)             149.5739         calculate D2E/DX2 analytically  !
 ! A10   A(5,6,7)              107.8302         calculate D2E/DX2 analytically  !
 ! A11   A(5,6,9)              121.7791         calculate D2E/DX2 analytically  !
 ! A12   A(7,6,9)              130.3907         calculate D2E/DX2 analytically  !
 ! A13   A(6,7,8)              108.4623         calculate D2E/DX2 analytically  !
 ! A14   A(6,7,10)             129.9511         calculate D2E/DX2 analytically  !
 ! A15   A(8,7,10)             121.5865         calculate D2E/DX2 analytically  !
 ! A16   A(4,8,7)              104.2211         calculate D2E/DX2 analytically  !
 ! A17   A(1,11,5)             143.5087         calculate D2E/DX2 analytically  !
 ! A18   A(1,11,13)            130.4506         calculate D2E/DX2 analytically  !
 ! A19   A(5,11,13)             85.8939         calculate D2E/DX2 analytically  !
 ! A20   A(4,12,13)            112.6698         calculate D2E/DX2 analytically  !
 ! A21   A(4,12,14)            115.4482         calculate D2E/DX2 analytically  !
 ! A22   A(13,12,14)           131.882          calculate D2E/DX2 analytically  !
 ! A23   A(11,13,12)           115.015          calculate D2E/DX2 analytically  !
 ! D1    D(2,1,11,5)           160.0228         calculate D2E/DX2 analytically  !
 ! D2    D(2,1,11,13)          -26.069          calculate D2E/DX2 analytically  !
 ! D3    D(3,1,11,5)            40.0793         calculate D2E/DX2 analytically  !
 ! D4    D(3,1,11,13)         -146.0125         calculate D2E/DX2 analytically  !
 ! D5    D(8,4,5,6)              0.0311         calculate D2E/DX2 analytically  !
 ! D6    D(8,4,5,11)           179.7968         calculate D2E/DX2 analytically  !
 ! D7    D(12,4,5,6)           179.9041         calculate D2E/DX2 analytically  !
 ! D8    D(12,4,5,11)           -0.3302         calculate D2E/DX2 analytically  !
 ! D9    D(5,4,8,7)             -0.0255         calculate D2E/DX2 analytically  !
 ! D10   D(12,4,8,7)          -179.8928         calculate D2E/DX2 analytically  !
 ! D11   D(5,4,12,13)            0.0732         calculate D2E/DX2 analytically  !
 ! D12   D(5,4,12,14)         -179.9249         calculate D2E/DX2 analytically  !
 ! D13   D(8,4,12,13)          179.9334         calculate D2E/DX2 analytically  !
 ! D14   D(8,4,12,14)           -0.0647         calculate D2E/DX2 analytically  !
 ! D15   D(4,5,6,7)             -0.0228         calculate D2E/DX2 analytically  !
 ! D16   D(4,5,6,9)            179.9951         calculate D2E/DX2 analytically  !
 ! D17   D(11,5,6,7)          -179.5777         calculate D2E/DX2 analytically  !
 ! D18   D(11,5,6,9)             0.4403         calculate D2E/DX2 analytically  !
 ! D19   D(4,5,11,1)           175.706          calculate D2E/DX2 analytically  !
 ! D20   D(4,5,11,13)            0.3499         calculate D2E/DX2 analytically  !
 ! D21   D(6,5,11,1)            -4.7418         calculate D2E/DX2 analytically  !
 ! D22   D(6,5,11,13)          179.9022         calculate D2E/DX2 analytically  !
 ! D23   D(5,6,7,8)              0.0088         calculate D2E/DX2 analytically  !
 ! D24   D(5,6,7,10)          -179.9922         calculate D2E/DX2 analytically  !
 ! D25   D(9,6,7,8)            179.9888         calculate D2E/DX2 analytically  !
 ! D26   D(9,6,7,10)            -0.0122         calculate D2E/DX2 analytically  !
 ! D27   D(6,7,8,4)              0.0092         calculate D2E/DX2 analytically  !
 ! D28   D(10,7,8,4)          -179.9898         calculate D2E/DX2 analytically  !
 ! D29   D(1,11,13,12)        -176.7275         calculate D2E/DX2 analytically  !
 ! D30   D(5,11,13,12)          -0.3553         calculate D2E/DX2 analytically  !
 ! D31   D(4,12,13,11)           0.2513         calculate D2E/DX2 analytically  !
 ! D32   D(14,12,13,11)       -179.7509         calculate D2E/DX2 analytically  !
 --------------------------------------------------------------------------------
 Trust Radius=3.00D-01 FncErr=5.00D-06 GrdErr=5.00D-06 EigMax=2.50D+02 EigMin=1.00D-04
 Number of steps in this run=    100 maximum allowed number of steps=    100.
 Search for a saddle point of order  1.
 GradGradGradGradGradGradGradGradGradGradGradGradGradGradGradGradGradGrad

                          Input orientation:                          
 ---------------------------------------------------------------------
 Center     Atomic      Atomic             Coordinates (Angstroms)
 Number     Number       Type             X           Y           Z
 ---------------------------------------------------------------------
      1          8           0        2.701358   -1.379072    0.077488
      2          1           0        3.442194   -0.848971   -0.275346
      3          1           0        2.621916   -2.200001   -0.444868
      4          7           0       -0.557753    0.261431   -0.000183
      5          7           0       -0.104248   -0.984765    0.014113
      6          6           0       -1.196493   -1.737943    0.010320
      7          6           0       -2.310451   -0.880653   -0.006280
      8          7           0       -1.875368    0.374310   -0.012443
      9          1           0       -1.143630   -2.816191    0.019522
     10          1           0       -3.364277   -1.113682   -0.013694
     11          1           0        1.850535   -0.842493    0.023028
     12          6           0        0.383519    1.406669    0.001173
     13          8           0        1.575840    1.047908    0.015152
     14          8           0       -0.140273    2.523173   -0.011430
 ---------------------------------------------------------------------
                    Distance matrix (angstroms):
                    1          2          3          4          5
     1  O    0.000000
     2  H    0.976902   0.000000
     3  H    0.976264   1.589615   0.000000
     4  N    3.649532   4.160322   4.045576   0.000000
     5  N    2.833888   3.560825   3.019840   1.326226   0.000000
     6  C    3.914913   4.731733   3.873105   2.098951   1.326759
     7  C    5.037228   5.759021   5.124576   2.091971   2.208752
     8  N    4.901924   5.462783   5.199965   1.322498   2.232634
     9  H    4.105192   4.998668   3.843785   3.132953   2.105817
    10  H    6.072123   6.816640   6.099222   3.125331   3.262695
    11  H    1.007364   1.619397   1.629964   2.649347   1.959974
    12  C    3.624714   3.810494   4.268190   1.482419   2.440705
    13  O    2.675987   2.676904   3.443081   2.273983   2.637130
    14  O    4.828073   4.926974   5.488709   2.299977   3.508216
                    6          7          8          9         10
     6  C    0.000000
     7  C    1.405747   0.000000
     8  N    2.218784   1.328257   0.000000
     9  H    1.079582   2.260187   3.273493   0.000000
    10  H    2.256007   1.079308   2.104987   2.798377   0.000000
    11  H    3.175905   4.161264   3.919722   3.586157   5.221988
    12  C    3.519248   3.534031   2.483651   4.490553   4.516455
    13  O    3.930244   4.338556   3.516437   4.725124   5.392408
    14  O    4.390123   4.036797   2.761914   5.432908   4.860136
                   11         12         13         14
    11  H    0.000000
    12  C    2.685394   0.000000
    13  O    1.910271   1.245204   0.000000
    14  O    3.910526   1.233328   2.263218   0.000000
 Stoichiometry    C3H5N3O3(1-,2)
 Framework group  C1[X(C3H5N3O3)]
 Deg. of freedom    36
 Full point group                 C1      NOp   1
 Largest Abelian subgroup         C1      NOp   1
 Largest concise Abelian subgroup C1      NOp   1
                         Standard orientation:                         
 ---------------------------------------------------------------------
 Center     Atomic      Atomic             Coordinates (Angstroms)
 Number     Number       Type             X           Y           Z
 ---------------------------------------------------------------------
      1          8           0       -2.701358   -1.379071   -0.077488
      2          1           0       -3.442194   -0.848970    0.275346
      3          1           0       -2.621916   -2.200001    0.444868
      4          7           0        0.557753    0.261431    0.000183
      5          7           0        0.104248   -0.984765   -0.014113
      6          6           0        1.196493   -1.737943   -0.010320
      7          6           0        2.310451   -0.880654    0.006280
      8          7           0        1.875368    0.374310    0.012443
      9          1           0        1.143629   -2.816191   -0.019522
     10          1           0        3.364277   -1.113683    0.013694
     11          1           0       -1.850535   -0.842493   -0.023028
     12          6           0       -0.383519    1.406669   -0.001173
     13          8           0       -1.575840    1.047908   -0.015152
     14          8           0        0.140274    2.523173    0.011430
 ---------------------------------------------------------------------
 Rotational constants (GHZ):           2.0140310           1.5360997           0.8725407
 Standard basis: 6-31+G(d,p) (6D, 7F)
 There are   196 symmetry adapted cartesian basis functions of A   symmetry.
 There are   196 symmetry adapted basis functions of A   symmetry.
   196 basis functions,   323 primitive gaussians,   196 cartesian basis functions
    35 alpha electrons       34 beta electrons
       nuclear repulsion energy       453.5349873471 Hartrees.
 NAtoms=   14 NActive=   14 NUniq=   14 SFac= 1.00D+00 NAtFMM=   60 NAOKFM=F Big=F
 Integral buffers will be    131072 words long.
 Raffenetti 2 integral format.
 Two-electron integral symmetry is turned on.
 Force inversion solution in PCM.
 ------------------------------------------------------------------------------
 Polarizable Continuum Model (PCM)
 =================================
 Model                : PCM.
 Atomic radii         : SMD-Coulomb.
 Polarization charges : Total charges.
 Charge compensation  : None.
 Solution method      : Matrix inversion.
 Cavity type          : VdW (van der Waals Surface) (Alpha=1.000).
 Cavity algorithm     : GePol (No added spheres)
                        Default sphere list used, NSphG=   14.
                        Lebedev-Laikov grids with approx.  5.0 points / Ang**2.
                        Smoothing algorithm: York/Karplus (Gamma=1.0000).
                        Polarization charges: spherical gaussians, with
                                              point-specific exponents (IZeta= 3).
                        Self-potential: point-specific (ISelfS= 7).
                        Self-field    : sphere-specific E.n sum rule (ISelfD= 2).
 1st derivatives      : Analytical E(r).r(x)/FMM algorithm (CHGder, D1EAlg=3).
                        Cavity 1st derivative terms included.
 2nd derivatives      : Analytical E(r).r(xy)/FMM algorithm (CHGder, D2EAlg=3).
                        Cavity 2nd derivative terms included.
 Solvent              : Water, Eps=  78.355300 Eps(inf)=   1.777849
 ------------------------------------------------------------------------------
 Spheres list:
 ISph  on   Nord     Re0    Alpha      Xe            Ye            Ze
    1   O      1    1.5200  1.000     -2.701358     -1.379071     -0.077488
    2   H      2    1.2000  1.000     -3.442194     -0.848970      0.275346
    3   H      3    1.2000  1.000     -2.621916     -2.200001      0.444868
    4   N      4    1.8900  1.000      0.557753      0.261431      0.000183
    5   N      5    1.8900  1.000      0.104248     -0.984765     -0.014113
    6   C      6    1.8500  1.000      1.196493     -1.737943     -0.010320
    7   C      7    1.8500  1.000      2.310451     -0.880654      0.006280
    8   N      8    1.8900  1.000      1.875368      0.374310      0.012443
    9   H      9    1.2000  1.000      1.143629     -2.816191     -0.019522
   10   H     10    1.2000  1.000      3.364277     -1.113683      0.013694
   11   H     11    1.2000  1.000     -1.850535     -0.842493     -0.023028
   12   C     12    1.8500  1.000     -0.383519      1.406669     -0.001173
   13   O     13    1.5200  1.000     -1.575840      1.047908     -0.015152
   14   O     14    1.5200  1.000      0.140274      2.523173      0.011430
 ------------------------------------------------------------------------------
 ------------------------------------------------------------------------------
 Atomic radii for non-electrostatic terms: SMD-CDS.
 ------------------------------------------------------------------------------
 Nuclear repulsion after PCM non-electrostatic terms =      453.5432946748 Hartrees.
 One-electron integrals computed using PRISM.
 NBasis=   196 RedAO= T EigKep=  2.11D-05  NBF=   196
 NBsUse=   196 1.00D-06 EigRej= -1.00D+00 NBFU=   196
 ExpMin= 4.38D-02 ExpMax= 5.48D+03 ExpMxC= 8.25D+02 IAcc=3 IRadAn=         5 AccDes= 0.00D+00
 Harris functional with IExCor= 1009 and IRadAn=       5 diagonalized for initial guess.
 HarFok:  IExCor= 1009 AccDes= 0.00D+00 IRadAn=         5 IDoV= 1 UseB2=F ITyADJ=14
 ICtDFT=  3500011 ScaDFX=  1.000000  1.000000  1.000000  1.000000
 FoFCou: FMM=F IPFlag=           0 FMFlag=      100000 FMFlg1=           0
         NFxFlg=           0 DoJE=T BraDBF=F KetDBF=T FulRan=T
         wScrn=  0.000000 ICntrl=       500 IOpCl=  0 I1Cent=   200000004 NGrid=           0
         NMat0=    1 NMatS0=      1 NMatT0=    0 NMatD0=    1 NMtDS0=    0 NMtDT0=    0
 Petite list used in FoFCou.
 Initial guess <Sx>= 0.0000 <Sy>= 0.0000 <Sz>= 0.5000 <S**2>= 0.7500 S= 0.5000
 Requested convergence on RMS density matrix=1.00D-08 within 128 cycles.
 Requested convergence on MAX density matrix=1.00D-06.
 Requested convergence on             energy=1.00D-06.
 No special actions if energy rises.
 Inv3:  Mode=1 IEnd=     4219788.
 Iteration    1 A*A^-1 deviation from unit magnitude is 2.66D-15 for    395.
 Iteration    1 A*A^-1 deviation from orthogonality  is 1.77D-15 for    555     39.
 Iteration    1 A^-1*A deviation from unit magnitude is 2.89D-15 for    395.
 Iteration    1 A^-1*A deviation from orthogonality  is 1.48D-15 for    364    230.
 Error on total polarization charges =  0.06168
 SCF Done:  E(UM062X) =  -507.126730788     A.U. after   18 cycles
            NFock= 18  Conv=0.97D-08     -V/T= 2.0077
 <Sx>= 0.0000 <Sy>= 0.0000 <Sz>= 0.5000 <S**2>= 0.7603 S= 0.5052
 <L.S>=  0.00000000000    
 SMD-CDS (non-electrostatic) energy       (kcal/mol) =       5.21
 (included in total energy above)
 Annihilation of the first spin contaminant:
 S**2 before annihilation     0.7603,   after     0.7500
 DoSCS=F DFT=T ScalE2(SS,OS)=  1.000000  1.000000
 Range of M.O.s used for correlation:     1   196
 NBasis=   196 NAE=    35 NBE=    34 NFC=     0 NFV=     0
 NROrb=    196 NOA=    35 NOB=    34 NVA=   161 NVB=   162

 **** Warning!!: The largest alpha MO coefficient is  0.73255400D+02


 **** Warning!!: The largest beta MO coefficient is  0.77204868D+02

 Symmetrizing basis deriv contribution to polar:
 IMax=3 JMax=2 DiffMx= 0.00D+00
 G2DrvN: will do    15 centers at a time, making    1 passes.
 Calling FoFCou, ICntrl=  3107 FMM=F I1Cent=   0 AccDes= 0.00D+00.
 NEqPCM:  Using equilibrium solvation (IEInf=0, Eps=  78.3553, EpsInf=   1.7778)
 G2PCM: DoFxE=T DoFxN=T DoGrad=T DoDP/DQ/DG/TGxP=FFFF NFrqRd=   0 IEInf=0 SqF1=F DoCFld=F IF1Alg=4.
 End of G2Drv F.D. properties file   721 does not exist.
 End of G2Drv F.D. properties file   722 does not exist.
 End of G2Drv F.D. properties file   788 does not exist.
          IDoAtm=11111111111111
 NEqPCM:  Using equilibrium solvation (IEInf=0, Eps=  78.3553, EpsInf=   1.7778)
          Differentiating once with respect to nuclear coordinates.
 Keep R1 and R2 ints in memory in canonical form, NReq=397284497.
          There are    45 degrees of freedom in the 1st order CPHF.  IDoFFX=6 NUNeed=     0.
     39 vectors produced by pass  0 Test12= 2.48D-14 2.22D-09 XBig12= 3.06D-01 1.37D-01.
 AX will form    39 AO Fock derivatives at one time.
     39 vectors produced by pass  1 Test12= 2.48D-14 2.22D-09 XBig12= 4.14D-02 5.77D-02.
     39 vectors produced by pass  2 Test12= 2.48D-14 2.22D-09 XBig12= 2.06D-03 1.11D-02.
     39 vectors produced by pass  3 Test12= 2.48D-14 2.22D-09 XBig12= 2.87D-05 1.15D-03.
     39 vectors produced by pass  4 Test12= 2.48D-14 2.22D-09 XBig12= 3.73D-07 9.45D-05.
     39 vectors produced by pass  5 Test12= 2.48D-14 2.22D-09 XBig12= 3.87D-09 1.06D-05.
     39 vectors produced by pass  6 Test12= 2.48D-14 2.22D-09 XBig12= 3.02D-11 6.23D-07.
     25 vectors produced by pass  7 Test12= 2.48D-14 2.22D-09 XBig12= 2.71D-13 6.42D-08.
      3 vectors produced by pass  8 Test12= 2.48D-14 2.22D-09 XBig12= 2.53D-15 5.76D-09.
 InvSVY:  IOpt=1 It=  1 EMax= 1.22D-15
 Solved reduced A of dimension   301 with    39 vectors.
 End of Minotr F.D. properties file   721 does not exist.
 End of Minotr F.D. properties file   722 does not exist.
 End of Minotr F.D. properties file   788 does not exist.

 **********************************************************************

            Population analysis using the SCF density.

 **********************************************************************

 Orbital symmetries:
 Alpha Orbitals:
       Occupied  (A) (A) (A) (A) (A) (A) (A) (A) (A) (A) (A) (A)
                 (A) (A) (A) (A) (A) (A) (A) (A) (A) (A) (A) (A)
                 (A) (A) (A) (A) (A) (A) (A) (A) (A) (A) (A)
       Virtual   (A) (A) (A) (A) (A) (A) (A) (A) (A) (A) (A) (A)
                 (A) (A) (A) (A) (A) (A) (A) (A) (A) (A) (A) (A)
                 (A) (A) (A) (A) (A) (A) (A) (A) (A) (A) (A) (A)
                 (A) (A) (A) (A) (A) (A) (A) (A) (A) (A) (A) (A)
                 (A) (A) (A) (A) (A) (A) (A) (A) (A) (A) (A) (A)
                 (A) (A) (A) (A) (A) (A) (A) (A) (A) (A) (A) (A)
                 (A) (A) (A) (A) (A) (A) (A) (A) (A) (A) (A) (A)
                 (A) (A) (A) (A) (A) (A) (A) (A) (A) (A) (A) (A)
                 (A) (A) (A) (A) (A) (A) (A) (A) (A) (A) (A) (A)
                 (A) (A) (A) (A) (A) (A) (A) (A) (A) (A) (A) (A)
                 (A) (A) (A) (A) (A) (A) (A) (A) (A) (A) (A) (A)
                 (A) (A) (A) (A) (A) (A) (A) (A) (A) (A) (A) (A)
                 (A) (A) (A) (A) (A) (A) (A) (A) (A) (A) (A) (A)
                 (A) (A) (A) (A) (A)
 Beta  Orbitals:
       Occupied  (A) (A) (A) (A) (A) (A) (A) (A) (A) (A) (A) (A)
                 (A) (A) (A) (A) (A) (A) (A) (A) (A) (A) (A) (A)
                 (A) (A) (A) (A) (A) (A) (A) (A) (A) (A)
       Virtual   (A) (A) (A) (A) (A) (A) (A) (A) (A) (A) (A) (A)
                 (A) (A) (A) (A) (A) (A) (A) (A) (A) (A) (A) (A)
                 (A) (A) (A) (A) (A) (A) (A) (A) (A) (A) (A) (A)
                 (A) (A) (A) (A) (A) (A) (A) (A) (A) (A) (A) (A)
                 (A) (A) (A) (A) (A) (A) (A) (A) (A) (A) (A) (A)
                 (A) (A) (A) (A) (A) (A) (A) (A) (A) (A) (A) (A)
                 (A) (A) (A) (A) (A) (A) (A) (A) (A) (A) (A) (A)
                 (A) (A) (A) (A) (A) (A) (A) (A) (A) (A) (A) (A)
                 (A) (A) (A) (A) (A) (A) (A) (A) (A) (A) (A) (A)
                 (A) (A) (A) (A) (A) (A) (A) (A) (A) (A) (A) (A)
                 (A) (A) (A) (A) (A) (A) (A) (A) (A) (A) (A) (A)
                 (A) (A) (A) (A) (A) (A) (A) (A) (A) (A) (A) (A)
                 (A) (A) (A) (A) (A) (A) (A) (A) (A) (A) (A) (A)
                 (A) (A) (A) (A) (A) (A)
 The electronic state is 2-A.
 Alpha  occ. eigenvalues --  -19.75675 -19.59870 -19.59529 -14.81175 -14.74178
 Alpha  occ. eigenvalues --  -14.73762 -10.66016 -10.53829 -10.53739  -1.25624
 Alpha  occ. eigenvalues --   -1.20152  -1.15327  -1.08282  -0.95661  -0.88691
 Alpha  occ. eigenvalues --   -0.70285  -0.69708  -0.69167  -0.67177  -0.59678
 Alpha  occ. eigenvalues --   -0.56140  -0.54744  -0.52675  -0.50855  -0.49887
 Alpha  occ. eigenvalues --   -0.47460  -0.47429  -0.36904  -0.35302  -0.35265
 Alpha  occ. eigenvalues --   -0.34707  -0.33556  -0.32269  -0.30633  -0.10183
 Alpha virt. eigenvalues --    0.02555   0.03935   0.05029   0.05815   0.06875
 Alpha virt. eigenvalues --    0.07427   0.08550   0.08896   0.10942   0.11117
 Alpha virt. eigenvalues --    0.11281   0.13040   0.13182   0.13746   0.16512
 Alpha virt. eigenvalues --    0.17924   0.18880   0.19147   0.21235   0.21551
 Alpha virt. eigenvalues --    0.22324   0.22921   0.23878   0.24153   0.25546
 Alpha virt. eigenvalues --    0.26186   0.26530   0.27307   0.27477   0.28600
 Alpha virt. eigenvalues --    0.29346   0.29869   0.30563   0.31627   0.32537
 Alpha virt. eigenvalues --    0.32742   0.33308   0.34657   0.35359   0.36919
 Alpha virt. eigenvalues --    0.37504   0.38752   0.41172   0.42595   0.45898
 Alpha virt. eigenvalues --    0.46660   0.49536   0.52683   0.53485   0.60592
 Alpha virt. eigenvalues --    0.72617   0.74656   0.77407   0.78590   0.82044
 Alpha virt. eigenvalues --    0.85332   0.89953   0.92646   0.93977   0.96769
 Alpha virt. eigenvalues --    0.97476   0.98302   1.00320   1.01003   1.04026
 Alpha virt. eigenvalues --    1.04653   1.05027   1.05157   1.08085   1.10460
 Alpha virt. eigenvalues --    1.12591   1.14689   1.18001   1.19207   1.21348
 Alpha virt. eigenvalues --    1.25748   1.27915   1.30083   1.31876   1.33826
 Alpha virt. eigenvalues --    1.34729   1.34878   1.37554   1.39912   1.42191
 Alpha virt. eigenvalues --    1.42708   1.43720   1.44286   1.46677   1.47219
 Alpha virt. eigenvalues --    1.48802   1.51342   1.53362   1.54308   1.61654
 Alpha virt. eigenvalues --    1.62029   1.65186   1.67012   1.73110   1.82289
 Alpha virt. eigenvalues --    1.83122   1.88829   1.91761   1.94076   1.95437
 Alpha virt. eigenvalues --    1.99766   2.05334   2.06930   2.07491   2.09158
 Alpha virt. eigenvalues --    2.11189   2.12895   2.14933   2.18253   2.26860
 Alpha virt. eigenvalues --    2.28124   2.31225   2.33684   2.35399   2.36054
 Alpha virt. eigenvalues --    2.36858   2.37951   2.43613   2.47962   2.48944
 Alpha virt. eigenvalues --    2.51347   2.54811   2.56827   2.60944   2.65855
 Alpha virt. eigenvalues --    2.66001   2.72866   2.75540   2.77621   2.84778
 Alpha virt. eigenvalues --    2.85462   2.87403   2.92415   3.00277   3.01147
 Alpha virt. eigenvalues --    3.04575   3.06849   3.15340   3.17722   3.18693
 Alpha virt. eigenvalues --    3.29731   3.31049   3.36066   3.37854   3.49328
 Alpha virt. eigenvalues --    3.57417   3.77311   4.09587   4.26646   4.31173
 Alpha virt. eigenvalues --    4.32904   4.39815   4.49208   4.61439   4.72742
 Alpha virt. eigenvalues --    4.85665
  Beta  occ. eigenvalues --  -19.75673 -19.59781 -19.59414 -14.80947 -14.73726
  Beta  occ. eigenvalues --  -14.73307 -10.65944 -10.53820 -10.53744  -1.25619
  Beta  occ. eigenvalues --   -1.19362  -1.14714  -1.07922  -0.94244  -0.87881
  Beta  occ. eigenvalues --   -0.69909  -0.69447  -0.68944  -0.66703  -0.58665
  Beta  occ. eigenvalues --   -0.55767  -0.52933  -0.52398  -0.50542  -0.49578
  Beta  occ. eigenvalues --   -0.47056  -0.46045  -0.35939  -0.34862  -0.34119
  Beta  occ. eigenvalues --   -0.33537  -0.31505  -0.29740  -0.28514
  Beta virt. eigenvalues --    0.01959   0.03757   0.04384   0.04585   0.05047
  Beta virt. eigenvalues --    0.06543   0.06654   0.08014   0.08556   0.09517
  Beta virt. eigenvalues --    0.10602   0.11033   0.11828   0.13562   0.15276
  Beta virt. eigenvalues --    0.15495   0.17697   0.18550   0.18773   0.21254
  Beta virt. eigenvalues --    0.21449   0.22200   0.22712   0.23635   0.23793
  Beta virt. eigenvalues --    0.25146   0.25956   0.26279   0.26892   0.27397
  Beta virt. eigenvalues --    0.28479   0.29130   0.29956   0.30387   0.31432
  Beta virt. eigenvalues --    0.32381   0.32448   0.33039   0.34592   0.35245
  Beta virt. eigenvalues --    0.36617   0.37398   0.38654   0.40577   0.42270
  Beta virt. eigenvalues --    0.46180   0.46441   0.49390   0.52859   0.53606
  Beta virt. eigenvalues --    0.60820   0.72971   0.74810   0.77615   0.78603
  Beta virt. eigenvalues --    0.82559   0.85423   0.90040   0.92745   0.94124
  Beta virt. eigenvalues --    0.96814   0.97504   0.98304   1.00579   1.02473
  Beta virt. eigenvalues --    1.04200   1.05107   1.06355   1.06891   1.08243
  Beta virt. eigenvalues --    1.10573   1.12706   1.14725   1.17942   1.19162
  Beta virt. eigenvalues --    1.21609   1.25821   1.28314   1.30138   1.32544
  Beta virt. eigenvalues --    1.33784   1.34814   1.34934   1.37984   1.39935
  Beta virt. eigenvalues --    1.42238   1.43437   1.43898   1.44331   1.46884
  Beta virt. eigenvalues --    1.48180   1.49497   1.51497   1.54040   1.54435
  Beta virt. eigenvalues --    1.62453   1.62801   1.65281   1.67343   1.73320
  Beta virt. eigenvalues --    1.82735   1.83243   1.88991   1.91837   1.94219
  Beta virt. eigenvalues --    1.95613   2.00132   2.05652   2.07504   2.07767
  Beta virt. eigenvalues --    2.09429   2.11241   2.13457   2.15070   2.18319
  Beta virt. eigenvalues --    2.27093   2.28458   2.32145   2.33900   2.35499
  Beta virt. eigenvalues --    2.36508   2.37274   2.38466   2.43977   2.48045
  Beta virt. eigenvalues --    2.49313   2.51569   2.55195   2.57152   2.61229
  Beta virt. eigenvalues --    2.66666   2.66891   2.73437   2.75986   2.77646
  Beta virt. eigenvalues --    2.85542   2.85886   2.87794   2.92867   3.00942
  Beta virt. eigenvalues --    3.01619   3.04699   3.06918   3.15465   3.18197
  Beta virt. eigenvalues --    3.18976   3.30072   3.31359   3.36511   3.37879
  Beta virt. eigenvalues --    3.49331   3.57490   3.77591   4.09904   4.26634
  Beta virt. eigenvalues --    4.31243   4.33004   4.39869   4.49564   4.62545
  Beta virt. eigenvalues --    4.72961   4.85509
          Condensed to atoms (all electrons):
               1          2          3          4          5          6
     1  O    7.882469   0.285487   0.288887  -0.021120  -0.008730  -0.001991
     2  H    0.285487   0.231891  -0.013448   0.001825   0.000090  -0.000116
     3  H    0.288887  -0.013448   0.231794   0.003421  -0.004382   0.000221
     4  N   -0.021120   0.001825   0.003421   7.959258  -0.347704   0.157170
     5  N   -0.008730   0.000090  -0.004382  -0.347704   7.962985   0.085965
     6  C   -0.001991  -0.000116   0.000221   0.157170   0.085965   5.497837
     7  C    0.001343  -0.000126   0.000650   0.000362  -0.098479   0.331679
     8  N    0.000493   0.000156   0.000089  -0.671808  -0.091129  -0.189991
     9  H   -0.000049  -0.000002  -0.000005   0.012352  -0.053977   0.403783
    10  H    0.000003  -0.000000   0.000000   0.005787   0.001863  -0.033792
    11  H    0.174124  -0.006269  -0.006471  -0.004635   0.068633   0.001272
    12  C   -0.011440   0.000702  -0.000124   0.224590   0.003819  -0.011207
    13  O   -0.010575  -0.001703   0.000652  -0.090679  -0.124077   0.010726
    14  O   -0.001343   0.000021   0.000007  -0.141687   0.047333  -0.010888
               7          8          9         10         11         12
     1  O    0.001343   0.000493  -0.000049   0.000003   0.174124  -0.011440
     2  H   -0.000126   0.000156  -0.000002  -0.000000  -0.006269   0.000702
     3  H    0.000650   0.000089  -0.000005   0.000000  -0.006471  -0.000124
     4  N    0.000362  -0.671808   0.012352   0.005787  -0.004635   0.224590
     5  N   -0.098479  -0.091129  -0.053977   0.001863   0.068633   0.003819
     6  C    0.331679  -0.189991   0.403783  -0.033792   0.001272  -0.011207
     7  C    5.525404   0.094590  -0.032238   0.405503  -0.002880   0.000957
     8  N    0.094590   8.538400  -0.002335  -0.054827   0.006181  -0.092134
     9  H   -0.032238  -0.002335   0.493546   0.000813  -0.000156   0.000161
    10  H    0.405503  -0.054827   0.000813   0.499178  -0.000004   0.000162
    11  H   -0.002880   0.006181  -0.000156  -0.000004   0.195560  -0.003392
    12  C    0.000957  -0.092134   0.000161   0.000162  -0.003392   4.442839
    13  O   -0.013635   0.069543   0.000070   0.000068   0.032587   0.282005
    14  O    0.001551  -0.034100   0.000030  -0.000097   0.001305   0.344879
              13         14
     1  O   -0.010575  -0.001343
     2  H   -0.001703   0.000021
     3  H    0.000652   0.000007
     4  N   -0.090679  -0.141687
     5  N   -0.124077   0.047333
     6  C    0.010726  -0.010888
     7  C   -0.013635   0.001551
     8  N    0.069543  -0.034100
     9  H    0.000070   0.000030
    10  H    0.000068  -0.000097
    11  H    0.032587   0.001305
    12  C    0.282005   0.344879
    13  O    8.754828  -0.110455
    14  O   -0.110455   8.684594
          Atomic-Atomic Spin Densities.
               1          2          3          4          5          6
     1  O   -0.002734   0.000155  -0.000601   0.003592  -0.001458   0.001385
     2  H    0.000155   0.000023   0.000163  -0.000212   0.000070  -0.000028
     3  H   -0.000601   0.000163   0.000662   0.000138  -0.000553   0.000085
     4  N    0.003592  -0.000212   0.000138   0.594840  -0.401311   0.119908
     5  N   -0.001458   0.000070  -0.000553  -0.401311   0.858861  -0.235673
     6  C    0.001385  -0.000028   0.000085   0.119908  -0.235673   0.150070
     7  C   -0.001152   0.000043   0.000064   0.128093  -0.111706   0.143520
     8  N    0.000372  -0.000012  -0.000025  -0.416738   0.208183  -0.100901
     9  H    0.000013   0.000000  -0.000001   0.002744  -0.002440  -0.005437
    10  H    0.000001   0.000000  -0.000000   0.000971   0.000250   0.003299
    11  H    0.002380  -0.000205   0.000042  -0.004873   0.001015  -0.001692
    12  C    0.000251  -0.000071  -0.000026   0.109489  -0.028028  -0.003546
    13  O   -0.001110   0.000074  -0.000039  -0.045230   0.030292  -0.003070
    14  O    0.000050  -0.000002  -0.000002  -0.047477   0.014774  -0.004387
               7          8          9         10         11         12
     1  O   -0.001152   0.000372   0.000013   0.000001   0.002380   0.000251
     2  H    0.000043  -0.000012   0.000000   0.000000  -0.000205  -0.000071
     3  H    0.000064  -0.000025  -0.000001  -0.000000   0.000042  -0.000026
     4  N    0.128093  -0.416738   0.002744   0.000971  -0.004873   0.109489
     5  N   -0.111706   0.208183  -0.002440   0.000250   0.001015  -0.028028
     6  C    0.143520  -0.100901  -0.005437   0.003299  -0.001692  -0.003546
     7  C    0.086560  -0.227386   0.006351  -0.001402   0.001232   0.002983
     8  N   -0.227386   0.860816  -0.000464  -0.002333  -0.000317  -0.021111
     9  H    0.006351  -0.000464  -0.004054  -0.000025   0.000019  -0.000033
    10  H   -0.001402  -0.002333  -0.000025  -0.001879   0.000000  -0.000101
    11  H    0.001232  -0.000317   0.000019   0.000000  -0.001437  -0.000037
    12  C    0.002983  -0.021111  -0.000033  -0.000101  -0.000037   0.152320
    13  O   -0.004555   0.010443  -0.000001   0.000001   0.001317  -0.045877
    14  O   -0.002903   0.024261   0.000004   0.000012  -0.000062  -0.049019
              13         14
     1  O   -0.001110   0.000050
     2  H    0.000074  -0.000002
     3  H   -0.000039  -0.000002
     4  N   -0.045230  -0.047477
     5  N    0.030292   0.014774
     6  C   -0.003070  -0.004387
     7  C   -0.004555  -0.002903
     8  N    0.010443   0.024261
     9  H   -0.000001   0.000004
    10  H    0.000001   0.000012
    11  H    0.001317  -0.000062
    12  C   -0.045877  -0.049019
    13  O    0.087411   0.012993
    14  O    0.012993   0.103744
 Mulliken charges and spin densities:
               1          2
     1  O   -0.577556   0.001144
     2  H    0.501493  -0.000002
     3  H    0.498709  -0.000093
     4  N   -0.087131   0.043934
     5  N   -0.442211   0.332275
     6  C   -0.240667   0.063534
     7  C   -0.214681   0.019743
     8  N   -0.573127   0.334788
     9  H    0.178005  -0.003325
    10  H    0.175342  -0.001207
    11  H    0.544146  -0.002618
    12  C    0.818182   0.117192
    13  O   -0.799355   0.042648
    14  O   -0.781150   0.051987
 Sum of Mulliken charges =  -1.00000   1.00000
 Mulliken charges and spin densities with hydrogens summed into heavy atoms:
               1          2
     1  O    0.966792  -0.001570
     4  N   -0.087131   0.043934
     5  N   -0.442211   0.332275
     6  C   -0.062662   0.060209
     7  C   -0.039338   0.018536
     8  N   -0.573127   0.334788
    12  C    0.818182   0.117192
    13  O   -0.799355   0.042648
    14  O   -0.781150   0.051987
 APT charges:
               1
     1  O   -0.874547
     2  H    0.894159
     3  H    0.818304
     4  N   -0.258835
     5  N   -0.452869
     6  C   -0.667582
     7  C   -0.567881
     8  N   -0.575386
     9  H    0.618470
    10  H    0.747599
    11  H    0.123297
    12  C    0.508208
    13  O   -0.718858
    14  O   -0.594078
 Sum of APT charges =  -1.00000
 APT charges with hydrogens summed into heavy atoms:
               1
     1  O    0.961212
     4  N   -0.258835
     5  N   -0.452869
     6  C   -0.049113
     7  C    0.179718
     8  N   -0.575386
    12  C    0.508208
    13  O   -0.718858
    14  O   -0.594078
 Electronic spatial extent (au):  <R**2>=           1252.7747
 Charge=             -1.0000 electrons
 Dipole moment (field-independent basis, Debye):
    X=            -10.7428    Y=            -14.5728    Z=              1.9503  Tot=             18.2092
 Quadrupole moment (field-independent basis, Debye-Ang):
   XX=            -41.1739   YY=            -72.1116   ZZ=            -58.0212
   XY=             12.9169   XZ=             -6.0351   YZ=             -3.5397
 Traceless Quadrupole moment (field-independent basis, Debye-Ang):
   XX=             15.9283   YY=            -15.0094   ZZ=             -0.9190
   XY=             12.9169   XZ=             -6.0351   YZ=             -3.5397
 Octapole moment (field-independent basis, Debye-Ang**2):
  XXX=           -127.2409  YYY=            -96.6054  ZZZ=              1.2764  XYY=            -36.1749
  XXY=            -61.4487  XXZ=             18.3330  XZZ=            -16.1426  YZZ=              1.5318
  YYZ=              6.7428  XYZ=              9.5415
 Hexadecapole moment (field-independent basis, Debye-Ang**3):
 XXXX=           -555.9539 YYYY=           -794.1584 ZZZZ=            -70.1444 XXXY=            136.2117
 XXXZ=            -58.3136 YYYX=             79.7104 YYYZ=            -16.5283 ZZZX=             -4.0118
 ZZZY=             -2.6530 XXYY=           -218.6122 XXZZ=           -168.5562 YYZZ=           -136.3645
 XXYZ=            -28.4689 YYXZ=            -19.8660 ZZXY=             18.6676
 N-N= 4.535432946748D+02 E-N=-2.109146784211D+03  KE= 5.032485749401D+02
  Exact polarizability:   0.000   0.000   0.000   0.000   0.000   0.000
 Approx polarizability: 112.983  -4.408 116.148  -0.047  -0.042  65.071
                          Isotropic Fermi Contact Couplings
        Atom                 a.u.       MegaHertz       Gauss      10(-4) cm-1
     1  O(17)             -0.00234       1.41655       0.50546       0.47251
     2  H(1)              -0.00008      -0.36903      -0.13168      -0.12310
     3  H(1)              -0.00001      -0.06656      -0.02375      -0.02220
     4  N(14)              0.01589       5.13427       1.83204       1.71261
     5  N(14)              0.07504      24.24598       8.65157       8.08759
     6  C(13)             -0.00092      -1.03122      -0.36796      -0.34398
     7  C(13)             -0.00677      -7.61512      -2.71727      -2.54013
     8  N(14)              0.07972      25.75783       9.19104       8.59189
     9  H(1)              -0.00114      -5.07556      -1.81108      -1.69302
    10  H(1)              -0.00067      -3.01619      -1.07625      -1.00609
    11  H(1)              -0.00019      -0.85420      -0.30480      -0.28493
    12  C(13)              0.01453      16.33129       5.82741       5.44753
    13  O(17)              0.00893      -5.41230      -1.93124      -1.80535
    14  O(17)              0.01284      -7.78091      -2.77642      -2.59543
 --------------------------------------------------------
       Center         ----  Spin Dipole Couplings  ----
                      3XX-RR        3YY-RR        3ZZ-RR
 --------------------------------------------------------
     1   Atom       -0.001904     -0.004655      0.006558
     2   Atom        0.003420     -0.001276     -0.002144
     3   Atom        0.002602     -0.000165     -0.002438
     4   Atom       -0.187253     -0.187497      0.374750
     5   Atom       -0.348974     -0.346335      0.695310
     6   Atom       -0.018001     -0.018149      0.036150
     7   Atom       -0.006245      0.002159      0.004086
     8   Atom       -0.349049     -0.351300      0.700349
     9   Atom       -0.006225      0.010058     -0.003833
    10   Atom        0.007145     -0.002778     -0.004367
    11   Atom        0.010186     -0.004022     -0.006165
    12   Atom       -0.070871     -0.065837      0.136708
    13   Atom       -0.093693     -0.091286      0.184979
    14   Atom       -0.112745     -0.115437      0.228182
 --------------------------------------------------------
                        XY            XZ            YZ
 --------------------------------------------------------
     1   Atom        0.001073      0.000477      0.000673
     2   Atom        0.000928     -0.000449     -0.000066
     3   Atom        0.002836     -0.000629     -0.000562
     4   Atom       -0.001778     -0.005124     -0.003616
     5   Atom        0.003699     -0.005972     -0.007493
     6   Atom       -0.006847     -0.000376     -0.000733
     7   Atom       -0.005467     -0.000170     -0.000087
     8   Atom        0.002650     -0.008516     -0.007839
     9   Atom        0.000074     -0.000009      0.000108
    10   Atom       -0.003126      0.000073     -0.000018
    11   Atom        0.001636      0.000176      0.000034
    12   Atom       -0.007818     -0.002251     -0.001087
    13   Atom       -0.004257     -0.002713     -0.000523
    14   Atom       -0.004391     -0.003088     -0.001952
 --------------------------------------------------------


 ---------------------------------------------------------------------------------
              Anisotropic Spin Dipole Couplings in Principal Axis System
 ---------------------------------------------------------------------------------

       Atom             a.u.   MegaHertz   Gauss  10(-4) cm-1        Axes

              Baa    -0.0050     0.365     0.130     0.122 -0.3172  0.9474 -0.0419
     1 O(17)  Bbb    -0.0016     0.115     0.041     0.038  0.9462  0.3132 -0.0813
              Bcc     0.0066    -0.480    -0.171    -0.160  0.0639  0.0655  0.9958
 
              Baa    -0.0022    -1.163    -0.415    -0.388  0.0818 -0.0113  0.9966
     2 H(1)   Bbb    -0.0015    -0.775    -0.276    -0.258 -0.1846  0.9825  0.0263
              Bcc     0.0036     1.938     0.691     0.646  0.9794  0.1861 -0.0783
 
              Baa    -0.0026    -1.371    -0.489    -0.457 -0.0181  0.2477  0.9687
     3 H(1)   Bbb    -0.0019    -1.016    -0.363    -0.339 -0.5414  0.8121 -0.2177
              Bcc     0.0045     2.387     0.852     0.796  0.8405  0.5284 -0.1194
 
              Baa    -0.1892    -7.298    -2.604    -2.434  0.6852  0.7283  0.0109
     4 N(14)  Bbb    -0.1856    -7.158    -2.554    -2.388  0.7283 -0.6852  0.0022
              Bcc     0.3748    14.456     5.158     4.822 -0.0091 -0.0064  0.9999
 
              Baa    -0.3516   -13.560    -4.838    -4.523  0.8177 -0.5757  0.0005
     5 N(14)  Bbb    -0.3438   -13.260    -4.732    -4.423  0.5756  0.8177  0.0092
              Bcc     0.6954    26.820     9.570     8.946 -0.0057 -0.0072  1.0000
 
              Baa    -0.0249    -3.346    -1.194    -1.116  0.7030  0.7110  0.0129
     6 C(13)  Bbb    -0.0112    -1.507    -0.538    -0.503  0.7111 -0.7030 -0.0052
              Bcc     0.0362     4.853     1.732     1.619 -0.0053 -0.0128  0.9999
 
              Baa    -0.0089    -1.200    -0.428    -0.400  0.8970  0.4419  0.0147
     7 C(13)  Bbb     0.0041     0.549     0.196     0.183 -0.0148 -0.0032  0.9999
              Bcc     0.0049     0.651     0.232     0.217 -0.4419  0.8971 -0.0037
 
              Baa    -0.3531   -13.617    -4.859    -4.542 -0.5489  0.8359  0.0018
     8 N(14)  Bbb    -0.3474   -13.399    -4.781    -4.469  0.8358  0.5489  0.0109
              Bcc     0.7005    27.016     9.640     9.012 -0.0081 -0.0075  0.9999
 
              Baa    -0.0062    -3.321    -1.185    -1.108  1.0000 -0.0046  0.0041
     9 H(1)   Bbb    -0.0038    -2.045    -0.730    -0.682 -0.0041 -0.0077  1.0000
              Bcc     0.0101     5.367     1.915     1.790  0.0046  1.0000  0.0078
 
              Baa    -0.0044    -2.330    -0.831    -0.777 -0.0071 -0.0026  1.0000
    10 H(1)   Bbb    -0.0037    -1.964    -0.701    -0.655  0.2774  0.9607  0.0045
              Bcc     0.0080     4.294     1.532     1.432  0.9607 -0.2774  0.0061
 
              Baa    -0.0062    -3.290    -1.174    -1.098 -0.0100 -0.0084  0.9999
    11 H(1)   Bbb    -0.0042    -2.245    -0.801    -0.749 -0.1130  0.9936  0.0072
              Bcc     0.0104     5.535     1.975     1.846  0.9935  0.1129  0.0108
 
              Baa    -0.0766   -10.278    -3.668    -3.429  0.8083  0.5886  0.0115
    12 C(13)  Bbb    -0.0601    -8.070    -2.880    -2.692 -0.5886  0.8084 -0.0023
              Bcc     0.1367    18.349     6.547     6.121 -0.0107 -0.0050  0.9999
 
              Baa    -0.0969     7.014     2.503     2.340  0.7982  0.6023  0.0088
    13 O(17)  Bbb    -0.0881     6.373     2.274     2.126 -0.6023  0.7982 -0.0045
              Bcc     0.1850   -13.387    -4.777    -4.465 -0.0097 -0.0017  1.0000
 
              Baa    -0.1187     8.590     3.065     2.865  0.5956  0.8032  0.0098
    14 O(17)  Bbb    -0.1095     7.924     2.827     2.643  0.8032 -0.5957  0.0039
              Bcc     0.2282   -16.514    -5.893    -5.508 -0.0090 -0.0056  0.9999
 

 ---------------------------------------------------------------------------------

 D2PCM: PCM CHGder 2nd derivatives, FixD1E=F FixD2E=F DoIter=F DoCFld=F I1PDM=0
 Calling FoFJK, ICntrl=    100147 FMM=F ISym2X=0 I1Cent= 0 IOpClX= 1 NMat=1 NMatS=1 NMatT=0.
 ***** Axes restored to original set *****
 -------------------------------------------------------------------
 Center     Atomic                   Forces (Hartrees/Bohr)
 Number     Number              X              Y              Z
 -------------------------------------------------------------------
      1        8           0.006122904   -0.002306305   -0.000244269
      2        1          -0.000383237   -0.000639679    0.000214525
      3        1          -0.000179944    0.000844046    0.000297831
      4        7           0.057857468    0.071643627    0.000002704
      5        7           0.056996042   -0.027068220    0.000669415
      6        6          -0.044740979   -0.009559643   -0.000388991
      7        6           0.005019018   -0.041805404    0.000407494
      8        7          -0.042446407    0.039116236   -0.000743933
      9        1          -0.000783595   -0.001055221    0.000004888
     10        1          -0.001034471   -0.000959945    0.000014948
     11        1          -0.011869290    0.003062596   -0.000190059
     12        6          -0.054200202   -0.068236359    0.000056939
     13        8           0.037240046   -0.002435700    0.000302085
     14        8          -0.007597352    0.039399972   -0.000403578
 -------------------------------------------------------------------
 Cartesian Forces:  Max     0.071643627 RMS     0.026928443
 FormGI is forming the generalized inverse of G from B-inverse, IUseBI=4.

 GradGradGradGradGradGradGradGradGradGradGradGradGradGradGradGradGradGrad
 Berny optimization.
 Internal  Forces:  Max     0.045837652 RMS     0.013265490
 Search for a saddle point.
 Step number   1 out of a maximum of  100
 All quantities printed in internal units (Hartrees-Bohrs-Radians)
 Swapping is turned off.
 Second derivative matrix not updated -- analytic derivatives used.
 ITU=  0
     Eigenvalues ---   -0.00708  -0.00011   0.00112   0.00200   0.00276
     Eigenvalues ---    0.00694   0.01311   0.01485   0.01593   0.02378
     Eigenvalues ---    0.03051   0.03328   0.04952   0.05348   0.08615
     Eigenvalues ---    0.10337   0.10789   0.11886   0.12274   0.14625
     Eigenvalues ---    0.21741   0.23803   0.26786   0.32353   0.33932
     Eigenvalues ---    0.37247   0.38420   0.38634   0.39438   0.43953
     Eigenvalues ---    0.50306   0.50549   0.52441   0.57996   0.60066
     Eigenvalues ---    0.78811
 Eigenvectors required to have negative eigenvalues:
                          R8        R13       A18       A17       A9
   1                    0.56855  -0.52921   0.39715  -0.39258   0.16417
                          A8        A23       D4        D2        D21
   1                   -0.16114   0.14727   0.04429   0.03756   0.03579
 RFO step:  Lambda0=3.637242358D-04 Lambda=-3.17290277D-02.
 Linear search not attempted -- option 19 set.
 Maximum step size (   0.300) exceeded in Quadratic search.
    -- Step size scaled by   0.710
 Iteration  1 RMS(Cart)=  0.04811880 RMS(Int)=  0.00436924
 Iteration  2 RMS(Cart)=  0.00325680 RMS(Int)=  0.00245378
 Iteration  3 RMS(Cart)=  0.00002752 RMS(Int)=  0.00245372
 Iteration  4 RMS(Cart)=  0.00000019 RMS(Int)=  0.00245372
 Variable       Old X    -DE/DX   Delta X   Delta X   Delta X     New X
                                 (Linear)    (Quad)   (Total)
    R1        1.84608  -0.00072   0.00000  -0.00095  -0.00095   1.84513
    R2        1.84487  -0.00085   0.00000  -0.00124  -0.00124   1.84363
    R3        1.90364   0.00583   0.00000   0.01355   0.01355   1.91720
    R4        2.50620   0.04247   0.00000   0.06246   0.06528   2.57148
    R5        2.49916   0.04584   0.00000   0.06597   0.06669   2.56585
    R6        2.80137  -0.04088   0.00000  -0.16541  -0.16491   2.63646
    R7        2.50721   0.03960   0.00000   0.04289   0.04315   2.55036
    R8        3.70381  -0.00509   0.00000   0.02427   0.02463   3.72844
    R9        2.65648  -0.00840   0.00000  -0.03477  -0.03615   2.62032
   R10        2.04011   0.00101   0.00000   0.00161   0.00161   2.04172
   R11        2.51004   0.03776   0.00000   0.04233   0.04116   2.55120
   R12        2.03960   0.00122   0.00000   0.00183   0.00183   2.04143
   R13        3.60989   0.00039   0.00000  -0.12508  -0.12627   3.48362
   R14        2.35310   0.03547   0.00000   0.04841   0.04772   2.40082
   R15        2.33065   0.03890   0.00000   0.04516   0.04516   2.37581
    A1        1.90155  -0.00006   0.00000  -0.00175  -0.00175   1.89980
    A2        1.90916   0.00050   0.00000  -0.00100  -0.00100   1.90816
    A3        1.92863  -0.00060   0.00000  -0.00054  -0.00054   1.92810
    A4        2.00533  -0.00770   0.00000  -0.00537  -0.00722   1.99812
    A5        2.10458  -0.00053   0.00000   0.00080  -0.00205   2.10253
    A6        2.17327   0.00823   0.00000   0.00426  -0.00129   2.17197
    A7        1.82543  -0.00554   0.00000  -0.01990  -0.02012   1.80531
    A8        1.84719  -0.00042   0.00000  -0.03679  -0.03731   1.80988
    A9        2.61056   0.00597   0.00000   0.05754   0.04760   2.65815
   A10        1.88199   0.00886   0.00000   0.02269   0.02346   1.90545
   A11        2.12545  -0.00357   0.00000  -0.01194  -0.01232   2.11312
   A12        2.27575  -0.00529   0.00000  -0.01075  -0.01113   2.26461
   A13        1.89303   0.01144   0.00000   0.02313   0.02257   1.91559
   A14        2.26807  -0.00644   0.00000  -0.01036  -0.01008   2.25799
   A15        2.12209  -0.00500   0.00000  -0.01277  -0.01249   2.10959
   A16        1.81900  -0.00706   0.00000  -0.02056  -0.01881   1.80019
   A17        2.50470   0.00026   0.00000  -0.07270  -0.07299   2.43171
   A18        2.27679  -0.00104   0.00000   0.06171   0.06162   2.33841
   A19        1.49913   0.00078   0.00000   0.01187   0.01212   1.51125
   A20        1.96646   0.00257   0.00000   0.03585   0.03645   2.00291
   A21        2.01495   0.01021   0.00000   0.04326   0.04287   2.05782
   A22        2.30178  -0.01278   0.00000  -0.07911  -0.07953   2.22225
   A23        2.00739  -0.00240   0.00000  -0.01148  -0.01207   1.99532
    D1        2.79293  -0.00014   0.00000  -0.03347  -0.03239   2.76053
    D2       -0.45499  -0.00000   0.00000  -0.01280  -0.01387  -0.46886
    D3        0.69952  -0.00001   0.00000  -0.03034  -0.02926   0.67025
    D4       -2.54840   0.00013   0.00000  -0.00967  -0.01074  -2.55914
    D5        0.00054  -0.00003   0.00000   0.00960   0.01310   0.01364
    D6        3.13805   0.00000   0.00000   0.12146   0.11517  -3.02997
    D7        3.13992  -0.00002   0.00000  -0.13935  -0.13358   3.00634
    D8       -0.00576   0.00002   0.00000  -0.02750  -0.03150  -0.03727
    D9       -0.00045   0.00004   0.00000  -0.01208  -0.01485  -0.01529
   D10       -3.13972   0.00004   0.00000   0.14356   0.13851  -3.00121
   D11        0.00128   0.00000   0.00000   0.07372   0.07702   0.07830
   D12       -3.14028  -0.00005   0.00000   0.05721   0.05667  -3.08361
   D13        3.14043  -0.00001   0.00000  -0.09028  -0.08498   3.05545
   D14       -0.00113  -0.00006   0.00000  -0.10679  -0.10533  -0.10646
   D15       -0.00040   0.00001   0.00000  -0.00300  -0.00571  -0.00610
   D16        3.14151   0.00001   0.00000  -0.00457  -0.00497   3.13654
   D17       -3.13422   0.00002   0.00000  -0.21465  -0.21940   2.92956
   D18        0.00768   0.00002   0.00000  -0.21622  -0.21867  -0.21098
   D19        3.06665   0.00000   0.00000   0.00856   0.00813   3.07478
   D20        0.00611  -0.00004   0.00000  -0.01152  -0.00967  -0.00357
   D21       -0.08276  -0.00002   0.00000   0.22150   0.22210   0.13934
   D22        3.13989  -0.00006   0.00000   0.20142   0.20430  -2.93900
   D23        0.00015   0.00002   0.00000  -0.00408  -0.00305  -0.00290
   D24       -3.14146   0.00001   0.00000  -0.00093   0.00062  -3.14084
   D25        3.14140   0.00002   0.00000  -0.00234  -0.00387   3.13752
   D26       -0.00021   0.00000   0.00000   0.00082  -0.00020  -0.00042
   D27        0.00016  -0.00003   0.00000   0.00930   0.01035   0.01051
   D28       -3.14142  -0.00002   0.00000   0.00646   0.00705  -3.13437
   D29       -3.08448  -0.00007   0.00000   0.04906   0.04595  -3.03853
   D30       -0.00620   0.00004   0.00000   0.05516   0.05198   0.04578
   D31        0.00439  -0.00005   0.00000  -0.07889  -0.08067  -0.07628
   D32       -3.13724   0.00002   0.00000  -0.05886  -0.05805   3.08789
         Item               Value     Threshold  Converged?
 Maximum Force            0.045838     0.000450     NO 
 RMS     Force            0.013265     0.000300     NO 
 Maximum Displacement     0.183446     0.001800     NO 
 RMS     Displacement     0.049030     0.001200     NO 
 Predicted change in Energy=-1.538772D-02
 GradGradGradGradGradGradGradGradGradGradGradGradGradGradGradGradGradGrad

                          Input orientation:                          
 ---------------------------------------------------------------------
 Center     Atomic      Atomic             Coordinates (Angstroms)
 Number     Number       Type             X           Y           Z
 ---------------------------------------------------------------------
      1          8           0        2.706777   -1.367702    0.100154
      2          1           0        3.478983   -0.870297   -0.230968
      3          1           0        2.609414   -2.184507   -0.424401
      4          7           0       -0.542347    0.283427   -0.097258
      5          7           0       -0.084077   -0.997746   -0.080436
      6          6           0       -1.213163   -1.733791   -0.011086
      7          6           0       -2.309070   -0.884825    0.019733
      8          7           0       -1.893332    0.398801   -0.025753
      9          1           0       -1.174519   -2.813256    0.013300
     10          1           0       -3.360832   -1.125211    0.074571
     11          1           0        1.875698   -0.791721    0.017464
     12          6           0        0.347148    1.354155   -0.003503
     13          8           0        1.574722    1.026946    0.004308
     14          8           0       -0.132532    2.515447    0.040427
 ---------------------------------------------------------------------
                    Distance matrix (angstroms):
                    1          2          3          4          5
     1  O    0.000000
     2  H    0.976399   0.000000
     3  H    0.975607   1.587676   0.000000
     4  N    3.649931   4.185695   4.016381   0.000000
     5  N    2.821054   3.568515   2.963378   1.360771   0.000000
     6  C    3.938569   4.776003   3.871185   2.127578   1.349595
     7  C    5.039678   5.793498   5.106654   2.121276   2.230107
     8  N    4.929238   5.523992   5.206450   1.357787   2.286206
     9  H    4.142660   5.048746   3.860707   3.162484   2.119888
    10  H    6.072506   6.851379   6.083989   3.155574   3.282894
    11  H    1.014536   1.624319   1.635065   2.648782   1.973006
    12  C    3.603762   3.848158   4.221035   1.395152   2.392345
    13  O    2.650486   2.698350   3.401149   2.246134   2.618812
    14  O    4.810830   4.957817   5.461126   2.273504   3.515605
                    6          7          8          9         10
     6  C    0.000000
     7  C    1.386616   0.000000
     8  N    2.238480   1.350038   0.000000
     9  H    1.080432   2.237430   3.291736   0.000000
    10  H    2.233873   1.080276   2.118073   2.762827   0.000000
    11  H    3.229454   4.185805   3.952822   3.659296   5.247450
    12  C    3.459774   3.474056   2.435764   4.436560   4.461218
    13  O    3.923546   4.328851   3.524609   4.722876   5.384832
    14  O    4.384796   4.037276   2.754086   5.429691   4.865951
                   11         12         13         14
    11  H    0.000000
    12  C    2.634709   0.000000
    13  O    1.843451   1.270459   0.000000
    14  O    3.869221   1.257227   2.265315   0.000000
 Stoichiometry    C3H5N3O3(1-,2)
 Framework group  C1[X(C3H5N3O3)]
 Deg. of freedom    36
 Full point group                 C1      NOp   1
 Largest Abelian subgroup         C1      NOp   1
 Largest concise Abelian subgroup C1      NOp   1
                         Standard orientation:                         
 ---------------------------------------------------------------------
 Center     Atomic      Atomic             Coordinates (Angstroms)
 Number     Number       Type             X           Y           Z
 ---------------------------------------------------------------------
      1          8           0       -2.722640   -1.334982   -0.113452
      2          1           0       -3.488392   -0.831936    0.224073
      3          1           0       -2.632386   -2.156871    0.404390
      4          7           0        0.544657    0.279614    0.086180
      5          7           0        0.072593   -0.996400    0.060863
      6          6           0        1.193475   -1.743943   -0.017933
      7          6           0        2.298339   -0.906562   -0.045720
      8          7           0        1.896569    0.381052    0.011146
      9          1           0        1.143153   -2.822707   -0.050615
     10          1           0        3.347276   -1.157775   -0.105882
     11          1           0       -1.885158   -0.768611   -0.028997
     12          6           0       -0.333573    1.360521    0.003702
     13          8           0       -1.564612    1.046565   -0.002635
     14          8           0        0.158418    2.516911   -0.032737
 ---------------------------------------------------------------------
 Rotational constants (GHZ):           2.0347745           1.5285138           0.8747170
 Standard basis: 6-31+G(d,p) (6D, 7F)
 There are   196 symmetry adapted cartesian basis functions of A   symmetry.
 There are   196 symmetry adapted basis functions of A   symmetry.
   196 basis functions,   323 primitive gaussians,   196 cartesian basis functions
    35 alpha electrons       34 beta electrons
       nuclear repulsion energy       452.6899527886 Hartrees.
 NAtoms=   14 NActive=   14 NUniq=   14 SFac= 1.00D+00 NAtFMM=   60 NAOKFM=F Big=F
 Integral buffers will be    131072 words long.
 Raffenetti 2 integral format.
 Two-electron integral symmetry is turned on.
 ------------------------------------------------------------------------------
 Polarizable Continuum Model (PCM)
 =================================
 Model                : PCM.
 Atomic radii         : SMD-Coulomb.
 Polarization charges : Total charges.
 Charge compensation  : None.
 Solution method      : Matrix inversion.
 Cavity type          : VdW (van der Waals Surface) (Alpha=1.000).
 Cavity algorithm     : GePol (No added spheres)
                        Default sphere list used, NSphG=   14.
                        Lebedev-Laikov grids with approx.  5.0 points / Ang**2.
                        Smoothing algorithm: York/Karplus (Gamma=1.0000).
                        Polarization charges: spherical gaussians, with
                                              point-specific exponents (IZeta= 3).
                        Self-potential: point-specific (ISelfS= 7).
                        Self-field    : sphere-specific E.n sum rule (ISelfD= 2).
 1st derivatives      : Analytical E(r).r(x)/FMM algorithm (CHGder, D1EAlg=3).
                        Cavity 1st derivative terms included.
 Solvent              : Water, Eps=  78.355300 Eps(inf)=   1.777849
 ------------------------------------------------------------------------------
 Spheres list:
 ISph  on   Nord     Re0    Alpha      Xe            Ye            Ze
    1   O      1    1.5200  1.000     -2.722640     -1.334982     -0.113452
    2   H      2    1.2000  1.000     -3.488392     -0.831936      0.224073
    3   H      3    1.2000  1.000     -2.632386     -2.156871      0.404390
    4   N      4    1.8900  1.000      0.544657      0.279614      0.086180
    5   N      5    1.8900  1.000      0.072593     -0.996400      0.060863
    6   C      6    1.8500  1.000      1.193475     -1.743943     -0.017933
    7   C      7    1.8500  1.000      2.298339     -0.906562     -0.045720
    8   N      8    1.8900  1.000      1.896569      0.381052      0.011146
    9   H      9    1.2000  1.000      1.143153     -2.822707     -0.050615
   10   H     10    1.2000  1.000      3.347276     -1.157775     -0.105882
   11   H     11    1.2000  1.000     -1.885158     -0.768611     -0.028997
   12   C     12    1.8500  1.000     -0.333573      1.360521      0.003702
   13   O     13    1.5200  1.000     -1.564612      1.046565     -0.002635
   14   O     14    1.5200  1.000      0.158418      2.516911     -0.032737
 ------------------------------------------------------------------------------
 ------------------------------------------------------------------------------
 Atomic radii for non-electrostatic terms: SMD-CDS.
 ------------------------------------------------------------------------------
 Nuclear repulsion after PCM non-electrostatic terms =      452.6978506028 Hartrees.
 One-electron integrals computed using PRISM.
 NBasis=   196 RedAO= T EigKep=  2.63D-05  NBF=   196
 NBsUse=   196 1.00D-06 EigRej= -1.00D+00 NBFU=   196
 Initial guess from the checkpoint file:  "/scratch/gongke2021/TS-cycle/Gau-15419.chk"
 B after Tr=     0.000000   -0.000000   -0.000000
         Rot=    0.999988   -0.000021    0.000031    0.004970 Ang=  -0.57 deg.
 Initial guess <Sx>= 0.0000 <Sy>= 0.0000 <Sz>= 0.5000 <S**2>= 0.7603 S= 0.5052
 ExpMin= 4.38D-02 ExpMax= 5.48D+03 ExpMxC= 8.25D+02 IAcc=2 IRadAn=         4 AccDes= 0.00D+00
 Harris functional with IExCor= 1009 and IRadAn=       4 diagonalized for initial guess.
 HarFok:  IExCor= 1009 AccDes= 0.00D+00 IRadAn=         4 IDoV= 1 UseB2=F ITyADJ=14
 ICtDFT=  3500011 ScaDFX=  1.000000  1.000000  1.000000  1.000000
 FoFCou: FMM=F IPFlag=           0 FMFlag=      100000 FMFlg1=           0
         NFxFlg=           0 DoJE=T BraDBF=F KetDBF=T FulRan=T
         wScrn=  0.000000 ICntrl=       500 IOpCl=  0 I1Cent=   200000004 NGrid=           0
         NMat0=    1 NMatS0=      1 NMatT0=    0 NMatD0=    1 NMtDS0=    0 NMtDT0=    0
 Petite list used in FoFCou.
 Requested convergence on RMS density matrix=1.00D-08 within 128 cycles.
 Requested convergence on MAX density matrix=1.00D-06.
 Requested convergence on             energy=1.00D-06.
 No special actions if energy rises.
 Inv3:  Mode=1 IEnd=     4191372.
 Iteration    1 A*A^-1 deviation from unit magnitude is 3.55D-15 for    371.
 Iteration    1 A*A^-1 deviation from orthogonality  is 1.58D-15 for    361     18.
 Iteration    1 A^-1*A deviation from unit magnitude is 2.89D-15 for    371.
 Iteration    1 A^-1*A deviation from orthogonality  is 1.69D-15 for    365    227.
 Error on total polarization charges =  0.06015
 SCF Done:  E(UM062X) =  -507.141550031     A.U. after   16 cycles
            NFock= 16  Conv=0.69D-08     -V/T= 2.0082
 <Sx>= 0.0000 <Sy>= 0.0000 <Sz>= 0.5000 <S**2>= 0.7621 S= 0.5060
 <L.S>=  0.00000000000    
 SMD-CDS (non-electrostatic) energy       (kcal/mol) =       4.96
 (included in total energy above)
 Annihilation of the first spin contaminant:
 S**2 before annihilation     0.7621,   after     0.7501
 D1PCM: PCM CHGder 1st derivatives, ID1Alg=3 FixD1E=F DoIter=F DoCFld=F I1PDM=0.
 Calling FoFJK, ICntrl=      2127 FMM=F ISym2X=0 I1Cent= 0 IOpClX= 1 NMat=1 NMatS=1 NMatT=0.
 ***** Axes restored to original set *****
 -------------------------------------------------------------------
 Center     Atomic                   Forces (Hartrees/Bohr)
 Number     Number              X              Y              Z
 -------------------------------------------------------------------
      1        8           0.002881941   -0.001769019   -0.000095731
      2        1          -0.000280245   -0.000235468    0.000162355
      3        1          -0.000018856    0.000354100    0.000111501
      4        7           0.015623289    0.018574988    0.002220716
      5        7           0.022457603   -0.013394594   -0.000641923
      6        6          -0.015005864   -0.003498029    0.000418067
      7        6           0.001913957   -0.013709998    0.000122856
      8        7          -0.018827751    0.014734196   -0.000168617
      9        1          -0.000244123   -0.000419866   -0.000087671
     10        1          -0.000436922   -0.000257067   -0.000027900
     11        1          -0.006501557    0.004447651   -0.000267886
     12        6          -0.015101393   -0.017797220   -0.003419502
     13        8           0.015666788   -0.002106786    0.000649715
     14        8          -0.002126867    0.015077114    0.001024020
 -------------------------------------------------------------------
 Cartesian Forces:  Max     0.022457603 RMS     0.008988237

 GradGradGradGradGradGradGradGradGradGradGradGradGradGradGradGradGradGrad
 Berny optimization.
 FormGI is forming the generalized inverse of G from B-inverse, IUseBI=4.
 Internal  Forces:  Max     0.018820483 RMS     0.004795267
 Search for a saddle point.
 Step number   2 out of a maximum of  100
 All quantities printed in internal units (Hartrees-Bohrs-Radians)
 Swapping is turned off.
 Update second derivatives using D2CorX and points    1    2
 ITU=  0  0
     Eigenvalues ---   -0.00888  -0.00252   0.00114   0.00201   0.00297
     Eigenvalues ---    0.00695   0.01311   0.01485   0.01586   0.02377
     Eigenvalues ---    0.03051   0.03328   0.04938   0.05342   0.08290
     Eigenvalues ---    0.10337   0.10789   0.11891   0.12274   0.15813
     Eigenvalues ---    0.21549   0.23675   0.26648   0.32362   0.34060
     Eigenvalues ---    0.36983   0.38399   0.38632   0.39437   0.43860
     Eigenvalues ---    0.50306   0.50549   0.52413   0.57977   0.59950
     Eigenvalues ---    0.78714
 Eigenvectors required to have negative eigenvalues:
                          R8        R13       A17       A18       D21
   1                    0.51847  -0.50871  -0.36589   0.35851   0.18970
                          D17       D18       A8        A9        D22
   1                   -0.17677  -0.17381  -0.15599   0.14901   0.14868
 RFO step:  Lambda0=6.280242453D-07 Lambda=-4.64981741D-03.
 Linear search not attempted -- option 19 set.
 Maximum step size (   0.300) exceeded in Quadratic search.
    -- Step size scaled by   0.834
 Iteration  1 RMS(Cart)=  0.05243191 RMS(Int)=  0.00738145
 Iteration  2 RMS(Cart)=  0.00616941 RMS(Int)=  0.00364396
 Iteration  3 RMS(Cart)=  0.00013956 RMS(Int)=  0.00364326
 Iteration  4 RMS(Cart)=  0.00000101 RMS(Int)=  0.00364326
 Iteration  5 RMS(Cart)=  0.00000002 RMS(Int)=  0.00364326
 Variable       Old X    -DE/DX   Delta X   Delta X   Delta X     New X
                                 (Linear)    (Quad)   (Total)
    R1        1.84513  -0.00040   0.00000  -0.00075  -0.00075   1.84437
    R2        1.84363  -0.00032   0.00000  -0.00120  -0.00120   1.84243
    R3        1.91720   0.00308   0.00000   0.01452   0.01452   1.93172
    R4        2.57148   0.01673   0.00000   0.01920   0.02365   2.59513
    R5        2.56585   0.01882   0.00000   0.02733   0.02799   2.59384
    R6        2.63646  -0.00528   0.00000  -0.08305  -0.08266   2.55380
    R7        2.55036   0.01378   0.00000   0.01537   0.01618   2.56654
    R8        3.72844  -0.00207   0.00000   0.01570   0.01687   3.74531
    R9        2.62032  -0.00127   0.00000  -0.01259  -0.01436   2.60597
   R10        2.04172   0.00040   0.00000   0.00079   0.00079   2.04251
   R11        2.55120   0.01307   0.00000   0.02010   0.01809   2.56929
   R12        2.04143   0.00048   0.00000   0.00080   0.00080   2.04222
   R13        3.48362  -0.00101   0.00000  -0.20064  -0.20264   3.28097
   R14        2.40082   0.01389   0.00000   0.02789   0.02609   2.42691
   R15        2.37581   0.01477   0.00000   0.01913   0.01913   2.39494
    A1        1.89980  -0.00002   0.00000  -0.00215  -0.00215   1.89765
    A2        1.90816   0.00011   0.00000  -0.00194  -0.00194   1.90622
    A3        1.92810  -0.00021   0.00000   0.00095   0.00095   1.92905
    A4        1.99812  -0.00183   0.00000   0.00385   0.00192   2.00003
    A5        2.10253  -0.00154   0.00000   0.00266  -0.00009   2.10244
    A6        2.17197   0.00347   0.00000   0.01795   0.00854   2.18052
    A7        1.80531  -0.00265   0.00000  -0.00811  -0.00981   1.79549
    A8        1.80988  -0.00045   0.00000  -0.05125  -0.05248   1.75740
    A9        2.65815   0.00314   0.00000   0.08350   0.07193   2.73008
   A10        1.90545   0.00337   0.00000   0.00755   0.00959   1.91504
   A11        2.11312  -0.00140   0.00000  -0.00430  -0.00532   2.10780
   A12        2.26461  -0.00196   0.00000  -0.00325  -0.00427   2.26035
   A13        1.91559   0.00482   0.00000   0.01127   0.01071   1.92630
   A14        2.25799  -0.00253   0.00000  -0.00466  -0.00438   2.25361
   A15        2.10959  -0.00228   0.00000  -0.00660  -0.00632   2.10327
   A16        1.80019  -0.00370   0.00000  -0.01435  -0.01228   1.78791
   A17        2.43171  -0.00159   0.00000  -0.11949  -0.12005   2.31166
   A18        2.33841  -0.00137   0.00000   0.08238   0.08194   2.42036
   A19        1.51125   0.00297   0.00000   0.03677   0.03791   1.54917
   A20        2.00291   0.00001   0.00000   0.01723   0.01794   2.02085
   A21        2.05782   0.00456   0.00000   0.02614   0.02567   2.08349
   A22        2.22225  -0.00456   0.00000  -0.04292  -0.04342   2.17883
   A23        1.99532  -0.00096   0.00000   0.00135  -0.00053   1.99480
    D1        2.76053  -0.00013   0.00000   0.05059   0.04910   2.80963
    D2       -0.46886   0.00008   0.00000   0.04478   0.04627  -0.42259
    D3        0.67025  -0.00005   0.00000   0.05388   0.05239   0.72264
    D4       -2.55914   0.00016   0.00000   0.04807   0.04956  -2.50958
    D5        0.01364  -0.00015   0.00000  -0.01040  -0.01661  -0.00297
    D6       -3.02997  -0.00071   0.00000  -0.13809  -0.12767   3.12555
    D7        3.00634   0.00086   0.00000   0.16236   0.15231  -3.12454
    D8       -0.03727   0.00030   0.00000   0.03466   0.04125   0.00399
    D9       -0.01529   0.00017   0.00000   0.01350   0.01857   0.00327
   D10       -3.00121  -0.00037   0.00000  -0.16556  -0.15817   3.12381
   D11        0.07830  -0.00056   0.00000  -0.08710  -0.09203  -0.01373
   D12       -3.08361  -0.00014   0.00000  -0.06565  -0.06574   3.13384
   D13        3.05545   0.00003   0.00000   0.10226   0.09463  -3.13311
   D14       -0.10646   0.00044   0.00000   0.12371   0.12092   0.01446
   D15       -0.00610   0.00006   0.00000   0.00286   0.00749   0.00139
   D16        3.13654   0.00001   0.00000   0.00575   0.00667  -3.13998
   D17        2.92956  -0.00003   0.00000   0.23839   0.24553  -3.10810
   D18       -0.21098  -0.00008   0.00000   0.24127   0.24471   0.03372
   D19        3.07478  -0.00015   0.00000   0.01252   0.01103   3.08580
   D20       -0.00357  -0.00023   0.00000   0.01153   0.00759   0.00402
   D21        0.13934   0.00005   0.00000  -0.22548  -0.22699  -0.08765
   D22       -2.93900  -0.00003   0.00000  -0.22647  -0.23043   3.11376
   D23       -0.00290  -0.00000   0.00000   0.00522   0.00345   0.00055
   D24       -3.14084  -0.00005   0.00000   0.00198  -0.00059  -3.14143
   D25        3.13752   0.00006   0.00000   0.00201   0.00436  -3.14130
   D26       -0.00042   0.00001   0.00000  -0.00123   0.00032  -0.00010
   D27        0.01051  -0.00008   0.00000  -0.01086  -0.01272  -0.00221
   D28       -3.13437  -0.00003   0.00000  -0.00795  -0.00908   3.13973
   D29       -3.03853  -0.00021   0.00000  -0.04920  -0.04787  -3.08640
   D30        0.04578  -0.00017   0.00000  -0.06083  -0.05744  -0.01166
   D31       -0.07628   0.00026   0.00000   0.09163   0.09297   0.01669
   D32        3.08789  -0.00034   0.00000   0.06674   0.06404  -3.13125
         Item               Value     Threshold  Converged?
 Maximum Force            0.018820     0.000450     NO 
 RMS     Force            0.004795     0.000300     NO 
 Maximum Displacement     0.204830     0.001800     NO 
 RMS     Displacement     0.057005     0.001200     NO 
 Predicted change in Energy=-3.131986D-03
 GradGradGradGradGradGradGradGradGradGradGradGradGradGradGradGradGradGrad

                          Input orientation:                          
 ---------------------------------------------------------------------
 Center     Atomic      Atomic             Coordinates (Angstroms)
 Number     Number       Type             X           Y           Z
 ---------------------------------------------------------------------
      1          8           0        2.687747   -1.348767    0.076416
      2          1           0        3.486893   -0.891045   -0.246747
      3          1           0        2.531519   -2.135149   -0.478351
      4          7           0       -0.525885    0.280954    0.011133
      5          7           0       -0.067770   -1.013578    0.026093
      6          6           0       -1.214856   -1.740666    0.014855
      7          6           0       -2.302687   -0.893431   -0.007755
      8          7           0       -1.892851    0.402930   -0.012501
      9          1           0       -1.184800   -2.821062    0.023913
     10          1           0       -3.355731   -1.135973   -0.021244
     11          1           0        1.890856   -0.710520    0.026027
     12          6           0        0.343721    1.315308   -0.003409
     13          8           0        1.588329    0.999093    0.013754
     14          8           0       -0.101616    2.501626   -0.025631
 ---------------------------------------------------------------------
                    Distance matrix (angstroms):
                    1          2          3          4          5
     1  O    0.000000
     2  H    0.976001   0.000000
     3  H    0.974972   1.585615   0.000000
     4  N    3.603843   4.188374   3.927451   0.000000
     5  N    2.776285   3.567224   2.875533   1.373283   0.000000
     6  C    3.922715   4.785054   3.799237   2.135800   1.358157
[...]
 ! D8    D(12,4,5,11)           -1.7387         -DE/DX =    0.0                 !
 ! D9    D(5,4,8,7)             -0.0137         -DE/DX =    0.0                 !
 ! D10   D(12,4,8,7)          -179.6643         -DE/DX =    0.0                 !
 ! D11   D(5,4,12,13)            0.2603         -DE/DX =    0.0                 !
 ! D12   D(5,4,12,14)         -179.7491         -DE/DX =    0.0                 !
 ! D13   D(8,4,12,13)          179.8933         -DE/DX =    0.0                 !
 ! D14   D(8,4,12,14)           -0.1161         -DE/DX =    0.0                 !
 ! D15   D(4,5,6,7)             -0.0292         -DE/DX =    0.0                 !
 ! D16   D(4,5,6,9)           -179.9576         -DE/DX =    0.0                 !
 ! D17   D(11,5,6,7)          -176.7293         -DE/DX =    0.0                 !
 ! D18   D(11,5,6,9)             3.3423         -DE/DX =    0.0                 !
 ! D19   D(4,5,11,1)          -178.625          -DE/DX =    0.0                 !
 ! D20   D(4,5,11,13)            2.0001         -DE/DX =    0.0                 !
 ! D21   D(6,5,11,1)            -1.9273         -DE/DX =    0.0                 !
 ! D22   D(6,5,11,13)          178.6978         -DE/DX =    0.0                 !
 ! D23   D(5,6,7,8)              0.0235         -DE/DX =    0.0                 !
 ! D24   D(5,6,7,10)          -179.9574         -DE/DX =    0.0                 !
 ! D25   D(9,6,7,8)            179.9439         -DE/DX =    0.0                 !
 ! D26   D(9,6,7,10)            -0.0369         -DE/DX =    0.0                 !
 ! D27   D(6,7,8,4)             -0.0059         -DE/DX =    0.0                 !
 ! D28   D(10,7,8,4)           179.9768         -DE/DX =    0.0                 !
 ! D29   D(1,11,13,12)         178.4822         -DE/DX =    0.0                 !
 ! D30   D(5,11,13,12)          -2.0929         -DE/DX =    0.0                 !
 ! D31   D(4,12,13,11)           1.5121         -DE/DX =    0.0                 !
 ! D32   D(14,12,13,11)       -178.4777         -DE/DX =    0.0                 !
 --------------------------------------------------------------------------------
 GradGradGradGradGradGradGradGradGradGradGradGradGradGradGradGradGradGrad


 ----------------------------------------------------------------------

 Electric dipole moment (input orientation):
 (Debye = 10**-18 statcoulomb cm , SI units = C m)
                  (au)            (Debye)         (10**-30 SI)
   Tot        0.700609D+01      0.178077D+02      0.594001D+02
   x          0.350982D+01      0.892108D+01      0.297575D+02
   y         -0.601174D+01     -0.152803D+02     -0.509696D+02
   z         -0.790802D+00     -0.201002D+01     -0.670470D+01

 Dipole polarizability, Alpha (input orientation).
 (esu units = cm**3 , SI units = C**2 m**2 J**-1)
 Alpha(0;0):
               (au)            (10**-24 esu)      (10**-40 SI)
   iso        0.122894D+03      0.182110D+02      0.202625D+02
   aniso      0.773406D+02      0.114607D+02      0.127517D+02
   xx         0.144445D+03      0.214046D+02      0.238158D+02
   yx         0.120472D+02      0.178522D+01      0.198632D+01
   yy         0.150827D+03      0.223502D+02      0.248680D+02
   zx         0.115232D+01      0.170757D+00      0.189992D+00
   zy        -0.835873D+00     -0.123864D+00     -0.137817D+00
   zz         0.734098D+02      0.108782D+02      0.121036D+02

 ----------------------------------------------------------------------

 Dipole orientation:
     8          2.94212821         -0.95345266          4.72785630
     1          4.16005110         -2.33631410          4.68407870
     1          1.62694799         -1.37230066          5.94822431
     7         -0.54342304          0.19126646         -0.95783914
     7         -0.75328345          0.76003077          1.59039098
     6         -2.98617713          2.04505436          1.69140332
     6         -4.02413645          2.21477860         -0.69316992
     7         -2.52196166          1.05494729         -2.43394389
     1         -3.69810022          2.76376735          3.46614660
     1         -5.77020268          3.10597948         -1.26828312
     1          2.14344328         -0.74276491          2.96090735
     6          1.52643326         -1.12430860         -1.83473886
     8          3.14491272         -1.74226357         -0.13485823
     8          1.68931536         -1.61941252         -4.17574509

 Electric dipole moment (dipole orientation):
 (Debye = 10**-18 statcoulomb cm , SI units = C m)
                  (au)            (Debye)         (10**-30 SI)
   Tot        0.700609D+01      0.178077D+02      0.594001D+02
   x          0.000000D+00      0.000000D+00      0.000000D+00
   y          0.000000D+00      0.000000D+00      0.000000D+00
   z          0.700609D+01      0.178077D+02      0.594001D+02

 Dipole polarizability, Alpha (dipole orientation).
 (esu units = cm**3 , SI units = C**2 m**2 J**-1)
 Alpha(0;0):
               (au)            (10**-24 esu)      (10**-40 SI)
   iso        0.122894D+03      0.182110D+02      0.202625D+02
   aniso      0.773406D+02      0.114607D+02      0.127517D+02
   xx         0.135349D+03      0.200566D+02      0.223160D+02
   yx        -0.359173D+02     -0.532239D+01     -0.592196D+01
   yy         0.957442D+02      0.141878D+02      0.157861D+02
   zx        -0.318913D+01     -0.472581D+00     -0.525817D+00
   zy         0.118129D+02      0.175049D+01      0.194768D+01
   zz         0.137589D+03      0.203886D+02      0.226854D+02

 ----------------------------------------------------------------------
 1\1\GINC-NODE7\Freq\UM062X\6-31+G(d,p)\C3H5N3O3(1-,2)\GONGKE2021\09-Ju
 l-2023\0\\#N Geom=AllCheck Guess=TCheck SCRF=Check GenChk UM062X/6-31+
 G(d,p) Freq\\TS\\-1,2\O,2.6540504014,-1.3746775665,0.0646275927\H,3.42
 42614752,-0.8582259466,-0.2378056725\H,2.52417122,-2.1226404361,-0.547
 1079421\N,-0.5157361455,0.2896016203,-0.000001023\N,-0.0424656401,-1.0
 122246212,0.0504194176\C,-1.1934812168,-1.7446097424,0.035939041\C,-2.
 2857231387,-0.9043942035,-0.0197266603\N,-1.89447738,0.4007829075,-0.0
 441707826\H,-1.1616782675,-2.8246909159,0.0675504394\H,-3.335959546,-1
 .1597386258,-0.0435880311\H,1.8152322831,-0.7733351873,0.0541033688\C,
 0.3690167129,1.3464416358,0.0037292575\O,1.6092869363,1.016050728,0.05
 06584548\O,-0.0836286945,2.5313803536,-0.0380754601\\Version=ES64L-G16
 RevA.03\State=2-A\HF=-507.1442329\S2=0.763149\S2-1=0.\S2A=0.750061\RMS
 D=1.297e-09\RMSF=1.643e-05\ZeroPoint=0.094946\Thermal=0.1037161\Dipole
 =3.5098223,-6.0117391,-0.7908016\DipoleDeriv=-1.2459647,0.3476142,0.01
 23932,0.3477267,-0.8619251,-0.0321137,0.0179367,-0.0391169,-0.4917976,
 0.5735335,0.0617511,0.0021888,0.0838242,0.4491258,-0.0186708,0.0117651
 ,-0.0160187,0.4589338,0.4290884,-0.0003271,0.006177,-0.0232956,0.58595
 73,0.0490329,0.0005248,0.0461007,0.4811972,-0.623319,-0.802889,0.00347
 13,-0.7437796,-0.9478184,0.0004156,-0.0060415,-0.0093193,-0.0666673,-1
 .2602355,0.7903291,-0.029305,-0.3732656,-0.4280434,-0.0088377,-0.00351
 23,0.0196292,-0.3614975,0.4549965,-0.4653606,0.0350108,0.3051802,-0.21
 4014,0.0018138,0.0163915,-0.0185483,-0.2899825,-0.0391453,0.1032757,0.
 0065651,-0.6525067,0.4625699,-0.0390633,0.0238106,-0.0176943,-0.283139
 3,-0.5888379,-0.1832173,-0.001981,0.8194194,-0.8190557,0.0360251,-0.02
 71307,0.0085889,-0.3587465,0.1338398,0.0013147,-0.004009,-0.0275144,-0
 .0702245,0.0086656,-0.002359,0.00981,0.2648196,-0.0615079,-0.0803642,-
 0.006862,-0.0501863,0.1142625,0.0020789,-0.0070659,0.0021429,0.2522814
 ,1.5247007,-0.4785833,-0.0362129,-0.5093508,0.9746783,0.014299,-0.0398
 273,0.0175403,0.431375,3.4854085,0.4852933,0.0747884,0.5159307,3.98476
 34,-0.0616928,0.0808889,-0.0621663,0.5052449,-2.809341,-0.4076346,-0.0
 455214,0.527208,-1.2222961,0.0072675,-0.065627,-0.0107476,-0.7729437,-
 0.9732161,0.6287978,-0.0167034,-0.2193902,-3.0079799,0.04078,0.000246,
 0.0697994,-0.7690774\Polar=144.4453107,12.0472488,150.8269264,1.152322
 3,-0.8358727,73.4098485\Quadrupole=11.5083997,-11.8506601,0.3422604,-7
 .9537448,-4.7147923,3.0523974\PG=C01 [X(C3H5N3O3)]\NImag=1\\0.61461663
 ,0.11581699,0.63207614,-0.08399698,0.16964827,0.30834079,-0.31467794,-
 0.17699234,0.11073288,0.33423166,-0.18429926,-0.18504374,0.05267851,0.
 19456567,0.17932960,0.14801831,0.07336692,-0.07563172,-0.12101144,-0.0
 6133822,0.06855803,-0.07045818,-0.04896165,-0.02759052,-0.00050351,-0.
 02354176,-0.02346872,0.05866433,-0.04958206,-0.28935979,-0.21073166,-0
 .00122865,-0.01277673,-0.01249641,0.05268271,0.31609301,-0.03467476,-0
 .25299222,-0.20987055,0.00101378,0.01445705,0.00849342,0.03266385,0.23
 465457,0.20206814,-0.00265956,0.00137416,0.00016050,0.00002119,-0.0001
 0682,-0.00005647,0.00021656,0.00001813,-0.00013820,0.69651154,-0.00179
 335,-0.00008662,0.00022145,-0.00007127,0.00021107,-0.00004851,0.000196
 82,-0.00027264,-0.00020146,0.13830320,0.73873939,-0.00005889,0.0000858
 9,-0.00014238,0.00000865,-0.00002879,0.00010330,-0.00008959,0.00007515
 ,0.00000623,0.01585383,-0.01310977,0.06109679,-0.02964967,0.00125068,0
 .00098979,-0.00120836,0.00330925,-0.00049721,0.00056260,-0.00160817,-0
 .00031932,-0.11846061,0.01928659,-0.00303850,0.51125706,-0.00517234,0.
 00537576,0.00006633,0.00054924,0.00068951,0.00006770,-0.00086124,-0.00
 028572,-0.00015727,0.07226087,-0.20751222,0.00667806,0.05235163,0.4241
 3536,0.00055175,-0.00062272,0.00178765,-0.00001452,0.00014684,0.000405
 51,-0.00044048,0.00038004,-0.00010788,-0.00468491,0.00564896,-0.030037
 04,0.01130048,-0.00778584,0.05781985,0.00015576,0.00043557,0.00005042,
 0.00005946,-0.00007794,-0.00000710,-0.00039546,0.00020475,0.00005715,-
 0.01726723,-0.04400692,0.00065343,-0.26062033,-0.11102170,-0.00337975,
 0.60488110,0.00625722,-0.00119727,-0.00019069,0.00023757,-0.00069393,0
 .00003550,-0.00032956,0.00060003,0.00021490,-0.02737450,-0.08854107,0.
 00152180,-0.06643364,-0.14887533,0.00070371,-0.06549449,0.86980069,0.0
 0011842,-0.00006205,0.00055336,-0.00005834,0.00004266,0.00001574,-0.00
 006081,0.00003867,-0.00001838,0.00019381,0.00118149,0.00089166,-0.0044
 6627,-0.00037730,-0.04325104,0.01723669,-0.02333955,0.10648846,-0.0031
 2098,0.00046869,0.00014633,-0.00008092,0.00036204,-0.00003653,0.000157
 18,-0.00036308,-0.00014733,-0.06871659,-0.04164063,-0.00097850,-0.0972
 3544,-0.03603529,-0.00254660,-0.27039680,0.15900328,-0.01119142,0.8894
 9229,-0.00090811,0.00075327,0.00003078,0.00012568,0.00006645,0.0000031
 2,-0.00007609,-0.00009691,-0.00004615,-0.05745562,-0.03962141,-0.00053
 935,-0.00838247,0.00697223,0.00022099,0.15479057,-0.17893953,0.0077234
 4,0.01162247,0.58217440,-0.00010618,0.00000883,-0.00003329,0.00000306,
 -0.00000271,-0.00001971,0.00004324,-0.00004595,-0.00000270,-0.00050300
 ,-0.00009829,0.00162056,-0.00340045,-0.00063583,0.02284247,-0.01110683
 ,0.00779032,-0.06292479,0.02347924,-0.01262663,0.11036550,-0.00255685,
 0.00075319,0.00016456,0.00007169,0.00024770,-0.00005474,0.00016023,-0.
 00033291,-0.00017151,-0.22380345,0.05013042,-0.00734570,-0.03664024,0.
 03251137,-0.00170093,0.01258784,-0.00620426,-0.00016643,-0.11074421,-0
 .06850389,-0.00006807,0.38596649,0.00204490,-0.00004183,-0.00006375,0.
 00007561,-0.00027577,0.00002440,-0.00027122,0.00029381,0.00012988,-0.0
 1194085,-0.10341239,0.00175487,0.03592395,-0.01393810,0.00121633,0.024
 79213,-0.10215961,0.00414844,-0.02903836,-0.29261060,0.00597770,0.0224
 0363,0.50419345,-0.00013102,-0.00002725,0.00013629,-0.00000288,0.00004
 383,-0.00003762,-0.00000509,0.00001053,-0.00001222,-0.00526529,0.00353
 199,-0.02829630,-0.00201645,0.00119825,-0.00572880,-0.00100004,0.00335
 072,0.02440343,-0.00119261,0.00467517,-0.04598096,0.00945434,-0.011713
 58,0.05697055,0.00004169,0.00002011,0.00000108,0.00000824,-0.00000762,
 0.00000234,-0.00000537,0.00000051,0.00000293,-0.00681161,-0.00477730,-
 0.00025166,0.00755690,-0.02659716,0.00114308,-0.05966213,0.01764369,-0
 .00155806,0.00985248,0.02168586,-0.00031679,-0.00400964,0.00305931,-0.
 00039460,0.05158274,-0.00040070,0.00005701,0.00003297,-0.00000539,0.00
 003227,-0.00000532,-0.00002433,-0.00004873,-0.00002217,-0.00195883,-0.
 00093143,0.00012413,0.00206235,-0.01010570,0.00019391,0.01253633,-0.36
 176117,0.01013080,-0.00560999,-0.00646348,0.00002600,0.00084479,0.0002
 5573,0.00020772,-0.00902071,0.37950081,0.00003435,-0.00000744,0.000033
 65,-0.00000043,-0.00000053,0.00001301,-0.00001914,0.00002105,0.0000099
 2,-0.00031173,0.00003476,0.00552835,0.00030748,-0.00070959,-0.00526756
 ,-0.00136454,0.01038151,-0.02524746,0.00043349,0.00080211,-0.00002243,
 -0.00033806,0.00027402,0.00662179,0.00121124,-0.01067914,0.02050032,-0
 .00042939,0.00007601,0.00003121,-0.00000323,0.00004812,-0.00000803,0.0
 0002429,-0.00004879,-0.00002495,0.00033144,-0.00019298,-0.00015809,-0.
 00153776,0.00167634,-0.00026497,-0.00941367,-0.01087130,0.00001548,-0.
 34806436,-0.06601425,-0.00758944,-0.00278049,-0.00078095,0.00010323,-0
 .00005485,0.00040428,0.00006547,0.36123518,0.00035960,-0.00000119,-0.0
 0001798,0.00002805,-0.00005083,0.00000410,-0.00002111,0.00003313,0.000
 01183,-0.00366443,-0.00816654,0.00026022,0.00418812,-0.00287051,0.0003
 6794,0.01672754,0.01272907,0.00014539,-0.06113726,-0.07351312,-0.00046
 837,-0.02911837,-0.00021071,-0.00100190,-0.00084440,-0.00016611,-0.000
 09427,0.07553366,0.07059147,-0.00005854,0.00001482,-0.00007430,0.00000
 498,0.00000016,-0.00000731,0.00001654,-0.00001575,0.00000200,-0.000040
 52,0.00038473,0.00576680,-0.00034738,0.00032976,0.00668685,-0.00075437
 ,-0.00068229,0.00007527,-0.00771775,-0.00057950,-0.02680162,0.00085767
 ,-0.00020352,-0.00545424,0.00009818,-0.00005890,-0.00261414,0.00786596
 ,0.00083645,0.02153375,-0.18856004,0.09550204,-0.00187660,-0.01953186,
 0.01022690,-0.00245325,0.01229327,-0.00039981,0.00237295,-0.00454534,0
 .00534657,-0.00023489,0.01771050,0.01848872,-0.00002945,-0.00059351,-0
 .01116903,0.00006064,0.00592623,0.00201989,0.00012517,0.00350509,-0.00
 319335,0.00022956,-0.00009725,0.00054658,-0.00002408,0.00079826,-0.000
 71885,0.00006719,0.18127305,0.10067696,-0.12830474,-0.00816592,-0.0137
 6398,0.01866850,-0.00001065,0.01740287,-0.01408421,0.00189532,-0.00046
 386,-0.00022841,-0.00010644,0.00421511,-0.00595713,-0.00000041,-0.0016
 3159,-0.00103666,-0.00003626,0.00028024,-0.00120478,0.00007531,-0.0003
 2009,-0.00124747,0.00003235,-0.00011589,-0.00009261,-0.00001744,-0.000
 02602,-0.00019352,0.00001514,-0.11035611,0.10217414,-0.03065940,0.0111
 9695,-0.02856096,0.00979817,-0.00616362,-0.00175000,0.01943331,-0.0121
 0098,-0.00068362,-0.00022961,-0.00001884,0.00069063,0.00008332,-0.0001
 0287,-0.00567980,-0.00005327,0.00000321,-0.00185827,0.00000339,0.00003
 854,0.00024055,-0.00001566,-0.00002359,-0.00000675,-0.00000196,-0.0000
 0406,-0.00017109,-0.00001616,0.00001630,0.00030027,0.00170612,0.006670
 05,0.04547876,0.00461052,-0.01294312,-0.00109347,-0.00266384,0.0007118
 2,0.00018525,0.00192468,-0.00017319,0.00063499,-0.18042662,-0.08755650
 ,-0.00164661,-0.00010120,-0.00138742,-0.00000588,0.00713586,0.00988272
 ,0.00000852,-0.00641295,0.01384808,-0.00055025,-0.01568579,-0.02968804
 ,0.00018962,0.00208450,0.00162788,-0.00001438,0.00081835,0.00002712,-0
 .00002867,-0.00138444,0.03097533,0.00029260,0.68964512,-0.00334903,-0.
 00164009,0.00002236,-0.00021257,0.00065252,-0.00003094,0.00060644,-0.0
 0085181,-0.00020204,-0.08028297,-0.21145631,0.00175781,-0.03174134,-0.
 02822292,-0.00034544,0.01742095,0.00014088,0.00049795,0.00566169,0.010
 60781,-0.00013127,-0.00142378,0.00112713,-0.00021056,0.00004321,0.0010
 6966,-0.00001436,0.00144430,0.00251045,-0.00003099,0.01217740,-0.00393
 496,0.00016371,-0.10285068,0.72342039,0.00033874,-0.00061057,0.0003548
 3,-0.00024139,0.00005289,-0.00007227,0.00004609,0.00003547,0.00008891,
 -0.00220008,0.00101288,-0.04816019,0.00087787,0.00070167,-0.00138924,-
 0.00021008,0.00032315,-0.00117503,-0.00027383,0.00013118,-0.00062428,-
 0.00027589,-0.00087447,-0.00437977,0.00005273,0.00006016,0.00075044,-0
 .00003108,-0.00002127,0.00092972,-0.00021459,0.00112229,-0.00021644,0.
 01851276,-0.01670825,0.19086943,-0.00462504,0.01868362,0.00179801,0.00
 339550,-0.00128254,-0.00053064,-0.00216107,0.00085979,-0.00095525,-0.0
 8631869,-0.01226791,-0.00319856,0.01616956,-0.00325150,0.00060983,-0.0
 0959978,-0.00239214,-0.00026129,-0.00204936,-0.00440716,0.00000845,-0.
 01233933,-0.00358053,-0.00038888,-0.00039401,-0.00079532,0.00001630,-0
 .00092288,-0.00140023,0.00003943,-0.00853810,-0.01838458,-0.00021544,-
 0.36241886,0.06764148,-0.01082231,0.51154362,0.01600437,-0.02934091,-0
 .00309311,-0.00267300,-0.00065846,0.00033471,0.00317586,0.00038477,0.0
 0188233,-0.03161270,0.00381324,-0.00053173,-0.01822418,-0.00583311,-0.
 00062310,0.00111040,0.00380216,-0.00005482,-0.00463094,0.00146997,-0.0
 0015092,0.00715385,-0.00580166,0.00044733,0.00006212,-0.00010554,-0.00
 000036,-0.00042386,-0.00007432,-0.00001893,-0.01227820,0.02939462,0.00
 026779,0.06493841,-0.11082566,0.00397356,-0.09638830,0.14433830,0.0008
 3426,-0.00031742,0.00312519,-0.00031822,0.00012040,-0.00006773,-0.0005
 0926,0.00019777,0.00007815,-0.00255946,-0.00010071,0.01576061,0.001033
 37,0.00011131,-0.00155107,-0.00032272,-0.00013190,0.00080475,0.0000030
 4,-0.00011736,0.00120651,-0.00062482,0.00007969,0.00405439,-0.00001237
 ,-0.00002070,-0.00003135,-0.00000681,-0.00005173,-0.00032372,0.0001256
 1,-0.00101034,-0.00821760,-0.01111494,0.00429830,-0.06778167,0.0170476
 8,-0.00588877,0.03285945,-0.00268696,0.00451605,0.00048279,0.00088193,
 -0.00015555,-0.00008176,-0.00047954,-0.00002925,-0.00031434,0.01192896
 ,-0.02095674,0.00048508,-0.00780303,0.00648848,-0.00053765,0.00312888,
 -0.00275557,0.00012904,0.00139344,0.00165505,-0.00001815,0.00626865,-0
 .00980622,0.00042012,-0.00009169,-0.00020695,0.00000402,-0.00000091,0.
 00004056,-0.00000272,0.00174414,-0.00848838,-0.00012539,-0.13712534,0.
 11486488,-0.00555892,-0.04174156,0.07378619,-0.00357535,0.16458303,0.0
 0434479,-0.00324602,-0.00043756,-0.00063462,-0.00015045,0.00009357,0.0
 0002224,0.00037181,0.00037544,0.00290422,-0.08253464,0.00205815,0.0038
 0213,-0.01357211,0.00049878,-0.00578561,-0.00386826,-0.00003886,0.0010
 5714,-0.00959428,0.00028182,-0.00814164,0.01382802,-0.00054462,-0.0011
 5173,-0.00124071,0.00000968,-0.00082454,-0.00061726,0.00000883,-0.0061
 9276,0.00604725,0.00005739,0.11258760,-0.38259709,0.01080132,0.0569653
 2,-0.03056340,0.00283147,-0.15895254,0.50773715,-0.00021006,0.00031799
 ,-0.00001857,0.00008570,-0.00000847,-0.00000263,-0.00001943,-0.0000225
 2,-0.00005142,-0.00021884,0.00156133,0.01517099,-0.00050675,0.00061562
 ,0.00347009,0.00020100,0.00001960,0.00124230,0.00001910,0.00028365,0.0
 0013419,0.00028524,-0.00072642,-0.00228979,0.00002386,0.00001460,-0.00
 010347,0.00001819,0.00001330,-0.00001934,0.00014561,-0.00046300,0.0004
 3432,-0.00536954,0.01093372,-0.06919445,-0.00314732,0.00345603,0.02008
 407,0.00869325,-0.01599543,0.03114371\\-0.00000118,-0.00002873,0.00001
 687,-0.00000309,-0.00002518,0.00001592,-0.00000718,-0.00002321,0.00002
 739,0.00001148,0.00000906,-0.00001570,-0.00000019,0.00001280,0.0000095
 5,-0.00001200,0.00000985,0.00001091,-0.00000253,0.00001411,-0.00000249
 ,0.00001987,0.00001727,-0.00001881,-0.00001710,0.00001081,0.00002816,-
 0.00000467,0.00002493,-0.00000191,-0.00001513,0.00000568,0.00001108,0.
 00000513,-0.00001391,-0.00002113,0.00000294,-0.00001099,-0.00001816,0.
 00002363,-0.00000248,-0.00004167\\\@


      THE ONE-EYED VIEW OF OUR UNIVERSE SAYS YOU MUST NOT LOOK
      FAR AFIELD FOR PROBLEMS.  SUCH PROBLEMS MAY NEVER ARRIVE. 
      INSTEAD, TEND TO THE WOLF WITHIN YOUR FENCES.
      THE PACKS RANGING OUTSIDE MAY NOT EVEN EXIST.

                              -- THE AZHAR BOOK SHAMRA I:4
                                 CHILDREN OF DUNE, BY FRANK HERBERT
 Job cpu time:       0 days  0 hours 59 minutes  1.8 seconds.
 Elapsed time:       0 days  0 hours  2 minutes 28.3 seconds.
 File lengths (MBytes):  RWF=    151 Int=      0 D2E=      0 Chk=     12 Scr=      1
 Normal termination of Gaussian 16 at Sun Jul  9 23:45:40 2023.
