 Entering Gaussian System, Link 0=/opt/soft/g16b/g16/g16
 Initial command:
 /opt/soft/g16b/g16/l1.exe "/scratch/gongke2021/TS/Gau-17127.inp" -scrdir="/scratch/gongke2021/TS/"
 Entering Link 1 = /opt/soft/g16b/g16/l1.exe PID=     17128.
  
 Copyright (c) 1988,1990,1992,1993,1995,1998,2003,2009,2016,
            Gaussian, Inc.  All Rights Reserved.
  
 This is part of the Gaussian(R) 16 program.  It is based on
 the Gaussian(R) 09 system (copyright 2009, Gaussian, Inc.),
 the Gaussian(R) 03 system (copyright 2003, Gaussian, Inc.),
 the Gaussian(R) 98 system (copyright 1998, Gaussian, Inc.),
 the Gaussian(R) 94 system (copyright 1995, Gaussian, Inc.),
 the Gaussian 92(TM) system (copyright 1992, Gaussian, Inc.),
 the Gaussian 90(TM) system (copyright 1990, Gaussian, Inc.),
 the Gaussian 88(TM) system (copyright 1988, Gaussian, Inc.),
 the Gaussian 86(TM) system (copyright 1986, Carnegie Mellon
 University), and the Gaussian 82(TM) system (copyright 1983,
 Carnegie Mellon University). Gaussian is a federally registered
 trademark of Gaussian, Inc.
  
 This software contains proprietary and confidential information,
 including trade secrets, belonging to Gaussian, Inc.
  
 This software is provided under written license and may be
 used, copied, transmitted, or stored only in accord with that
 written license.
  
 The following legend is applicable only to US Government
 contracts under FAR:
  
                    RESTRICTED RIGHTS LEGEND
  
 Use, reproduction and disclosure by the US Government is
 subject to restrictions as set forth in subparagraphs (a)
 and (c) of the Commercial Computer Software - Restricted
 Rights clause in FAR 52.227-19.
  
 Gaussian, Inc.
 340 Quinnipiac St., Bldg. 40, Wallingford CT 06492
  
  
 ---------------------------------------------------------------
 Warning -- This program may not be used in any manner that
 competes with the business of Gaussian, Inc. or will provide
 assistance to any competitor of Gaussian, Inc.  The licensee
 of this program is prohibited from giving any competitor of
 Gaussian, Inc. access to this program.  By using this program,
 the user acknowledges that Gaussian, Inc. is engaged in the
 business of creating and licensing software in the field of
 computational chemistry and represents and warrants to the
 licensee that it is not a competitor of Gaussian, Inc. and that
 it will not use this program in any manner prohibited above.
 ---------------------------------------------------------------
  

 Cite this work as:
 Gaussian 16, Revision A.03,
 M. J. Frisch, G. W. Trucks, H. B. Schlegel, G. E. Scuseria, 
 M. A. Robb, J. R. Cheeseman, G. Scalmani, V. Barone, 
 G. A. Petersson, H. Nakatsuji, X. Li, M. Caricato, A. V. Marenich, 
 J. Bloino, B. G. Janesko, R. Gomperts, B. Mennucci, H. P. Hratchian, 
 J. V. Ortiz, A. F. Izmaylov, J. L. Sonnenberg, D. Williams-Young, 
 F. Ding, F. Lipparini, F. Egidi, J. Goings, B. Peng, A. Petrone, 
 T. Henderson, D. Ranasinghe, V. G. Zakrzewski, J. Gao, N. Rega, 
 G. Zheng, W. Liang, M. Hada, M. Ehara, K. Toyota, R. Fukuda, 
 J. Hasegawa, M. Ishida, T. Nakajima, Y. Honda, O. Kitao, H. Nakai, 
 T. Vreven, K. Throssell, J. A. Montgomery, Jr., J. E. Peralta, 
 F. Ogliaro, M. J. Bearpark, J. J. Heyd, E. N. Brothers, K. N. Kudin, 
 V. N. Staroverov, T. A. Keith, R. Kobayashi, J. Normand, 
 K. Raghavachari, A. P. Rendell, J. C. Burant, S. S. Iyengar, 
 J. Tomasi, M. Cossi, J. M. Millam, M. Klene, C. Adamo, R. Cammi, 
 J. W. Ochterski, R. L. Martin, K. Morokuma, O. Farkas, 
 J. B. Foresman, and D. J. Fox, Gaussian, Inc., Wallingford CT, 2016.
 
 ******************************************
 Gaussian 16:  ES64L-G16RevA.03 25-Dec-2016
                 1-Jul-2023 
 ******************************************
 %mem=10GB
 %nprocshared=20
 Will use up to   20 processors via shared memory.
 ----------------------------------------------------------------------
 # opt=(calcfc,ts,noeigentest) freq 6-31+g(d,p) integral=grid=ultrafine
  m062x scrf=(SMD,solvent=water)
 ----------------------------------------------------------------------
 1/5=1,10=4,11=1,18=20,26=6,38=1/1,3;
 2/9=110,12=2,17=6,18=5,40=1/2;
 3/5=1,6=6,7=111,11=2,25=1,30=1,70=32201,71=2,72=1,74=-55,75=-5,140=1/1,2,3;
 4//1;
 5/5=2,38=5,53=1/2;
 8/6=4,10=90,11=11/1;
 11/6=1,8=1,9=11,15=111,16=1/1,2,10;
 10/6=1,13=1/2;
 6/7=2,8=2,9=2,10=2,28=1/1;
 7/10=1,18=20,25=1/1,2,3,16;
 1/5=1,10=4,11=1,18=20,26=6/3(2);
 2/9=110/2;
 99//99;
 2/9=110/2;
 3/5=1,6=6,7=111,11=2,25=1,30=1,70=32205,71=1,72=1,74=-55,75=-5/1,2,3;
 4/5=5,16=3,69=1/1;
 5/5=2,38=5,53=1/2;
 7//1,2,3,16;
 1/5=1,11=1,18=20,26=6/3(-5);
 2/9=110/2;
 6/7=2,8=2,9=2,10=2,19=2,28=1/1;
 99/9=1/99;
 --
 RC
 --
 Symbolic Z-matrix:
 Charge = -1 Multiplicity = 2
 N                     0.01742  -0.13433   0.37659 
 N                    -0.7325    1.0511    0.29997 
 C                    -1.99925   0.6592   -0.13699 
 C                    -1.9665   -0.71678  -0.2061 
 N                    -0.75112  -1.21811   0.07096 
 H                    -2.80424   1.36651  -0.25649 
 H                    -2.78089  -1.38556  -0.45328 
 H                     0.37799   1.79911  -0.29731 
 C                     1.47103  -0.01548  -0.02006 
 O                     1.78737   1.17626  -0.21909 
 O                     2.08542  -1.0765   -0.05428 
 
 Add virtual bond connecting atoms H8         and N2         Dist= 2.77D+00.
 Add virtual bond connecting atoms H8         and O10        Dist= 2.92D+00.

 GradGradGradGradGradGradGradGradGradGradGradGradGradGradGradGradGradGrad
 Berny optimization.
 Initialization pass.
                           ----------------------------
                           !    Initial Parameters    !
                           ! (Angstroms and Degrees)  !
 --------------------------                            --------------------------
 ! Name  Definition              Value          Derivative Info.                !
 --------------------------------------------------------------------------------
 ! R1    R(1,2)                  1.4048         calculate D2E/DX2 analytically  !
 ! R2    R(1,5)                  1.3633         calculate D2E/DX2 analytically  !
 ! R3    R(1,9)                  1.5114         calculate D2E/DX2 analytically  !
 ! R4    R(2,3)                  1.3961         calculate D2E/DX2 analytically  !
 ! R5    R(2,8)                  1.4661         calculate D2E/DX2 analytically  !
 ! R6    R(3,4)                  1.3781         calculate D2E/DX2 analytically  !
 ! R7    R(3,6)                  1.0782         calculate D2E/DX2 analytically  !
 ! R8    R(4,5)                  1.3436         calculate D2E/DX2 analytically  !
 ! R9    R(4,7)                  1.0824         calculate D2E/DX2 analytically  !
 ! R10   R(8,10)                 1.5429         calculate D2E/DX2 analytically  !
 ! R11   R(9,10)                 1.249          calculate D2E/DX2 analytically  !
 ! R12   R(9,11)                 1.2265         calculate D2E/DX2 analytically  !
 ! A1    A(2,1,5)              110.9565         calculate D2E/DX2 analytically  !
 ! A2    A(2,1,9)              115.6411         calculate D2E/DX2 analytically  !
 ! A3    A(5,1,9)              123.0818         calculate D2E/DX2 analytically  !
 ! A4    A(1,2,3)              105.3404         calculate D2E/DX2 analytically  !
 ! A5    A(1,2,8)               92.7749         calculate D2E/DX2 analytically  !
 ! A6    A(3,2,8)              134.665          calculate D2E/DX2 analytically  !
 ! A7    A(2,3,4)              105.9264         calculate D2E/DX2 analytically  !
 ! A8    A(2,3,6)              121.867          calculate D2E/DX2 analytically  !
 ! A9    A(4,3,6)              131.8488         calculate D2E/DX2 analytically  !
 ! A10   A(3,4,5)              112.5636         calculate D2E/DX2 analytically  !
 ! A11   A(3,4,7)              127.6241         calculate D2E/DX2 analytically  !
 ! A12   A(5,4,7)              119.8114         calculate D2E/DX2 analytically  !
 ! A13   A(1,5,4)              105.0428         calculate D2E/DX2 analytically  !
 ! A14   A(2,8,10)             117.7287         calculate D2E/DX2 analytically  !
 ! A15   A(1,9,10)             111.1273         calculate D2E/DX2 analytically  !
 ! A16   A(1,9,11)             114.9008         calculate D2E/DX2 analytically  !
 ! A17   A(10,9,11)            133.9549         calculate D2E/DX2 analytically  !
 ! A18   A(8,10,9)              99.3179         calculate D2E/DX2 analytically  !
 ! D1    D(5,1,2,3)             -2.9124         calculate D2E/DX2 analytically  !
 ! D2    D(5,1,2,8)           -140.9072         calculate D2E/DX2 analytically  !
 ! D3    D(9,1,2,3)            143.4114         calculate D2E/DX2 analytically  !
 ! D4    D(9,1,2,8)              5.4166         calculate D2E/DX2 analytically  !
 ! D5    D(2,1,5,4)              0.5361         calculate D2E/DX2 analytically  !
 ! D6    D(9,1,5,4)           -142.8366         calculate D2E/DX2 analytically  !
 ! D7    D(2,1,9,10)             7.0154         calculate D2E/DX2 analytically  !
 ! D8    D(2,1,9,11)          -174.2735         calculate D2E/DX2 analytically  !
 ! D9    D(5,1,9,10)           148.845          calculate D2E/DX2 analytically  !
 ! D10   D(5,1,9,11)           -32.4439         calculate D2E/DX2 analytically  !
 ! D11   D(1,2,3,4)              4.0106         calculate D2E/DX2 analytically  !
 ! D12   D(1,2,3,6)            177.901          calculate D2E/DX2 analytically  !
 ! D13   D(8,2,3,4)            113.9924         calculate D2E/DX2 analytically  !
 ! D14   D(8,2,3,6)            -72.1171         calculate D2E/DX2 analytically  !
 ! D15   D(1,2,8,10)           -15.1025         calculate D2E/DX2 analytically  !
 ! D16   D(3,2,8,10)          -129.9566         calculate D2E/DX2 analytically  !
 ! D17   D(2,3,4,5)             -4.0041         calculate D2E/DX2 analytically  !
 ! D18   D(2,3,4,7)            176.3244         calculate D2E/DX2 analytically  !
 ! D19   D(6,3,4,5)           -177.0346         calculate D2E/DX2 analytically  !
 ! D20   D(6,3,4,7)              3.294          calculate D2E/DX2 analytically  !
 ! D21   D(3,4,5,1)              2.1797         calculate D2E/DX2 analytically  !
 ! D22   D(7,4,5,1)           -178.1201         calculate D2E/DX2 analytically  !
 ! D23   D(2,8,10,9)            20.3561         calculate D2E/DX2 analytically  !
 ! D24   D(1,9,10,8)           -14.3267         calculate D2E/DX2 analytically  !
 ! D25   D(11,9,10,8)          167.2974         calculate D2E/DX2 analytically  !
 --------------------------------------------------------------------------------
 Trust Radius=3.00D-01 FncErr=5.00D-06 GrdErr=5.00D-06 EigMax=2.50D+02 EigMin=1.00D-04
 Number of steps in this run=     65 maximum allowed number of steps=    100.
 Search for a saddle point of order  1.
 GradGradGradGradGradGradGradGradGradGradGradGradGradGradGradGradGradGrad

                          Input orientation:                          
 ---------------------------------------------------------------------
 Center     Atomic      Atomic             Coordinates (Angstroms)
 Number     Number       Type             X           Y           Z
 ---------------------------------------------------------------------
      1          7           0        0.017415   -0.134328    0.376587
      2          7           0       -0.732499    1.051096    0.299973
      3          6           0       -1.999251    0.659196   -0.136986
      4          6           0       -1.966497   -0.716783   -0.206095
      5          7           0       -0.751122   -1.218109    0.070957
      6          1           0       -2.804241    1.366506   -0.256492
      7          1           0       -2.780889   -1.385558   -0.453284
      8          1           0        0.377987    1.799114   -0.297310
      9          6           0        1.471033   -0.015479   -0.020062
     10          8           0        1.787373    1.176257   -0.219092
     11          8           0        2.085424   -1.076500   -0.054280
 ---------------------------------------------------------------------
                    Distance matrix (angstroms):
                    1          2          3          4          5
     1  N    0.000000
     2  N    1.404803   0.000000
     3  C    2.227191   1.396130   0.000000
     4  C    2.148180   2.214555   1.378103   0.000000
     5  N    1.363320   2.280808   2.263921   1.343585   0.000000
     6  H    3.258072   2.168237   1.078229   2.245985   3.317040
     7  H    3.175652   3.271174   2.211791   1.082403   2.103051
     8  H    2.079026   1.466103   2.641283   3.440155   3.242552
     9  C    1.511443   2.468918   3.537192   3.513267   2.528354
    10  O    2.281495   2.575820   3.822645   4.204201   3.501582
    11  O    2.313006   3.548641   4.438925   4.070689   2.842838
                    6          7          8          9         10
     6  H    0.000000
     7  H    2.759190   0.000000
     8  H    3.211758   4.488314   0.000000
     9  C    4.499305   4.488166   2.136438   0.000000
    10  O    4.595706   5.242782   1.542867   1.248967   0.000000
    11  O    5.469734   4.892415   3.353143   1.226545   2.278357
                   11
    11  O    0.000000
 Stoichiometry    C3H3N3O2(1-,2)
 Framework group  C1[X(C3H3N3O2)]
 Deg. of freedom    27
 Full point group                 C1      NOp   1
 Largest Abelian subgroup         C1      NOp   1
 Largest concise Abelian subgroup C1      NOp   1
                         Standard orientation:                         
 ---------------------------------------------------------------------
 Center     Atomic      Atomic             Coordinates (Angstroms)
 Number     Number       Type             X           Y           Z
 ---------------------------------------------------------------------
      1          7           0        0.006253   -0.136924    0.378296
      2          7           0       -0.731100    1.056697    0.307243
      3          6           0       -2.001463    0.680431   -0.132963
      4          6           0       -1.983086   -0.695433   -0.209308
      5          7           0       -0.773315   -1.210948    0.066228
      6          1           0       -2.798866    1.396776   -0.249485
      7          1           0       -2.804207   -1.354306   -0.460786
      8          1           0        0.387766    1.796151   -0.285044
      9          6           0        1.461431   -0.031258   -0.016361
     10          8           0        1.790459    1.158123   -0.208799
     11          8           0        2.064684   -1.098477   -0.055608
 ---------------------------------------------------------------------
 Rotational constants (GHZ):           5.0134966           1.8233290           1.3749709
 Standard basis: 6-31+G(d,p) (6D, 7F)
 There are   167 symmetry adapted cartesian basis functions of A   symmetry.
 There are   167 symmetry adapted basis functions of A   symmetry.
   167 basis functions,   277 primitive gaussians,   167 cartesian basis functions
    30 alpha electrons       29 beta electrons
       nuclear repulsion energy       358.7909741343 Hartrees.
 NAtoms=   11 NActive=   11 NUniq=   11 SFac= 1.00D+00 NAtFMM=   60 NAOKFM=F Big=F
 Integral buffers will be    131072 words long.
 Raffenetti 2 integral format.
 Two-electron integral symmetry is turned on.
 Force inversion solution in PCM.
 ------------------------------------------------------------------------------
 Polarizable Continuum Model (PCM)
 =================================
 Model                : PCM.
 Atomic radii         : SMD-Coulomb.
 Polarization charges : Total charges.
 Charge compensation  : None.
 Solution method      : Matrix inversion.
 Cavity type          : VdW (van der Waals Surface) (Alpha=1.000).
 Cavity algorithm     : GePol (No added spheres)
                        Default sphere list used, NSphG=   11.
                        Lebedev-Laikov grids with approx.  5.0 points / Ang**2.
                        Smoothing algorithm: York/Karplus (Gamma=1.0000).
                        Polarization charges: spherical gaussians, with
                                              point-specific exponents (IZeta= 3).
                        Self-potential: point-specific (ISelfS= 7).
                        Self-field    : sphere-specific E.n sum rule (ISelfD= 2).
 1st derivatives      : Analytical E(r).r(x)/FMM algorithm (CHGder, D1EAlg=3).
                        Cavity 1st derivative terms included.
 2nd derivatives      : Analytical E(r).r(xy)/FMM algorithm (CHGder, D2EAlg=3).
                        Cavity 2nd derivative terms included.
 Solvent              : Water, Eps=  78.355300 Eps(inf)=   1.777849
 ------------------------------------------------------------------------------
 Spheres list:
 ISph  on   Nord     Re0    Alpha      Xe            Ye            Ze
    1   N      1    1.8900  1.000      0.006253     -0.136924      0.378296
    2   N      2    1.8900  1.000     -0.731100      1.056697      0.307243
    3   C      3    1.8500  1.000     -2.001463      0.680431     -0.132963
    4   C      4    1.8500  1.000     -1.983086     -0.695433     -0.209308
    5   N      5    1.8900  1.000     -0.773315     -1.210948      0.066228
    6   H      6    1.2000  1.000     -2.798866      1.396776     -0.249485
    7   H      7    1.2000  1.000     -2.804207     -1.354306     -0.460786
    8   H      8    1.2000  1.000      0.387766      1.796151     -0.285044
    9   C      9    1.8500  1.000      1.461431     -0.031258     -0.016361
   10   O     10    1.5200  1.000      1.790459      1.158123     -0.208799
   11   O     11    1.5200  1.000      2.064684     -1.098477     -0.055608
 ------------------------------------------------------------------------------
 ------------------------------------------------------------------------------
 Atomic radii for non-electrostatic terms: SMD-CDS.
 ------------------------------------------------------------------------------
 Nuclear repulsion after PCM non-electrostatic terms =      358.7975246843 Hartrees.
 One-electron integrals computed using PRISM.
 NBasis=   167 RedAO= T EigKep=  5.23D-05  NBF=   167
 NBsUse=   167 1.00D-06 EigRej= -1.00D+00 NBFU=   167
 ExpMin= 4.38D-02 ExpMax= 5.48D+03 ExpMxC= 8.25D+02 IAcc=3 IRadAn=         5 AccDes= 0.00D+00
 Harris functional with IExCor= 1009 and IRadAn=       5 diagonalized for initial guess.
 HarFok:  IExCor= 1009 AccDes= 0.00D+00 IRadAn=         5 IDoV= 1 UseB2=F ITyADJ=14
 ICtDFT=  3500011 ScaDFX=  1.000000  1.000000  1.000000  1.000000
 FoFCou: FMM=F IPFlag=           0 FMFlag=      100000 FMFlg1=           0
         NFxFlg=           0 DoJE=T BraDBF=F KetDBF=T FulRan=T
         wScrn=  0.000000 ICntrl=       500 IOpCl=  0 I1Cent=   200000004 NGrid=           0
         NMat0=    1 NMatS0=      1 NMatT0=    0 NMatD0=    1 NMtDS0=    0 NMtDT0=    0
 Petite list used in FoFCou.
 Initial guess <Sx>= 0.0000 <Sy>= 0.0000 <Sz>= 0.5000 <S**2>= 0.7500 S= 0.5000
 Keep R1 and R2 ints in memory in canonical form, NReq=216648901.
 Requested convergence on RMS density matrix=1.00D-08 within 128 cycles.
 Requested convergence on MAX density matrix=1.00D-06.
 Requested convergence on             energy=1.00D-06.
 No special actions if energy rises.
 Inv3:  Mode=1 IEnd=     2988012.
 Iteration    1 A*A^-1 deviation from unit magnitude is 3.89D-15 for    477.
 Iteration    1 A*A^-1 deviation from orthogonality  is 2.54D-15 for    494    267.
 Iteration    1 A^-1*A deviation from unit magnitude is 3.22D-15 for    477.
 Iteration    1 A^-1*A deviation from orthogonality  is 1.79D-13 for    507    450.
 Error on total polarization charges =  0.05009
 SCF Done:  E(UM062X) =  -430.712385127     A.U. after   18 cycles
            NFock= 18  Conv=0.83D-08     -V/T= 2.0089
 <Sx>= 0.0000 <Sy>= 0.0000 <Sz>= 0.5000 <S**2>= 0.7639 S= 0.5069
 <L.S>= 0.000000000000E+00
 SMD-CDS (non-electrostatic) energy       (kcal/mol) =       4.11
 (included in total energy above)
 Annihilation of the first spin contaminant:
 S**2 before annihilation     0.7639,   after     0.7501
 DoSCS=F DFT=T ScalE2(SS,OS)=  1.000000  1.000000
 Range of M.O.s used for correlation:     1   167
 NBasis=   167 NAE=    30 NBE=    29 NFC=     0 NFV=     0
 NROrb=    167 NOA=    30 NOB=    29 NVA=   137 NVB=   138

 **** Warning!!: The largest alpha MO coefficient is  0.49742083D+02


 **** Warning!!: The largest beta MO coefficient is  0.52743521D+02

 Symmetrizing basis deriv contribution to polar:
 IMax=3 JMax=2 DiffMx= 0.00D+00
 G2DrvN: will do    12 centers at a time, making    1 passes.
 Calling FoFCou, ICntrl=  3107 FMM=F I1Cent=   0 AccDes= 0.00D+00.
 NEqPCM:  Using equilibrium solvation (IEInf=0, Eps=  78.3553, EpsInf=   1.7778)
 G2PCM: DoFxE=T DoFxN=T DoGrad=T DoDP/DQ/DG/TGxP=FFFF NFrqRd=   0 IEInf=0 SqF1=F DoCFld=F IF1Alg=4.
 End of G2Drv F.D. properties file   721 does not exist.
 End of G2Drv F.D. properties file   722 does not exist.
 End of G2Drv F.D. properties file   788 does not exist.
          IDoAtm=11111111111
 NEqPCM:  Using equilibrium solvation (IEInf=0, Eps=  78.3553, EpsInf=   1.7778)
          Differentiating once with respect to nuclear coordinates.
 Keep R1 and R2 ints in memory in canonical form, NReq=216589910.
          There are    36 degrees of freedom in the 1st order CPHF.  IDoFFX=6 NUNeed=     0.
     30 vectors produced by pass  0 Test12= 2.25D-14 2.78D-09 XBig12= 3.45D-01 1.71D-01.
 AX will form    30 AO Fock derivatives at one time.
     30 vectors produced by pass  1 Test12= 2.25D-14 2.78D-09 XBig12= 3.15D-02 5.09D-02.
     30 vectors produced by pass  2 Test12= 2.25D-14 2.78D-09 XBig12= 2.80D-03 1.19D-02.
     30 vectors produced by pass  3 Test12= 2.25D-14 2.78D-09 XBig12= 6.81D-05 9.20D-04.
     30 vectors produced by pass  4 Test12= 2.25D-14 2.78D-09 XBig12= 1.33D-06 1.91D-04.
     30 vectors produced by pass  5 Test12= 2.25D-14 2.78D-09 XBig12= 2.06D-08 1.88D-05.
     30 vectors produced by pass  6 Test12= 2.25D-14 2.78D-09 XBig12= 2.71D-10 1.75D-06.
     25 vectors produced by pass  7 Test12= 2.25D-14 2.78D-09 XBig12= 2.10D-12 1.37D-07.
      7 vectors produced by pass  8 Test12= 2.25D-14 2.78D-09 XBig12= 1.87D-14 1.37D-08.
 InvSVY:  IOpt=1 It=  1 EMax= 1.67D-15
 Solved reduced A of dimension   242 with    30 vectors.
 End of Minotr F.D. properties file   721 does not exist.
 End of Minotr F.D. properties file   722 does not exist.
 End of Minotr F.D. properties file   788 does not exist.

 **********************************************************************

            Population analysis using the SCF density.

 **********************************************************************

 Orbital symmetries:
 Alpha Orbitals:
       Occupied  (A) (A) (A) (A) (A) (A) (A) (A) (A) (A) (A) (A)
                 (A) (A) (A) (A) (A) (A) (A) (A) (A) (A) (A) (A)
                 (A) (A) (A) (A) (A) (A)
       Virtual   (A) (A) (A) (A) (A) (A) (A) (A) (A) (A) (A) (A)
                 (A) (A) (A) (A) (A) (A) (A) (A) (A) (A) (A) (A)
                 (A) (A) (A) (A) (A) (A) (A) (A) (A) (A) (A) (A)
                 (A) (A) (A) (A) (A) (A) (A) (A) (A) (A) (A) (A)
                 (A) (A) (A) (A) (A) (A) (A) (A) (A) (A) (A) (A)
                 (A) (A) (A) (A) (A) (A) (A) (A) (A) (A) (A) (A)
                 (A) (A) (A) (A) (A) (A) (A) (A) (A) (A) (A) (A)
                 (A) (A) (A) (A) (A) (A) (A) (A) (A) (A) (A) (A)
                 (A) (A) (A) (A) (A) (A) (A) (A) (A) (A) (A) (A)
                 (A) (A) (A) (A) (A) (A) (A) (A) (A) (A) (A) (A)
                 (A) (A) (A) (A) (A) (A) (A) (A) (A) (A) (A) (A)
                 (A) (A) (A) (A) (A)
 Beta  Orbitals:
       Occupied  (A) (A) (A) (A) (A) (A) (A) (A) (A) (A) (A) (A)
                 (A) (A) (A) (A) (A) (A) (A) (A) (A) (A) (A) (A)
                 (A) (A) (A) (A) (A)
       Virtual   (A) (A) (A) (A) (A) (A) (A) (A) (A) (A) (A) (A)
                 (A) (A) (A) (A) (A) (A) (A) (A) (A) (A) (A) (A)
                 (A) (A) (A) (A) (A) (A) (A) (A) (A) (A) (A) (A)
                 (A) (A) (A) (A) (A) (A) (A) (A) (A) (A) (A) (A)
                 (A) (A) (A) (A) (A) (A) (A) (A) (A) (A) (A) (A)
                 (A) (A) (A) (A) (A) (A) (A) (A) (A) (A) (A) (A)
                 (A) (A) (A) (A) (A) (A) (A) (A) (A) (A) (A) (A)
                 (A) (A) (A) (A) (A) (A) (A) (A) (A) (A) (A) (A)
                 (A) (A) (A) (A) (A) (A) (A) (A) (A) (A) (A) (A)
                 (A) (A) (A) (A) (A) (A) (A) (A) (A) (A) (A) (A)
                 (A) (A) (A) (A) (A) (A) (A) (A) (A) (A) (A) (A)
                 (A) (A) (A) (A) (A) (A)
 The electronic state is 2-A.
 Alpha  occ. eigenvalues --  -19.65220 -19.62618 -14.83544 -14.80196 -14.77229
 Alpha  occ. eigenvalues --  -10.70159 -10.56597 -10.56510  -1.22277  -1.16000
 Alpha  occ. eigenvalues --   -1.12305  -0.96349  -0.90650  -0.72745  -0.68358
 Alpha  occ. eigenvalues --   -0.62284  -0.61060  -0.56560  -0.53978  -0.52769
 Alpha  occ. eigenvalues --   -0.49393  -0.48401  -0.45757  -0.39383  -0.37953
 Alpha  occ. eigenvalues --   -0.36702  -0.36083  -0.34937  -0.33236  -0.17018
 Alpha virt. eigenvalues --    0.01994   0.04063   0.04459   0.05115   0.06359
 Alpha virt. eigenvalues --    0.06694   0.06797   0.08787   0.09299   0.09620
 Alpha virt. eigenvalues --    0.10619   0.10786   0.12883   0.14571   0.16324
 Alpha virt. eigenvalues --    0.17497   0.18758   0.19478   0.21612   0.22052
 Alpha virt. eigenvalues --    0.22639   0.23234   0.24143   0.25020   0.26050
 Alpha virt. eigenvalues --    0.26893   0.26962   0.27447   0.28141   0.29241
 Alpha virt. eigenvalues --    0.30760   0.31379   0.32069   0.32807   0.33136
 Alpha virt. eigenvalues --    0.34192   0.34946   0.36365   0.38905   0.40678
 Alpha virt. eigenvalues --    0.41252   0.48870   0.49004   0.54185   0.65242
 Alpha virt. eigenvalues --    0.71276   0.74443   0.78016   0.81027   0.81493
 Alpha virt. eigenvalues --    0.85833   0.89192   0.89970   0.92966   0.95676
 Alpha virt. eigenvalues --    0.96260   0.98134   0.99323   1.01105   1.03274
 Alpha virt. eigenvalues --    1.06031   1.09321   1.12505   1.14704   1.16277
 Alpha virt. eigenvalues --    1.18277   1.21485   1.23757   1.26503   1.27922
 Alpha virt. eigenvalues --    1.33480   1.33796   1.34831   1.36610   1.39239
 Alpha virt. eigenvalues --    1.39482   1.43903   1.48719   1.49703   1.51281
 Alpha virt. eigenvalues --    1.51649   1.55531   1.58993   1.61447   1.62898
 Alpha virt. eigenvalues --    1.75525   1.76750   1.83558   1.84336   1.85618
 Alpha virt. eigenvalues --    1.90921   1.93058   1.97615   1.99465   2.01798
 Alpha virt. eigenvalues --    2.02440   2.07083   2.09685   2.14628   2.16530
 Alpha virt. eigenvalues --    2.20067   2.21918   2.26776   2.29946   2.33167
 Alpha virt. eigenvalues --    2.36060   2.43858   2.44735   2.51629   2.54513
 Alpha virt. eigenvalues --    2.55500   2.61113   2.65242   2.70875   2.72015
 Alpha virt. eigenvalues --    2.78161   2.80217   2.85257   2.87983   2.92772
 Alpha virt. eigenvalues --    2.96942   3.00432   3.08076   3.11111   3.15853
 Alpha virt. eigenvalues --    3.23130   3.26559   3.32203   3.71761   4.01008
 Alpha virt. eigenvalues --    4.17456   4.22767   4.31510   4.41188   4.55707
 Alpha virt. eigenvalues --    4.60979   4.65897
  Beta  occ. eigenvalues --  -19.65187 -19.62551 -14.83223 -14.79820 -14.76750
  Beta  occ. eigenvalues --  -10.70099 -10.56636 -10.56368  -1.21902  -1.15130
  Beta  occ. eigenvalues --   -1.12124  -0.94989  -0.89776  -0.71762  -0.67744
  Beta  occ. eigenvalues --   -0.61305  -0.60558  -0.55023  -0.53740  -0.52378
  Beta  occ. eigenvalues --   -0.48843  -0.47234  -0.44646  -0.38264  -0.37160
  Beta  occ. eigenvalues --   -0.36316  -0.34421  -0.31854  -0.30703
  Beta virt. eigenvalues --   -0.00807   0.01983   0.04017   0.04379   0.05000
  Beta virt. eigenvalues --    0.06439   0.06739   0.07703   0.08299   0.09047
  Beta virt. eigenvalues --    0.10476   0.10873   0.11845   0.12208   0.14824
  Beta virt. eigenvalues --    0.15964   0.17819   0.18642   0.19737   0.21616
  Beta virt. eigenvalues --    0.21929   0.22516   0.23430   0.24492   0.24969
  Beta virt. eigenvalues --    0.26305   0.26799   0.27104   0.27571   0.27856
  Beta virt. eigenvalues --    0.29244   0.30860   0.31400   0.31889   0.33012
  Beta virt. eigenvalues --    0.33336   0.34449   0.35052   0.36381   0.38875
  Beta virt. eigenvalues --    0.41057   0.41251   0.48969   0.49438   0.54626
  Beta virt. eigenvalues --    0.65643   0.71636   0.74771   0.78719   0.81247
  Beta virt. eigenvalues --    0.81836   0.85994   0.89376   0.90206   0.93305
  Beta virt. eigenvalues --    0.96191   0.96457   0.99185   1.00546   1.02269
  Beta virt. eigenvalues --    1.03647   1.06892   1.09612   1.12918   1.15147
  Beta virt. eigenvalues --    1.16641   1.18350   1.22083   1.24441   1.26460
  Beta virt. eigenvalues --    1.28203   1.33586   1.34130   1.35086   1.36785
  Beta virt. eigenvalues --    1.39408   1.39823   1.44670   1.49251   1.50187
  Beta virt. eigenvalues --    1.51676   1.52345   1.55962   1.59676   1.61987
  Beta virt. eigenvalues --    1.63374   1.75736   1.77019   1.83824   1.84437
  Beta virt. eigenvalues --    1.85787   1.91432   1.93373   1.98238   1.99716
  Beta virt. eigenvalues --    2.02000   2.02625   2.07406   2.10275   2.14954
  Beta virt. eigenvalues --    2.17144   2.20965   2.22299   2.27366   2.30345
  Beta virt. eigenvalues --    2.33667   2.36556   2.44444   2.45083   2.52038
  Beta virt. eigenvalues --    2.54976   2.55991   2.61756   2.66026   2.71456
  Beta virt. eigenvalues --    2.72566   2.78513   2.80744   2.85840   2.88255
  Beta virt. eigenvalues --    2.93191   2.97733   3.01290   3.08390   3.11390
  Beta virt. eigenvalues --    3.16213   3.23435   3.26839   3.32656   3.72282
  Beta virt. eigenvalues --    4.01457   4.17587   4.23086   4.31700   4.41681
  Beta virt. eigenvalues --    4.56357   4.60968   4.66583
          Condensed to atoms (all electrons):
               1          2          3          4          5          6
     1  N    7.665408  -0.069525  -0.090827   0.050658  -0.326498   0.010910
     2  N   -0.069525   7.506329  -0.098441   0.178372  -0.256536  -0.040093
     3  C   -0.090827  -0.098441   6.101761  -0.279004   0.277053   0.380290
     4  C    0.050658   0.178372  -0.279004   5.874314  -0.083654  -0.008614
     5  N   -0.326498  -0.256536   0.277053  -0.083654   7.833039  -0.004544
     6  H    0.010910  -0.040093   0.380290  -0.008614  -0.004544   0.447597
     7  H    0.014391   0.000505  -0.034448   0.405429  -0.059958   0.000313
     8  H   -0.099311   0.259854  -0.031321   0.011579  -0.014272  -0.000105
     9  C    0.156063   0.011421  -0.033962  -0.006046  -0.036298   0.000734
    10  O   -0.094659  -0.099205   0.004585   0.005041   0.005355   0.000039
    11  O   -0.165328   0.009411   0.007210  -0.014217   0.028943   0.000020
               7          8          9         10         11
     1  N    0.014391  -0.099311   0.156063  -0.094659  -0.165328
     2  N    0.000505   0.259854   0.011421  -0.099205   0.009411
     3  C   -0.034448  -0.031321  -0.033962   0.004585   0.007210
     4  C    0.405429   0.011579  -0.006046   0.005041  -0.014217
     5  N   -0.059958  -0.014272  -0.036298   0.005355   0.028943
     6  H    0.000313  -0.000105   0.000734   0.000039   0.000020
     7  H    0.471707  -0.000024   0.000488   0.000092  -0.000036
     8  H   -0.000024   0.423663   0.030782   0.046050   0.002933
     9  C    0.000488   0.030782   4.431559   0.309888   0.427327
    10  O    0.000092   0.046050   0.309888   8.586426  -0.118699
    11  O   -0.000036   0.002933   0.427327  -0.118699   8.517973
          Atomic-Atomic Spin Densities.
               1          2          3          4          5          6
     1  N    0.364323  -0.133983   0.104031   0.011301  -0.187034  -0.003049
     2  N   -0.133983   0.367228  -0.186118  -0.032377   0.110002   0.001896
     3  C    0.104031  -0.186118   0.439990   0.051363  -0.096910  -0.002676
     4  C    0.011301  -0.032377   0.051363  -0.105654  -0.061709   0.002159
     5  N   -0.187034   0.110002  -0.096910  -0.061709   0.585692   0.000976
     6  H   -0.003049   0.001896  -0.002676   0.002159   0.000976  -0.011155
     7  H    0.000838   0.000333  -0.001120   0.003263  -0.002455   0.000009
     8  H   -0.078569   0.075494  -0.028111   0.015127  -0.000767   0.000195
     9  C    0.031651  -0.007035  -0.009571   0.006933  -0.013825   0.000221
    10  O    0.010707  -0.009236   0.002457  -0.002885   0.003686   0.000001
    11  O   -0.009941   0.001668  -0.002096   0.000038   0.009250   0.000003
               7          8          9         10         11
     1  N    0.000838  -0.078569   0.031651   0.010707  -0.009941
     2  N    0.000333   0.075494  -0.007035  -0.009236   0.001668
     3  C   -0.001120  -0.028111  -0.009571   0.002457  -0.002096
     4  C    0.003263   0.015127   0.006933  -0.002885   0.000038
     5  N   -0.002455  -0.000767  -0.013825   0.003686   0.009250
     6  H    0.000009   0.000195   0.000221   0.000001   0.000003
     7  H    0.001987   0.000003   0.000041   0.000000   0.000006
     8  H    0.000003   0.152714   0.011441  -0.029765  -0.000857
     9  C    0.000041   0.011441   0.073371  -0.007718  -0.022084
    10  O    0.000000  -0.029765  -0.007718   0.024314   0.002244
    11  O    0.000006  -0.000857  -0.022084   0.002244   0.052305
 Mulliken charges and spin densities:
               1          2
     1  N   -0.051280   0.110273
     2  N   -0.402091   0.187871
     3  C   -0.202896   0.271239
     4  C   -0.133858  -0.112442
     5  N   -0.362629   0.346905
     6  H    0.213452  -0.011420
     7  H    0.201541   0.002906
     8  H    0.370172   0.116903
     9  C    0.708043   0.063425
    10  O   -0.644913  -0.006194
    11  O   -0.695539   0.030536
 Sum of Mulliken charges =  -1.00000   1.00000
 Mulliken charges and spin densities with hydrogens summed into heavy atoms:
               1          2
     1  N   -0.051280   0.110273
     2  N   -0.031919   0.304774
     3  C    0.010556   0.259818
     4  C    0.067682  -0.109537
     5  N   -0.362629   0.346905
     9  C    0.708043   0.063425
    10  O   -0.644913  -0.006194
    11  O   -0.695539   0.030536
 APT charges:
               1
     1  N   -0.114845
     2  N   -0.481684
     3  C   -0.634114
     4  C   -0.449556
     5  N   -0.549227
     6  H    0.727150
     7  H    0.706430
     8  H    0.455279
     9  C    0.369116
    10  O   -0.547118
    11  O   -0.481431
 Sum of APT charges =  -1.00000
 APT charges with hydrogens summed into heavy atoms:
               1
     1  N   -0.114845
     2  N   -0.026406
     3  C    0.093037
     4  C    0.256874
     5  N   -0.549227
     9  C    0.369116
    10  O   -0.547118
    11  O   -0.481431
 Electronic spatial extent (au):  <R**2>=            832.7285
 Charge=             -1.0000 electrons
 Dipole moment (field-independent basis, Debye):
    X=             -7.1761    Y=              3.5973    Z=             -1.1496  Tot=              8.1091
 Quadrupole moment (field-independent basis, Debye-Ang):
   XX=            -60.2626   YY=            -57.9595   ZZ=            -50.5235
   XY=              2.0204   XZ=              3.2097   YZ=             -0.7759
 Traceless Quadrupole moment (field-independent basis, Debye-Ang):
   XX=             -4.0141   YY=             -1.7110   ZZ=              5.7250
   XY=              2.0204   XZ=              3.2097   YZ=             -0.7759
 Octapole moment (field-independent basis, Debye-Ang**2):
  XXX=            -49.2907  YYY=             16.7727  ZZZ=             -0.7997  XYY=            -12.9712
  XXY=              5.2515  XXZ=             -1.1577  XZZ=              6.9214  YZZ=             -0.2871
  YYZ=             -3.8574  XYZ=              0.4132
 Hexadecapole moment (field-independent basis, Debye-Ang**3):
 XXXX=           -784.0549 YYYY=           -319.1600 ZZZZ=            -70.9766 XXXY=             11.8946
 XXXZ=             22.4511 YYYX=              2.4502 YYYZ=             -4.1130 ZZZX=             -1.6187
 ZZZY=             -1.2482 XXYY=           -188.2643 XXZZ=           -144.1120 YYZZ=            -66.5236
 XXYZ=              3.3267 YYXZ=              6.4575 ZZXY=              1.9632
 N-N= 3.587975246843D+02 E-N=-1.736274853903D+03  KE= 4.268987184555D+02
  Exact polarizability:   0.000   0.000   0.000   0.000   0.000   0.000
 Approx polarizability: 107.109  -0.999 106.186   1.612  -1.567  57.040
                          Isotropic Fermi Contact Couplings
        Atom                 a.u.       MegaHertz       Gauss      10(-4) cm-1
     1  N(14)              0.08641      27.91979       9.96248       9.31304
     2  N(14)              0.14213      45.92390      16.38679      15.31857
     3  C(13)              0.04073      45.79047      16.33918      15.27406
     4  C(13)             -0.02755     -30.97520     -11.05272     -10.33222
     5  N(14)              0.09485      30.64601      10.93526      10.22241
     6  H(1)              -0.00388     -17.33797      -6.18662      -5.78332
     7  H(1)               0.00066       2.94873       1.05218       0.98359
     8  H(1)               0.04560     203.82225      72.72885      67.98778
     9  C(13)              0.02372      26.66547       9.51490       8.89464
    10  O(17)              0.02366     -14.34497      -5.11864      -4.78497
    11  O(17)              0.00842      -5.10371      -1.82113      -1.70241
 --------------------------------------------------------
       Center         ----  Spin Dipole Couplings  ----
                      3XX-RR        3YY-RR        3ZZ-RR
 --------------------------------------------------------
     1   Atom       -0.219175     -0.210872      0.430046
     2   Atom       -0.258734     -0.218498      0.477232
     3   Atom       -0.120066     -0.128401      0.248467
     4   Atom        0.034061      0.041482     -0.075543
     5   Atom       -0.328558     -0.360570      0.689128
     6   Atom        0.003695     -0.000786     -0.002909
     7   Atom        0.002805      0.002815     -0.005621
     8   Atom        0.002258      0.003848     -0.006106
     9   Atom        0.061761     -0.040821     -0.020940
    10   Atom       -0.045127      0.055366     -0.010239
    11   Atom       -0.003004     -0.057252      0.060255
 --------------------------------------------------------
                        XY            XZ            YZ
 --------------------------------------------------------
     1   Atom       -0.004792      0.039614     -0.049160
     2   Atom       -0.036145     -0.017713      0.192300
     3   Atom       -0.003490     -0.023648      0.003984
     4   Atom       -0.008846      0.039758     -0.002922
     5   Atom        0.009807     -0.208706     -0.062854
     6   Atom       -0.021075      0.003533     -0.004855
     7   Atom       -0.000571      0.002947      0.000048
     8   Atom        0.011795     -0.002318     -0.005160
     9   Atom        0.014441      0.057606      0.010868
    10   Atom       -0.014311     -0.047522      0.079228
    11   Atom        0.027335      0.098134      0.047718
 --------------------------------------------------------


 ---------------------------------------------------------------------------------
              Anisotropic Spin Dipole Couplings in Principal Axis System
 ---------------------------------------------------------------------------------

       Atom             a.u.   MegaHertz   Gauss  10(-4) cm-1        Axes

              Baa    -0.2220    -8.563    -3.055    -2.856  0.9710  0.2356 -0.0412
     1 N(14)  Bbb    -0.2142    -8.261    -2.948    -2.756 -0.2313  0.9689  0.0882
              Bcc     0.4362    16.824     6.003     5.612  0.0607 -0.0761  0.9953
 
              Baa    -0.2947   -11.366    -4.056    -3.791  0.6562  0.7356 -0.1682
     2 N(14)  Bbb    -0.2330    -8.987    -3.207    -2.998  0.7538 -0.6292  0.1892
              Bcc     0.5277    20.353     7.262     6.789 -0.0333  0.2509  0.9674
 
              Baa    -0.1297   -17.408    -6.212    -5.807  0.3683  0.9296  0.0132
     3 C(13)  Bbb    -0.1203   -16.143    -5.760    -5.385  0.9275 -0.3683  0.0635
              Bcc     0.2500    33.551    11.972    11.191 -0.0639  0.0111  0.9979
 
              Baa    -0.0884   -11.869    -4.235    -3.959 -0.3087  0.0004  0.9512
     4 C(13)  Bbb     0.0345     4.631     1.653     1.545  0.5699  0.8007  0.1846
              Bcc     0.0539     7.237     2.582     2.414  0.7616 -0.5990  0.2474
 
              Baa    -0.3707   -14.297    -5.101    -4.769  0.9089  0.3654  0.2007
     5 N(14)  Bbb    -0.3633   -14.010    -4.999    -4.673 -0.3696  0.9290 -0.0178
              Bcc     0.7340    28.307    10.101     9.442 -0.1929 -0.0580  0.9795
 
              Baa    -0.0198   -10.584    -3.777    -3.530  0.6587  0.7484  0.0772
     6 H(1)   Bbb    -0.0041    -2.187    -0.780    -0.729 -0.2109  0.0852  0.9738
              Bcc     0.0239    12.771     4.557     4.260  0.7222 -0.6577  0.2140
 
              Baa    -0.0066    -3.497    -1.248    -1.167 -0.3016 -0.0233  0.9532
     7 H(1)   Bbb     0.0026     1.375     0.491     0.459  0.3909  0.9088  0.1459
              Bcc     0.0040     2.122     0.757     0.708  0.8696 -0.4166  0.2650
 
              Baa    -0.0100    -5.332    -1.903    -1.779 -0.5216  0.6504  0.5522
     8 H(1)   Bbb    -0.0062    -3.294    -1.176    -1.099  0.5513 -0.2370  0.7999
              Bcc     0.0162     8.627     3.078     2.878  0.6511  0.7217 -0.2349
 
              Baa    -0.0516    -6.925    -2.471    -2.310 -0.3918 -0.3377  0.8558
     9 C(13)  Bbb    -0.0421    -5.646    -2.015    -1.883 -0.2661  0.9320  0.2460
              Bcc     0.0937    12.571     4.486     4.193  0.8807  0.1313  0.4551
 
              Baa    -0.0899     6.502     2.320     2.169  0.6406 -0.3181  0.6989
    10 O(17)  Bbb    -0.0278     2.010     0.717     0.670  0.7306  0.5328 -0.4271
              Bcc     0.1176    -8.513    -3.037    -2.839 -0.2364  0.7842  0.5737
 
              Baa    -0.0791     5.727     2.043     1.910  0.5378  0.6060 -0.5861
    11 O(17)  Bbb    -0.0673     4.868     1.737     1.624 -0.6276  0.7520  0.2016
              Bcc     0.1464   -10.595    -3.780    -3.534  0.5629  0.2594  0.7848
 

 ---------------------------------------------------------------------------------

 D2PCM: PCM CHGder 2nd derivatives, FixD1E=F FixD2E=F DoIter=F DoCFld=F I1PDM=0
 Calling FoFJK, ICntrl=    100147 FMM=F ISym2X=0 I1Cent= 0 IOpClX= 1 NMat=1 NMatS=1 NMatT=0.
 ***** Axes restored to original set *****
 -------------------------------------------------------------------
 Center     Atomic                   Forces (Hartrees/Bohr)
 Number     Number              X              Y              Z
 -------------------------------------------------------------------
      1        7           0.007462022    0.015674810   -0.000556288
      2        7           0.050122722    0.033400358   -0.025058081
      3        6           0.018954039   -0.001506562    0.005486931
      4        6          -0.005984050   -0.001125145   -0.003429752
      5        7           0.004710766   -0.012950765   -0.003061124
      6        1           0.000443808    0.000220819   -0.000523941
      7        1           0.000389117    0.000196388    0.000178305
      8        1          -0.031096490   -0.037883412    0.023980809
      9        6          -0.056843393   -0.020192993    0.013106743
     10        8          -0.003336511    0.026902962   -0.006677550
     11        8           0.015177969   -0.002736459   -0.003446053
 -------------------------------------------------------------------
 Cartesian Forces:  Max     0.056843393 RMS     0.019859453
 FormGI is forming the generalized inverse of G from B-inverse, IUseBI=4.

 GradGradGradGradGradGradGradGradGradGradGradGradGradGradGradGradGradGrad
 Berny optimization.
 Internal  Forces:  Max     0.056682224 RMS     0.010885901
 Search for a saddle point.
 Step number   1 out of a maximum of   65
 All quantities printed in internal units (Hartrees-Bohrs-Radians)
 Swapping is turned off.
 Second derivative matrix not updated -- analytic derivatives used.
 ITU=  0
     Eigenvalues ---   -0.06211  -0.00392   0.00610   0.01096   0.01275
     Eigenvalues ---    0.01730   0.02457   0.02856   0.04845   0.05624
     Eigenvalues ---    0.07166   0.09698   0.10779   0.11030   0.18578
     Eigenvalues ---    0.19784   0.25097   0.27131   0.29921   0.30871
     Eigenvalues ---    0.37837   0.38878   0.40342   0.43899   0.51259
     Eigenvalues ---    0.56202   0.81316
 Eigenvectors required to have negative eigenvalues:
                          R10       R5        A5        A6        D13
   1                   -0.67838   0.65943  -0.12342   0.12133  -0.12110
                          A18       D14       R3        D16       A17
   1                    0.10091  -0.09121  -0.08507   0.07655  -0.06412
 RFO step:  Lambda0=7.192479396D-03 Lambda=-6.09352664D-02.
 Linear search not attempted -- option 19 set.
 Maximum step size (   0.300) exceeded in Quadratic search.
    -- Step size scaled by   0.264
 Iteration  1 RMS(Cart)=  0.03630548 RMS(Int)=  0.00350917
 Iteration  2 RMS(Cart)=  0.00319946 RMS(Int)=  0.00052931
 Iteration  3 RMS(Cart)=  0.00000628 RMS(Int)=  0.00052925
 Iteration  4 RMS(Cart)=  0.00000000 RMS(Int)=  0.00052925
 Variable       Old X    -DE/DX   Delta X   Delta X   Delta X     New X
                                 (Linear)    (Quad)   (Total)
    R1        2.65469  -0.00657   0.00000   0.00067  -0.00000   2.65469
    R2        2.57630   0.00604   0.00000   0.01241   0.01233   2.58863
    R3        2.85621  -0.03127   0.00000  -0.08337  -0.08436   2.77185
    R4        2.63830  -0.01094   0.00000  -0.00584  -0.00590   2.63240
    R5        2.77053  -0.05668   0.00000  -0.13395  -0.13309   2.63744
    R6        2.60424   0.00306   0.00000  -0.00174  -0.00155   2.60269
    R7        2.03756  -0.00012   0.00000   0.00041   0.00041   2.03797
    R8        2.53901  -0.00015   0.00000   0.01049   0.01067   2.54968
    R9        2.04545  -0.00046   0.00000  -0.00041  -0.00041   2.04504
   R10        2.91560  -0.01832   0.00000  -0.22087  -0.22001   2.69559
   R11        2.36021   0.01807   0.00000   0.03116   0.03088   2.39109
   R12        2.31783   0.01008   0.00000   0.00545   0.00545   2.32328
    A1        1.93656   0.01240   0.00000   0.01123   0.01158   1.94813
    A2        2.01832  -0.00801   0.00000  -0.03550  -0.03672   1.98160
    A3        2.14818  -0.00636   0.00000   0.01804   0.01900   2.16718
    A4        1.83854  -0.00944   0.00000  -0.00843  -0.00839   1.83015
    A5        1.61923   0.01123   0.00000  -0.01543  -0.01492   1.60430
    A6        2.35035  -0.00443   0.00000   0.03937   0.03913   2.38948
    A7        1.84876   0.01004   0.00000   0.00949   0.00932   1.85809
    A8        2.12698  -0.00529   0.00000  -0.00168  -0.00160   2.12538
    A9        2.30120  -0.00468   0.00000  -0.00752  -0.00744   2.29376
   A10        1.96461  -0.00281   0.00000   0.00143   0.00147   1.96607
   A11        2.22746   0.00149   0.00000  -0.00058  -0.00060   2.22686
   A12        2.09110   0.00133   0.00000  -0.00086  -0.00088   2.09022
   A13        1.83334  -0.01007   0.00000  -0.01391  -0.01418   1.81916
   A14        2.05475   0.00697   0.00000   0.08809   0.08966   2.14441
   A15        1.93954  -0.00289   0.00000  -0.00926  -0.01084   1.92869
   A16        2.00540   0.01555   0.00000   0.04242   0.04320   2.04859
   A17        2.33795  -0.01264   0.00000  -0.03325  -0.03245   2.30550
   A18        1.73342  -0.00724   0.00000  -0.01688  -0.01705   1.71638
    D1       -0.05083   0.00179   0.00000  -0.00282  -0.00273  -0.05356
    D2       -2.45929   0.00503   0.00000  -0.03593  -0.03584  -2.49513
    D3        2.50300  -0.00306   0.00000  -0.00437  -0.00375   2.49925
    D4        0.09454   0.00017   0.00000  -0.03748  -0.03686   0.05767
    D5        0.00936  -0.00113   0.00000   0.00200   0.00189   0.01125
    D6       -2.49297   0.00407   0.00000   0.02513   0.02549  -2.46748
    D7        0.12244  -0.00060   0.00000   0.01010   0.01009   0.13253
    D8       -3.04165  -0.00017   0.00000   0.00649   0.00613  -3.03551
    D9        2.59783   0.00067   0.00000   0.00241   0.00243   2.60027
   D10       -0.56625   0.00109   0.00000  -0.00119  -0.00152  -0.56777
   D11        0.07000  -0.00162   0.00000   0.00264   0.00258   0.07258
   D12        3.10496  -0.00114   0.00000   0.00464   0.00458   3.10954
   D13        1.98954   0.00203   0.00000  -0.00533  -0.00526   1.98428
   D14       -1.25868   0.00251   0.00000  -0.00334  -0.00326  -1.26194
   D15       -0.26359  -0.00254   0.00000   0.02335   0.02400  -0.23959
   D16       -2.26817   0.00136   0.00000   0.03299   0.03377  -2.23440
   D17       -0.06989   0.00064   0.00000  -0.00203  -0.00205  -0.07193
   D18        3.07744   0.00035   0.00000   0.00044   0.00045   3.07789
   D19       -3.08984  -0.00002   0.00000  -0.00501  -0.00501  -3.09484
   D20        0.05749  -0.00031   0.00000  -0.00254  -0.00251   0.05498
   D21        0.03804  -0.00010   0.00000  -0.00030  -0.00022   0.03783
   D22       -3.10878   0.00016   0.00000  -0.00255  -0.00250  -3.11128
   D23        0.35528   0.00009   0.00000  -0.02384  -0.02376   0.33152
   D24       -0.25005   0.00195   0.00000   0.01554   0.01475  -0.23530
   D25        2.91989   0.00086   0.00000   0.01861   0.01806   2.93795
         Item               Value     Threshold  Converged?
 Maximum Force            0.056682     0.000450     NO 
 RMS     Force            0.010886     0.000300     NO 
 Maximum Displacement     0.133740     0.001800     NO 
 RMS     Displacement     0.038836     0.001200     NO 
 Predicted change in Energy=-1.698610D-02
 GradGradGradGradGradGradGradGradGradGradGradGradGradGradGradGradGradGrad

                          Input orientation:                          
 ---------------------------------------------------------------------
 Center     Atomic      Atomic             Coordinates (Angstroms)
 Number     Number       Type             X           Y           Z
 ---------------------------------------------------------------------
      1          7           0        0.023660   -0.148315    0.376554
      2          7           0       -0.705337    1.048872    0.282886
      3          6           0       -1.971842    0.662982   -0.150146
      4          6           0       -1.965266   -0.713445   -0.198218
      5          7           0       -0.755500   -1.237540    0.088508
      6          1           0       -2.767702    1.377890   -0.286397
      7          1           0       -2.791777   -1.369565   -0.438038
      8          1           0        0.390518    1.729339   -0.250010
      9          6           0        1.428415   -0.011508   -0.022760
     10          8           0        1.716601    1.204576   -0.220485
     11          8           0        2.102964   -1.037875   -0.077980
 ---------------------------------------------------------------------
                    Distance matrix (angstroms):
                    1          2          3          4          5
     1  N    0.000000
     2  N    1.404801   0.000000
     3  C    2.217576   1.393005   0.000000
     4  C    2.146058   2.219154   1.377282   0.000000
     5  N    1.369845   2.295209   2.269015   1.349230   0.000000
     6  H    3.249693   2.164645   1.078448   2.241731   3.321142
     7  H    3.175169   3.274416   2.210526   1.082186   2.107393
     8  H    2.013144   1.395676   2.593807   3.394053   3.198488
     9  C    1.466800   2.402233   3.468849   3.469953   2.506994
    10  O    2.247847   2.478590   3.728657   4.151560   3.488652
    11  O    2.306821   3.517284   4.416126   4.082917   2.870261
                    6          7          8          9         10
     6  H    0.000000
     7  H    2.751742   0.000000
     8  H    3.177923   4.445847   0.000000
     9  C    4.428016   4.452728   2.039466   0.000000
    10  O    4.488135   5.196057   1.426445   1.265310   0.000000
    11  O    5.440840   4.919161   3.258763   1.229428   2.279949
                   11
    11  O    0.000000
 Stoichiometry    C3H3N3O2(1-,2)
 Framework group  C1[X(C3H3N3O2)]
 Deg. of freedom    27
 Full point group                 C1      NOp   1
 Largest Abelian subgroup         C1      NOp   1
 Largest concise Abelian subgroup C1      NOp   1
                         Standard orientation:                         
 ---------------------------------------------------------------------
 Center     Atomic      Atomic             Coordinates (Angstroms)
 Number     Number       Type             X           Y           Z
 ---------------------------------------------------------------------
      1          7           0        0.015329   -0.158628    0.380986
      2          7           0       -0.692251    1.052176    0.298811
      3          6           0       -1.964372    0.693395   -0.141018
      4          6           0       -1.981935   -0.682333   -0.204020
      5          7           0       -0.782243   -1.230759    0.079510
      6          1           0       -2.747203    1.423663   -0.271150
      7          1           0       -2.819330   -1.321138   -0.452668
      8          1           0        0.416627    1.718932   -0.224386
      9          6           0        1.423178   -0.042310   -0.013898
     10          8           0        1.733190    1.170571   -0.197806
     11          8           0        2.079665   -1.079757   -0.078860
 ---------------------------------------------------------------------
 Rotational constants (GHZ):           5.0084874           1.8650061           1.3976453
 Standard basis: 6-31+G(d,p) (6D, 7F)
 There are   167 symmetry adapted cartesian basis functions of A   symmetry.
 There are   167 symmetry adapted basis functions of A   symmetry.
   167 basis functions,   277 primitive gaussians,   167 cartesian basis functions
    30 alpha electrons       29 beta electrons
       nuclear repulsion energy       360.7999452227 Hartrees.
 NAtoms=   11 NActive=   11 NUniq=   11 SFac= 1.00D+00 NAtFMM=   60 NAOKFM=F Big=F
 Integral buffers will be    131072 words long.
 Raffenetti 2 integral format.
 Two-electron integral symmetry is turned on.
 ------------------------------------------------------------------------------
 Polarizable Continuum Model (PCM)
 =================================
 Model                : PCM.
 Atomic radii         : SMD-Coulomb.
 Polarization charges : Total charges.
 Charge compensation  : None.
 Solution method      : Matrix inversion.
 Cavity type          : VdW (van der Waals Surface) (Alpha=1.000).
 Cavity algorithm     : GePol (No added spheres)
                        Default sphere list used, NSphG=   11.
                        Lebedev-Laikov grids with approx.  5.0 points / Ang**2.
                        Smoothing algorithm: York/Karplus (Gamma=1.0000).
                        Polarization charges: spherical gaussians, with
                                              point-specific exponents (IZeta= 3).
                        Self-potential: point-specific (ISelfS= 7).
                        Self-field    : sphere-specific E.n sum rule (ISelfD= 2).
 1st derivatives      : Analytical E(r).r(x)/FMM algorithm (CHGder, D1EAlg=3).
                        Cavity 1st derivative terms included.
 Solvent              : Water, Eps=  78.355300 Eps(inf)=   1.777849
 ------------------------------------------------------------------------------
 Spheres list:
 ISph  on   Nord     Re0    Alpha      Xe            Ye            Ze
    1   N      1    1.8900  1.000      0.015329     -0.158628      0.380986
    2   N      2    1.8900  1.000     -0.692251      1.052176      0.298811
    3   C      3    1.8500  1.000     -1.964372      0.693395     -0.141018
    4   C      4    1.8500  1.000     -1.981935     -0.682333     -0.204020
    5   N      5    1.8900  1.000     -0.782243     -1.230759      0.079510
    6   H      6    1.2000  1.000     -2.747203      1.423663     -0.271150
    7   H      7    1.2000  1.000     -2.819330     -1.321138     -0.452668
    8   H      8    1.2000  1.000      0.416627      1.718932     -0.224386
    9   C      9    1.8500  1.000      1.423178     -0.042310     -0.013898
   10   O     10    1.5200  1.000      1.733190      1.170571     -0.197806
   11   O     11    1.5200  1.000      2.079665     -1.079757     -0.078860
 ------------------------------------------------------------------------------
 ------------------------------------------------------------------------------
 Atomic radii for non-electrostatic terms: SMD-CDS.
 ------------------------------------------------------------------------------
 Nuclear repulsion after PCM non-electrostatic terms =      360.8062452437 Hartrees.
 One-electron integrals computed using PRISM.
 NBasis=   167 RedAO= T EigKep=  5.22D-05  NBF=   167
 NBsUse=   167 1.00D-06 EigRej= -1.00D+00 NBFU=   167
 Initial guess from the checkpoint file:  "/scratch/gongke2021/TS/Gau-17128.chk"
 B after Tr=     0.000000   -0.000000    0.000000
         Rot=    0.999996   -0.002519   -0.000997   -0.000051 Ang=  -0.31 deg.
 Initial guess <Sx>= 0.0000 <Sy>= 0.0000 <Sz>= 0.5000 <S**2>= 0.7637 S= 0.5068
 ExpMin= 4.38D-02 ExpMax= 5.48D+03 ExpMxC= 8.25D+02 IAcc=2 IRadAn=         4 AccDes= 0.00D+00
 Harris functional with IExCor= 1009 and IRadAn=       4 diagonalized for initial guess.
 HarFok:  IExCor= 1009 AccDes= 0.00D+00 IRadAn=         4 IDoV= 1 UseB2=F ITyADJ=14
 ICtDFT=  3500011 ScaDFX=  1.000000  1.000000  1.000000  1.000000
 FoFCou: FMM=F IPFlag=           0 FMFlag=      100000 FMFlg1=           0
         NFxFlg=           0 DoJE=T BraDBF=F KetDBF=T FulRan=T
         wScrn=  0.000000 ICntrl=       500 IOpCl=  0 I1Cent=   200000004 NGrid=           0
         NMat0=    1 NMatS0=      1 NMatT0=    0 NMatD0=    1 NMtDS0=    0 NMtDT0=    0
 Petite list used in FoFCou.
 Keep R1 and R2 ints in memory in canonical form, NReq=216648901.
 Requested convergence on RMS density matrix=1.00D-08 within 128 cycles.
 Requested convergence on MAX density matrix=1.00D-06.
 Requested convergence on             energy=1.00D-06.
 No special actions if energy rises.
 Inv3:  Mode=1 IEnd=     2976048.
 Iteration    1 A*A^-1 deviation from unit magnitude is 4.44D-15 for    483.
 Iteration    1 A*A^-1 deviation from orthogonality  is 2.24D-15 for    438    238.
 Iteration    1 A^-1*A deviation from unit magnitude is 3.11D-15 for    238.
 Iteration    1 A^-1*A deviation from orthogonality  is 1.38D-15 for    263    220.
 Error on total polarization charges =  0.04989
 SCF Done:  E(UM062X) =  -430.728559665     A.U. after   17 cycles
            NFock= 17  Conv=0.46D-08     -V/T= 2.0088
 <Sx>= 0.0000 <Sy>= 0.0000 <Sz>= 0.5000 <S**2>= 0.7632 S= 0.5066
 <L.S>= 0.000000000000E+00
 SMD-CDS (non-electrostatic) energy       (kcal/mol) =       3.95
 (included in total energy above)
 Annihilation of the first spin contaminant:
 S**2 before annihilation     0.7632,   after     0.7501
 D1PCM: PCM CHGder 1st derivatives, ID1Alg=3 FixD1E=F DoIter=F DoCFld=F I1PDM=0.
 Calling FoFJK, ICntrl=      2127 FMM=F ISym2X=0 I1Cent= 0 IOpClX= 1 NMat=1 NMatS=1 NMatT=0.
 ***** Axes restored to original set *****
 -------------------------------------------------------------------
 Center     Atomic                   Forces (Hartrees/Bohr)
 Number     Number              X              Y              Z
 -------------------------------------------------------------------
      1        7           0.004722421    0.012790444   -0.001067804
      2        7           0.038150823    0.026504354   -0.021289514
      3        6           0.016372028   -0.001261613    0.006069771
      4        6          -0.004322139   -0.001610513   -0.003110515
      5        7           0.002851064   -0.009269525   -0.001697663
      6        1           0.000302521    0.000119466   -0.000605524
      7        1           0.000346041    0.000137041    0.000106120
      8        1          -0.021954341   -0.031891004    0.020448679
      9        6          -0.043702262   -0.017601305    0.010928409
     10        8          -0.005079801    0.023355014   -0.006790364
     11        8           0.012313645   -0.001272359   -0.002991594
 -------------------------------------------------------------------
 Cartesian Forces:  Max     0.043702262 RMS     0.015829677

 GradGradGradGradGradGradGradGradGradGradGradGradGradGradGradGradGradGrad
 Berny optimization.
 FormGI is forming the generalized inverse of G from B-inverse, IUseBI=4.
 Internal  Forces:  Max     0.045010182 RMS     0.008722737
 Search for a saddle point.
 Step number   2 out of a maximum of   65
 All quantities printed in internal units (Hartrees-Bohrs-Radians)
 Swapping is turned off.
 Update second derivatives using D2CorX and points    1    2
 ITU=  0  0
     Eigenvalues ---   -0.06324   0.00421   0.00798   0.01118   0.01308
     Eigenvalues ---    0.02452   0.02776   0.03141   0.04884   0.05626
     Eigenvalues ---    0.07263   0.09698   0.11001   0.11329   0.18595
     Eigenvalues ---    0.19901   0.25097   0.27161   0.29959   0.30892
     Eigenvalues ---    0.37838   0.38878   0.40363   0.43903   0.51280
     Eigenvalues ---    0.56199   0.81327
 Eigenvectors required to have negative eigenvalues:
                          R10       R5        A6        A5        D13
   1                   -0.70646   0.62789   0.12378  -0.12112  -0.11961
                          A18       R3        D14       D16       D2
   1                    0.09251  -0.09193  -0.08959   0.08640  -0.06955
 RFO step:  Lambda0=2.643645453D-03 Lambda=-3.90949299D-02.
 Linear search not attempted -- option 19 set.
 Maximum step size (   0.300) exceeded in Quadratic search.
    -- Step size scaled by   0.417
 Iteration  1 RMS(Cart)=  0.03813918 RMS(Int)=  0.00233621
 Iteration  2 RMS(Cart)=  0.00207682 RMS(Int)=  0.00055696
 Iteration  3 RMS(Cart)=  0.00000389 RMS(Int)=  0.00055695
 Iteration  4 RMS(Cart)=  0.00000000 RMS(Int)=  0.00055695
 Variable       Old X    -DE/DX   Delta X   Delta X   Delta X     New X
                                 (Linear)    (Quad)   (Total)
    R1        2.65469  -0.00547   0.00000  -0.00275  -0.00337   2.65132
    R2        2.58863   0.00431   0.00000   0.01083   0.01073   2.59936
    R3        2.77185  -0.02335   0.00000  -0.08079  -0.08193   2.68992
    R4        2.63240  -0.00995   0.00000  -0.01315  -0.01318   2.61922
    R5        2.63744  -0.04501   0.00000  -0.14626  -0.14520   2.49224
    R6        2.60269   0.00280   0.00000   0.00103   0.00122   2.60391
    R7        2.03797  -0.00007   0.00000   0.00056   0.00056   2.03854
    R8        2.54968  -0.00083   0.00000   0.00852   0.00867   2.55835
    R9        2.04504  -0.00037   0.00000  -0.00067  -0.00067   2.04437
   R10        2.69559  -0.01710   0.00000  -0.20679  -0.20580   2.48979
   R11        2.39109   0.01462   0.00000   0.03255   0.03216   2.42325
   R12        2.32328   0.00795   0.00000   0.00616   0.00616   2.32944
    A1        1.94813   0.00973   0.00000   0.01449   0.01491   1.96305
    A2        1.98160  -0.00695   0.00000  -0.03701  -0.03827   1.94333
    A3        2.16718  -0.00430   0.00000   0.01774   0.01868   2.18586
    A4        1.83015  -0.00737   0.00000  -0.01041  -0.01048   1.81967
    A5        1.60430   0.00801   0.00000  -0.01508  -0.01435   1.58995
    A6        2.38948  -0.00212   0.00000   0.04081   0.04055   2.43003
    A7        1.85809   0.00802   0.00000   0.01281   0.01269   1.87078
    A8        2.12538  -0.00410   0.00000  -0.00181  -0.00177   2.12361
    A9        2.29376  -0.00383   0.00000  -0.01002  -0.00999   2.28376
   A10        1.96607  -0.00247   0.00000  -0.00144  -0.00139   1.96468
   A11        2.22686   0.00135   0.00000   0.00082   0.00079   2.22765
   A12        2.09022   0.00112   0.00000   0.00061   0.00059   2.09081
   A13        1.81916  -0.00780   0.00000  -0.01511  -0.01540   1.80376
   A14        2.14441   0.00844   0.00000   0.09689   0.09859   2.24300
   A15        1.92869  -0.00265   0.00000  -0.01233  -0.01406   1.91463
   A16        2.04859   0.01290   0.00000   0.04627   0.04713   2.09572
   A17        2.30550  -0.01023   0.00000  -0.03392  -0.03305   2.27246
   A18        1.71638  -0.00654   0.00000  -0.02400  -0.02407   1.69231
    D1       -0.05356   0.00149   0.00000   0.00402   0.00412  -0.04944
    D2       -2.49513   0.00290   0.00000  -0.03015  -0.03011  -2.52524
    D3        2.49925  -0.00212   0.00000   0.00443   0.00496   2.50421
    D4        0.05767  -0.00071   0.00000  -0.02974  -0.02927   0.02840
    D5        0.01125  -0.00090   0.00000  -0.00196  -0.00208   0.00917
    D6       -2.46748   0.00340   0.00000   0.01955   0.01988  -2.44760
    D7        0.13253  -0.00061   0.00000   0.00477   0.00466   0.13719
    D8       -3.03551  -0.00010   0.00000   0.00489   0.00460  -3.03092
    D9        2.60027   0.00049   0.00000   0.00023   0.00013   2.60040
   D10       -0.56777   0.00100   0.00000   0.00035   0.00007  -0.56770
   D11        0.07258  -0.00139   0.00000  -0.00418  -0.00424   0.06834
   D12        3.10954  -0.00074   0.00000   0.00372   0.00370   3.11325
   D13        1.98428   0.00103   0.00000  -0.01421  -0.01412   1.97016
   D14       -1.26194   0.00168   0.00000  -0.00631  -0.00618  -1.26812
   D15       -0.23959  -0.00136   0.00000   0.01761   0.01809  -0.22150
   D16       -2.23440   0.00167   0.00000   0.03050   0.03115  -2.20325
   D17       -0.07193   0.00062   0.00000   0.00280   0.00281  -0.06913
   D18        3.07789   0.00042   0.00000   0.00402   0.00404   3.08193
   D19       -3.09484  -0.00022   0.00000  -0.00710  -0.00705  -3.10189
   D20        0.05498  -0.00042   0.00000  -0.00587  -0.00582   0.04916
   D21        0.03783  -0.00017   0.00000  -0.00105  -0.00097   0.03686
   D22       -3.11128   0.00002   0.00000  -0.00217  -0.00209  -3.11337
   D23        0.33152  -0.00046   0.00000  -0.01963  -0.01944   0.31208
   D24       -0.23530   0.00198   0.00000   0.01664   0.01591  -0.21939
   D25        2.93795   0.00087   0.00000   0.01477   0.01429   2.95224
         Item               Value     Threshold  Converged?
 Maximum Force            0.045010     0.000450     NO 
 RMS     Force            0.008723     0.000300     NO 
 Maximum Displacement     0.140859     0.001800     NO 
 RMS     Displacement     0.039561     0.001200     NO 
 Predicted change in Energy=-1.373457D-02
 GradGradGradGradGradGradGradGradGradGradGradGradGradGradGradGradGradGrad

                          Input orientation:                          
 ---------------------------------------------------------------------
 Center     Atomic      Atomic             Coordinates (Angstroms)
 Number     Number       Type             X           Y           Z
 ---------------------------------------------------------------------
      1          7           0        0.027946   -0.162190    0.374842
      2          7           0       -0.675671    1.046477    0.262980
      3          6           0       -1.940277    0.667520   -0.159207
      4          6           0       -1.963116   -0.709847   -0.191244
      5          7           0       -0.760078   -1.256428    0.103330
      6          1           0       -2.726780    1.389976   -0.311412
      7          1           0       -2.802374   -1.351374   -0.424596
      8          1           0        0.394543    1.655055   -0.209893
      9          6           0        1.386387   -0.009528   -0.022054
     10          8           0        1.642062    1.231364   -0.220000
     11          8           0        2.122089   -0.995612   -0.098831
 ---------------------------------------------------------------------
                    Distance matrix (angstroms):
                    1          2          3          4          5
     1  N    0.000000
     2  N    1.403020   0.000000
     3  C    2.201710   1.386031   0.000000
     4  C    2.141193   2.224525   1.377929   0.000000
     5  N    1.375521   2.309975   2.272306   1.353818   0.000000
     6  H    3.235533   2.157537   1.078747   2.237606   3.323158
     7  H    3.172376   3.278005   2.211238   1.081834   2.111562
     8  H    1.943884   1.318838   2.535583   3.339411   3.147696
     9  C    1.423445   2.334197   3.397632   3.426112   2.485516
    10  O    2.213865   2.374729   3.626950   4.094684   3.473316
    11  O    2.303128   3.482599   4.390043   4.096230   2.900996
                    6          7          8          9         10
     6  H    0.000000
     7  H    2.744727   0.000000
     8  H    3.134203   4.393744   0.000000
     9  C    4.354364   4.416821   1.946760   0.000000
    10  O    4.372675   5.144454   1.317542   1.282328   0.000000
    11  O    5.408119   4.948033   3.165878   1.232685   2.281344
                   11
    11  O    0.000000
 Stoichiometry    C3H3N3O2(1-,2)
 Framework group  C1[X(C3H3N3O2)]
 Deg. of freedom    27
 Full point group                 C1      NOp   1
 Largest Abelian subgroup         C1      NOp   1
 Largest concise Abelian subgroup C1      NOp   1
                         Standard orientation:                         
 ---------------------------------------------------------------------
 Center     Atomic      Atomic             Coordinates (Angstroms)
 Number     Number       Type             X           Y           Z
 ---------------------------------------------------------------------
      1          7           0        0.022039   -0.180583    0.381355
      2          7           0       -0.651085    1.046846    0.287611
      3          6           0       -1.923335    0.706395   -0.144307
      4          6           0       -1.980158   -0.669265   -0.199253
      5          7           0       -0.791961   -1.250306    0.089544
      6          1           0       -2.691226    1.450551   -0.286684
      7          1           0       -2.834292   -1.285838   -0.445540
      8          1           0        0.435364    1.636420   -0.172134
      9          6           0        1.385098   -0.055126   -0.009190
     10          8           0        1.672038    1.182144   -0.185812
     11          8           0        2.096407   -1.057751   -0.100276
 ---------------------------------------------------------------------
 Rotational constants (GHZ):           5.0119642           1.9098241           1.4220792
 Standard basis: 6-31+G(d,p) (6D, 7F)
 There are   167 symmetry adapted cartesian basis functions of A   symmetry.
 There are   167 symmetry adapted basis functions of A   symmetry.
   167 basis functions,   277 primitive gaussians,   167 cartesian basis functions
    30 alpha electrons       29 beta electrons
       nuclear repulsion energy       363.1626576003 Hartrees.
 NAtoms=   11 NActive=   11 NUniq=   11 SFac= 1.00D+00 NAtFMM=   60 NAOKFM=F Big=F
 Integral buffers will be    131072 words long.
 Raffenetti 2 integral format.
 Two-electron integral symmetry is turned on.
 ------------------------------------------------------------------------------
 Polarizable Continuum Model (PCM)
 =================================
 Model                : PCM.
 Atomic radii         : SMD-Coulomb.
 Polarization charges : Total charges.
 Charge compensation  : None.
 Solution method      : Matrix inversion.
 Cavity type          : VdW (van der Waals Surface) (Alpha=1.000).
 Cavity algorithm     : GePol (No added spheres)
                        Default sphere list used, NSphG=   11.
                        Lebedev-Laikov grids with approx.  5.0 points / Ang**2.
                        Smoothing algorithm: York/Karplus (Gamma=1.0000).
                        Polarization charges: spherical gaussians, with
                                              point-specific exponents (IZeta= 3).
                        Self-potential: point-specific (ISelfS= 7).
                        Self-field    : sphere-specific E.n sum rule (ISelfD= 2).
 1st derivatives      : Analytical E(r).r(x)/FMM algorithm (CHGder, D1EAlg=3).
                        Cavity 1st derivative terms included.
 Solvent              : Water, Eps=  78.355300 Eps(inf)=   1.777849
 ------------------------------------------------------------------------------
 Spheres list:
 ISph  on   Nord     Re0    Alpha      Xe            Ye            Ze
    1   N      1    1.8900  1.000      0.022039     -0.180583      0.381355
    2   N      2    1.8900  1.000     -0.651085      1.046846      0.287611
    3   C      3    1.8500  1.000     -1.923335      0.706395     -0.144307
    4   C      4    1.8500  1.000     -1.980158     -0.669265     -0.199253
    5   N      5    1.8900  1.000     -0.791961     -1.250306      0.089544
    6   H      6    1.2000  1.000     -2.691226      1.450551     -0.286684
    7   H      7    1.2000  1.000     -2.834292     -1.285838     -0.445540
    8   H      8    1.2000  1.000      0.435364      1.636420     -0.172134
    9   C      9    1.8500  1.000      1.385098     -0.055126     -0.009190
   10   O     10    1.5200  1.000      1.672038      1.182144     -0.185812
   11   O     11    1.5200  1.000      2.096407     -1.057751     -0.100276
 ------------------------------------------------------------------------------
 ------------------------------------------------------------------------------
 Atomic radii for non-electrostatic terms: SMD-CDS.
 ------------------------------------------------------------------------------
 Nuclear repulsion after PCM non-electrostatic terms =      363.1687003731 Hartrees.
 One-electron integrals computed using PRISM.
 NBasis=   167 RedAO= T EigKep=  5.20D-05  NBF=   167
 NBsUse=   167 1.00D-06 EigRej= -1.00D+00 NBFU=   167
 Initial guess from the checkpoint file:  "/scratch/gongke2021/TS/Gau-17128.chk"
 B after Tr=     0.000000    0.000000    0.000000
         Rot=    0.999996   -0.002741   -0.000925   -0.000169 Ang=  -0.33 deg.
 Initial guess <Sx>= 0.0000 <Sy>= 0.0000 <Sz>= 0.5000 <S**2>= 0.7632 S= 0.5066
 ExpMin= 4.38D-02 ExpMax= 5.48D+03 ExpMxC= 8.25D+02 IAcc=2 IRadAn=         4 AccDes= 0.00D+00
 Harris functional with IExCor= 1009 and IRadAn=       4 diagonalized for initial guess.
 HarFok:  IExCor= 1009 AccDes= 0.00D+00 IRadAn=         4 IDoV= 1 UseB2=F ITyADJ=14
 ICtDFT=  3500011 ScaDFX=  1.000000  1.000000  1.000000  1.000000
 FoFCou: FMM=F IPFlag=           0 FMFlag=      100000 FMFlg1=           0
         NFxFlg=           0 DoJE=T BraDBF=F KetDBF=T FulRan=T
         wScrn=  0.000000 ICntrl=       500 IOpCl=  0 I1Cent=   200000004 NGrid=           0
         NMat0=    1 NMatS0=      1 NMatT0=    0 NMatD0=    1 NMtDS0=    0 NMtDT0=    0
 Petite list used in FoFCou.
 Keep R1 and R2 ints in memory in canonical form, NReq=216648901.
 Requested convergence on RMS density matrix=1.00D-08 within 128 cycles.
 Requested convergence on MAX density matrix=1.00D-06.
 Requested convergence on             energy=1.00D-06.
 No special actions if energy rises.
 Inv3:  Mode=1 IEnd=     2976048.
 Iteration    1 A*A^-1 deviation from unit magnitude is 6.22D-15 for    227.
 Iteration    1 A*A^-1 deviation from orthogonality  is 2.85D-15 for    241    227.
 Iteration    1 A^-1*A deviation from unit magnitude is 5.33D-15 for    991.
 Iteration    1 A^-1*A deviation from orthogonality  is 1.84D-15 for    552    312.
 Error on total polarization charges =  0.04986
 SCF Done:  E(UM062X) =  -430.740354018     A.U. after   17 cycles
            NFock= 17  Conv=0.32D-08     -V/T= 2.0085
 <Sx>= 0.0000 <Sy>= 0.0000 <Sz>= 0.5000 <S**2>= 0.7633 S= 0.5066
 <L.S>= 0.000000000000E+00
 SMD-CDS (non-electrostatic) energy       (kcal/mol) =       3.79
 (included in total energy above)
 Annihilation of the first spin contaminant:
 S**2 before annihilation     0.7633,   after     0.7501
 D1PCM: PCM CHGder 1st derivatives, ID1Alg=3 FixD1E=F DoIter=F DoCFld=F I1PDM=0.
 Calling FoFJK, ICntrl=      2127 FMM=F ISym2X=0 I1Cent= 0 IOpClX= 1 NMat=1 NMatS=1 NMatT=0.
 ***** Axes restored to original set *****
 -------------------------------------------------------------------
 Center     Atomic                   Forces (Hartrees/Bohr)
 Number     Number              X              Y              Z
 -------------------------------------------------------------------
      1        7          -0.002399189    0.007938951    0.000114956
      2        7           0.015835441    0.014448181   -0.013112975
      3        6           0.011808859   -0.000915379    0.005908378
      4        6          -0.002324878   -0.002075254   -0.002598435
      5        7           0.000956889   -0.004623121   -0.000675833
      6        1           0.000163946    0.000031506   -0.000629154
      7        1           0.000256814    0.000064608    0.000058308
      8        1          -0.012148626   -0.016360842    0.012972744
      9        6          -0.021445849   -0.012683600    0.006586686
     10        8           0.001224665    0.014890252   -0.006531884
     11        8           0.008071927   -0.000715302   -0.002092790
 -------------------------------------------------------------------
 Cartesian Forces:  Max     0.021445849 RMS     0.008701851

 GradGradGradGradGradGradGradGradGradGradGradGradGradGradGradGradGradGrad
 Berny optimization.
 FormGI is forming the generalized inverse of G from B-inverse, IUseBI=4.
 Internal  Forces:  Max     0.022101274 RMS     0.004605278
 Search for a saddle point.
 Step number   3 out of a maximum of   65
 All quantities printed in internal units (Hartrees-Bohrs-Radians)
 Swapping is turned off.
 Update second derivatives using D2CorX and points    2    3
 ITU=  0  0  0
     Eigenvalues ---   -0.06437   0.00473   0.00910   0.01132   0.01325
     Eigenvalues ---    0.02453   0.02836   0.04686   0.05458   0.05893
     Eigenvalues ---    0.07871   0.09699   0.11010   0.13263   0.18639
     Eigenvalues ---    0.20467   0.25085   0.27168   0.30062   0.31147
     Eigenvalues ---    0.37838   0.38878   0.40353   0.43893   0.51280
     Eigenvalues ---    0.56216   0.81416
 Eigenvectors required to have negative eigenvalues:
                          R10       R5        A6        D13       A5
   1                   -0.71054   0.62405   0.12257  -0.12078  -0.11722
                          D16       D14       R3        A18       D2
   1                    0.09414  -0.08903  -0.08894   0.08515  -0.07001
 RFO step:  Lambda0=8.295713591D-04 Lambda=-8.97055146D-03.
 Linear search not attempted -- option 19 set.
 Maximum step size (   0.300) exceeded in Quadratic search.
    -- Step size scaled by   0.951
 Iteration  1 RMS(Cart)=  0.03905547 RMS(Int)=  0.00527561
 Iteration  2 RMS(Cart)=  0.00477231 RMS(Int)=  0.00191272
 Iteration  3 RMS(Cart)=  0.00002892 RMS(Int)=  0.00191241
 Iteration  4 RMS(Cart)=  0.00000009 RMS(Int)=  0.00191241
 Variable       Old X    -DE/DX   Delta X   Delta X   Delta X     New X
                                 (Linear)    (Quad)   (Total)
    R1        2.65132  -0.00303   0.00000  -0.00166  -0.00334   2.64799
    R2        2.59936   0.00236   0.00000   0.01421   0.01429   2.61365
    R3        2.68992  -0.00790   0.00000  -0.03712  -0.03824   2.65168
    R4        2.61922  -0.00768   0.00000  -0.02931  -0.02991   2.58931
    R5        2.49224  -0.02210   0.00000  -0.12259  -0.12176   2.37048
    R6        2.60391   0.00220   0.00000   0.00569   0.00614   2.61005
    R7        2.03854  -0.00001   0.00000   0.00099   0.00099   2.03952
    R8        2.55835  -0.00133   0.00000   0.00609   0.00699   2.56533
    R9        2.04437  -0.00025   0.00000  -0.00114  -0.00114   2.04323
   R10        2.48979  -0.00630   0.00000  -0.19599  -0.19489   2.29490
   R11        2.42325   0.01075   0.00000   0.03998   0.04030   2.46355
   R12        2.32944   0.00551   0.00000   0.00315   0.00315   2.33259
    A1        1.96305   0.00541   0.00000   0.01338   0.01262   1.97567
    A2        1.94333  -0.00356   0.00000  -0.03528  -0.03828   1.90505
[...]
   A18        1.66385   0.00001   0.00000  -0.00001  -0.00001   1.66385
    D1       -0.02923   0.00000   0.00000   0.00011   0.00011  -0.02912
    D2       -2.55994  -0.00000   0.00000  -0.00054  -0.00054  -2.56048
    D3        2.48838   0.00001   0.00000   0.00068   0.00068   2.48906
    D4       -0.04232  -0.00000   0.00000   0.00003   0.00003  -0.04230
    D5        0.00442  -0.00000   0.00000  -0.00009  -0.00009   0.00432
    D6       -2.41240  -0.00001   0.00000  -0.00062  -0.00062  -2.41301
    D7        0.14268  -0.00001   0.00000  -0.00035  -0.00035   0.14234
    D8       -3.02107  -0.00000   0.00000  -0.00027  -0.00027  -3.02134
    D9        2.57894  -0.00000   0.00000   0.00016   0.00016   2.57909
   D10       -0.58482   0.00000   0.00000   0.00024   0.00024  -0.58458
   D11        0.04169  -0.00000   0.00000  -0.00008  -0.00008   0.04160
   D12        3.13153   0.00000   0.00000   0.00020   0.00020   3.13174
   D13        1.91373   0.00001   0.00000   0.00068   0.00068   1.91442
   D14       -1.27960   0.00001   0.00000   0.00097   0.00097  -1.27864
   D15       -0.09747   0.00001   0.00000   0.00044   0.00044  -0.09703
   D16       -2.04603  -0.00000   0.00000  -0.00021  -0.00021  -2.04624
   D17       -0.04325   0.00000   0.00000   0.00003   0.00003  -0.04321
   D18        3.09389   0.00000   0.00000   0.00004   0.00004   3.09393
   D19       -3.12746  -0.00000   0.00000  -0.00028  -0.00028  -3.12774
   D20        0.00968  -0.00000   0.00000  -0.00028  -0.00028   0.00940
   D21        0.02319  -0.00000   0.00000   0.00004   0.00004   0.02323
   D22       -3.11433   0.00000   0.00000   0.00003   0.00003  -3.11430
   D23        0.18358  -0.00001   0.00000  -0.00065  -0.00065   0.18293
   D24       -0.16008   0.00001   0.00000   0.00049   0.00049  -0.15959
   D25        3.00491   0.00000   0.00000   0.00041   0.00041   3.00532
         Item               Value     Threshold  Converged?
 Maximum Force            0.000040     0.000450     YES
 RMS     Force            0.000010     0.000300     YES
 Maximum Displacement     0.000814     0.001800     YES
 RMS     Displacement     0.000237     0.001200     YES
 Predicted change in Energy=-1.737733D-08
 Optimization completed.
    -- Stationary point found.
                           ----------------------------
                           !   Optimized Parameters   !
                           ! (Angstroms and Degrees)  !
 --------------------------                            --------------------------
 ! Name  Definition              Value          Derivative Info.                !
 --------------------------------------------------------------------------------
 ! R1    R(1,2)                  1.4045         -DE/DX =    0.0                 !
 ! R2    R(1,5)                  1.3842         -DE/DX =    0.0                 !
 ! R3    R(1,9)                  1.4007         -DE/DX =    0.0                 !
 ! R4    R(2,3)                  1.3702         -DE/DX =    0.0                 !
 ! R5    R(2,8)                  1.2909         -DE/DX =    0.0                 !
 ! R6    R(3,4)                  1.381          -DE/DX =    0.0                 !
 ! R7    R(3,6)                  1.0794         -DE/DX =    0.0                 !
 ! R8    R(4,5)                  1.3558         -DE/DX =    0.0                 !
 ! R9    R(4,7)                  1.0812         -DE/DX =    0.0                 !
 ! R10   R(8,10)                 1.2283         -DE/DX =    0.0                 !
 ! R11   R(9,10)                 1.3082         -DE/DX =    0.0                 !
 ! R12   R(9,11)                 1.2345         -DE/DX =    0.0                 !
 ! A1    A(2,1,5)              113.3971         -DE/DX =    0.0                 !
 ! A2    A(2,1,9)              110.1905         -DE/DX =    0.0                 !
 ! A3    A(5,1,9)              124.1945         -DE/DX =    0.0                 !
 ! A4    A(1,2,3)              103.2763         -DE/DX =    0.0                 !
 ! A5    A(1,2,8)               89.4176         -DE/DX =    0.0                 !
 ! A6    A(3,2,8)              143.0862         -DE/DX =    0.0                 !
 ! A7    A(2,3,4)              108.6909         -DE/DX =    0.0                 !
 ! A8    A(2,3,6)              121.4926         -DE/DX =    0.0                 !
 ! A9    A(4,3,6)              129.7359         -DE/DX =    0.0                 !
 ! A10   A(3,4,5)              112.0825         -DE/DX =    0.0                 !
 ! A11   A(3,4,7)              127.8079         -DE/DX =    0.0                 !
 ! A12   A(5,4,7)              120.1091         -DE/DX =    0.0                 !
 ! A13   A(1,5,4)              102.4923         -DE/DX =    0.0                 !
 ! A14   A(2,8,10)             134.7788         -DE/DX =    0.0                 !
 ! A15   A(1,9,10)             109.2605         -DE/DX =    0.0                 !
 ! A16   A(1,9,11)             123.1774         -DE/DX =    0.0                 !
 ! A17   A(10,9,11)            127.548          -DE/DX =    0.0                 !
 ! A18   A(8,10,9)              95.3318         -DE/DX =    0.0                 !
 ! D1    D(5,1,2,3)             -1.6749         -DE/DX =    0.0                 !
 ! D2    D(5,1,2,8)           -146.6737         -DE/DX =    0.0                 !
 ! D3    D(9,1,2,3)            142.5739         -DE/DX =    0.0                 !
 ! D4    D(9,1,2,8)             -2.4249         -DE/DX =    0.0                 !
 ! D5    D(2,1,5,4)              0.2531         -DE/DX =    0.0                 !
 ! D6    D(9,1,5,4)           -138.2203         -DE/DX =    0.0                 !
 ! D7    D(2,1,9,10)             8.1752         -DE/DX =    0.0                 !
 ! D8    D(2,1,9,11)          -173.0946         -DE/DX =    0.0                 !
 ! D9    D(5,1,9,10)           147.7622         -DE/DX =    0.0                 !
 ! D10   D(5,1,9,11)           -33.5076         -DE/DX =    0.0                 !
 ! D11   D(1,2,3,4)              2.3885         -DE/DX =    0.0                 !
 ! D12   D(1,2,3,6)            179.4237         -DE/DX =    0.0                 !
 ! D13   D(8,2,3,4)            109.6489         -DE/DX =    0.0                 !
 ! D14   D(8,2,3,6)            -73.3158         -DE/DX =    0.0                 !
 ! D15   D(1,2,8,10)            -5.5845         -DE/DX =    0.0                 !
 ! D16   D(3,2,8,10)          -117.2288         -DE/DX =    0.0                 !
 ! D17   D(2,3,4,5)             -2.4779         -DE/DX =    0.0                 !
 ! D18   D(2,3,4,7)            177.2667         -DE/DX =    0.0                 !
 ! D19   D(6,3,4,5)           -179.1901         -DE/DX =    0.0                 !
 ! D20   D(6,3,4,7)              0.5545         -DE/DX =    0.0                 !
 ! D21   D(3,4,5,1)              1.3285         -DE/DX =    0.0                 !
 ! D22   D(7,4,5,1)           -178.4382         -DE/DX =    0.0                 !
 ! D23   D(2,8,10,9)            10.5183         -DE/DX =    0.0                 !
 ! D24   D(1,9,10,8)            -9.1717         -DE/DX =    0.0                 !
 ! D25   D(11,9,10,8)          172.1688         -DE/DX =    0.0                 !
 --------------------------------------------------------------------------------
 GradGradGradGradGradGradGradGradGradGradGradGradGradGradGradGradGradGrad


 ----------------------------------------------------------------------

 Electric dipole moment (input orientation):
 (Debye = 10**-18 statcoulomb cm , SI units = C m)
                  (au)            (Debye)         (10**-30 SI)
   Tot        0.322369D+01      0.819380D+01      0.273316D+02
   x         -0.295196D+01     -0.750313D+01     -0.250278D+02
   y          0.126258D+01      0.320915D+01      0.107046D+02
   z         -0.289819D+00     -0.736646D+00     -0.245719D+01

 Dipole polarizability, Alpha (input orientation).
 (esu units = cm**3 , SI units = C**2 m**2 J**-1)
 Alpha(0;0):
               (au)            (10**-24 esu)      (10**-40 SI)
   iso        0.102592D+03      0.152026D+02      0.169151D+02
   aniso      0.649762D+02      0.962848D+01      0.107131D+02
   xx         0.134656D+03      0.199539D+02      0.222017D+02
   yx        -0.358751D+01     -0.531614D+00     -0.591501D+00
   yy         0.111431D+03      0.165123D+02      0.183724D+02
   zx         0.217466D+01      0.322251D+00      0.358553D+00
   zy         0.332969D+00      0.493409D-01      0.548991D-01
   zz         0.616898D+02      0.914149D+01      0.101713D+02

 ----------------------------------------------------------------------

 Dipole orientation:
     7          0.56402283         -0.53039816         -0.22005038
     7          1.13019560          0.97215516          1.89318929
     6         -0.05099052         -0.26576651          3.83664737
     6         -1.15443592         -2.43632177          2.89767586
     7         -0.84502950         -2.65554288          0.36388318
     1          0.04583003          0.42330262          5.75411754
     1         -2.16512998         -3.87723484          3.93526380
     1          1.00390432          2.95883918          0.48331523
     6          0.14343866          0.99690274         -2.34072004
     8          0.72674939          3.33522751         -1.79019250
     8         -0.61507535          0.16406994         -4.38356266

 Electric dipole moment (dipole orientation):
 (Debye = 10**-18 statcoulomb cm , SI units = C m)
                  (au)            (Debye)         (10**-30 SI)
   Tot        0.322369D+01      0.819380D+01      0.273316D+02
   x          0.000000D+00      0.000000D+00      0.000000D+00
   y          0.000000D+00      0.000000D+00      0.000000D+00
   z          0.322369D+01      0.819380D+01      0.273316D+02

 Dipole polarizability, Alpha (dipole orientation).
 (esu units = cm**3 , SI units = C**2 m**2 J**-1)
 Alpha(0;0):
               (au)            (10**-24 esu)      (10**-40 SI)
   iso        0.102592D+03      0.152026D+02      0.169151D+02
   aniso      0.649762D+02      0.962848D+01      0.107131D+02
   xx         0.701966D+02      0.104021D+02      0.115739D+02
   yx         0.186871D+02      0.276914D+01      0.308109D+01
   yy         0.104168D+03      0.154361D+02      0.171750D+02
   zx         0.187516D+01      0.277869D+00      0.309171D+00
   zy        -0.732767D+01     -0.108585D+01     -0.120817D+01
   zz         0.133411D+03      0.197695D+02      0.219965D+02

 ----------------------------------------------------------------------
 1\1\GINC-NODE2\Freq\UM062X\6-31+G(d,p)\C3H3N3O2(1-,2)\GONGKE2021\01-Ju
 l-2023\0\\#N Geom=AllCheck Guess=TCheck SCRF=Check GenChk UM062X/6-31+
 G(d,p) Freq\\RC\\-1,2\N,0.0194974171,-0.1613568249,0.3937065135\N,-0.6
 676257455,1.0557913869,0.2561097034\C,-1.9166768055,0.667598415,-0.152
 1540499\C,-1.9602317388,-0.7121273066,-0.1923231966\N,-0.7652640662,-1
 .2692017428,0.1235855079\H,-2.6981068348,1.3883751797,-0.3392735157\H,
 -2.8055582468,-1.3418266935,-0.4328037653\H,0.4245942633,1.6113648384,
 -0.1497640082\C,1.34810525,-0.0165914674,-0.025748063\O,1.5932287013,1
 .2479780763,-0.2539128847\O,2.132770356,-0.9645914211,-0.1235067014\\V
 ersion=ES64L-G16RevA.03\State=2-A\HF=-430.743619\S2=0.763462\S2-1=0.\S
 2A=0.75006\RMSD=3.852e-09\RMSF=2.164e-05\ZeroPoint=0.067533\Thermal=0.
 0733385\Dipole=-2.9519603,1.2625752,-0.289819\DipoleDeriv=-1.7355989,0
 .0438265,-0.0803795,-0.2402506,-0.0217997,0.0962026,0.6356627,0.084353
 5,-0.3886151,-0.8785493,-0.7175936,0.0710235,-0.3088663,-1.0239313,-0.
 2359051,0.0793702,-0.4072298,-0.3050341,-0.0473473,0.4951786,0.1647789
 ,-0.1149634,0.1167727,0.1000049,0.1237851,0.3157894,-0.1970442,0.02492
 98,-0.5012493,0.1183781,0.1441511,0.5821823,-0.0003838,0.0387273,-0.13
 80929,-0.1294121,-0.1826638,0.5756601,0.1288555,0.1283967,-0.8582793,0
 .1108471,-0.0889577,0.1510439,-0.2654012,0.072721,0.0578501,-0.045402,
 0.0685767,0.1017071,0.0103093,-0.0436078,-0.0327025,0.2561578,0.040747
 9,-0.0656201,-0.0442355,-0.0867205,0.1050167,-0.0242803,-0.0657611,-0.
 0102725,0.2198241,1.790437,0.3904775,-0.1348002,0.0728491,0.4967509,0.
 0293003,-0.2145844,0.0837029,0.3955711,3.7707131,-0.5442046,-0.377342,
 -0.6923999,2.7764308,-0.178091,-0.8197346,-0.1574051,0.6958184,-1.7772
 717,-0.3937629,0.1196372,-0.2662101,-1.7182448,0.1566108,0.1184878,0.1
 664335,-0.6125673,-2.0781178,0.6594377,0.079486,1.2954373,-1.5566055,-
 0.0646147,0.2366125,-0.0556204,-0.6692975\Polar=134.6556588,-3.5875105
 ,111.4305235,2.174657,0.3329686,61.689809\Quadrupole=-3.0869671,-1.392
 8118,4.4797789,1.0176157,2.9394087,-0.037871\PG=C01 [X(C3H3N3O2)]\NIma
 g=1\\0.72822862,0.04466748,0.56635277,-0.00427000,0.00033983,0.0978521
 6,-0.11354557,0.05913605,0.00379025,0.56439558,0.02677864,-0.17476442,
 -0.01777522,0.06297748,0.41435150,-0.01031789,0.03438584,-0.03791637,0
 .07386569,0.00634828,0.11415230,-0.08402958,0.03572819,-0.02059006,-0.
 26677898,-0.05036125,-0.06976318,0.66327872,0.01391855,-0.00923147,0.0
 0135471,-0.08968626,-0.12739009,-0.01640370,-0.13655463,0.77239131,-0.
 02658154,0.00933773,-0.00524894,-0.07056412,-0.00834870,-0.06442047,0.
 15531201,-0.02025742,0.14671595,-0.09419597,-0.03058377,-0.02719043,-0
 .04142050,-0.03657406,-0.01604075,-0.07583539,-0.03564222,-0.00142959,
 0.68831754,-0.01331215,-0.00921137,0.00107294,-0.06096091,-0.02549120,
 -0.01728369,-0.02076442,-0.37577562,-0.01429004,0.15602631,0.73410033,
 -0.02952039,-0.01118153,-0.00209721,-0.02349379,-0.01325545,0.01132745
 ,-0.00028401,-0.01247013,-0.06279981,0.15919219,0.05511092,0.16618193,
 -0.12682624,-0.09226331,-0.00036216,0.00135390,-0.00664412,-0.00286663
 ,-0.02943814,0.08655862,-0.01484208,-0.25339513,0.08741689,-0.05392080
 ,0.44756071,-0.01685719,-0.18689266,-0.00624885,-0.01403403,-0.0689685
 3,-0.01075459,0.04391101,-0.04889312,0.01298766,0.06366936,-0.13802586
 ,0.01429997,-0.05053681,0.42378586,-0.02223712,-0.05119887,-0.03146226
 ,0.00210720,0.00190517,-0.00274204,-0.01687118,0.02085498,0.02018576,-
 0.05339647,0.01926973,-0.06415155,0.08669819,-0.00597357,0.08406412,-0
 .00466522,-0.00220775,-0.00170988,-0.01401047,0.01972201,-0.00200067,-
 0.21399557,0.14983416,-0.04814301,0.00821694,-0.00414504,0.00216495,0.
 00110261,-0.00312444,-0.00154522,0.22385927,-0.00477382,-0.00122770,-0
 .00128158,-0.00842481,0.01280646,-0.00210173,0.15530115,-0.20225819,0.
 03578122,0.02131017,-0.00501280,0.00532273,-0.00033609,-0.00374468,-0.
 00021938,-0.16218539,0.19861563,-0.00201396,-0.00102855,0.00511096,-0.
 00484040,0.00557063,-0.00518892,-0.04489792,0.03332069,-0.03596324,0.0
 0074704,0.00017578,0.00086657,0.00000980,-0.00171646,0.00584269,0.0512
 8240,-0.03747242,0.03194487,-0.00563209,0.00095820,-0.00172443,0.00083
 406,0.00293604,-0.00198383,0.00665168,0.00367186,0.00175426,-0.2381904
 8,-0.13830499,-0.05882312,-0.01547892,-0.01674951,-0.00365847,-0.00049
 768,-0.00056410,0.00056037,0.25163170,0.00590936,-0.00022145,0.0008198
 3,-0.00079297,-0.00525004,0.00065333,-0.02242428,-0.00316224,-0.006481
 61,-0.14280395,-0.17011502,-0.04129850,0.01023967,0.01307863,0.0034825
 9,0.00056996,0.00020573,0.00023902,0.14915322,0.16409692,-0.00308055,0
 .00132351,0.00676534,-0.00043074,-0.00034379,0.00656938,0.00024847,0.0
 0022851,0.00125554,-0.05798516,-0.04008873,-0.04875922,-0.00346968,-0.
 00341065,-0.00611396,0.00059770,-0.00001792,-0.00238444,0.06460067,0.0
 4298939,0.04245047,-0.00922304,-0.02731664,0.01633798,0.04845909,-0.00
 189795,-0.00312458,-0.02266884,0.00497098,-0.01742821,0.00721773,0.004
 85182,0.00425164,-0.00202706,0.01502579,-0.00106158,0.00030212,-0.0006
 9531,-0.00036912,-0.00075212,0.00165288,0.00075098,-0.07137095,-0.0138
 5409,-0.03282892,0.01047860,-0.00781681,-0.03513609,0.01278478,-0.0015
 9667,-0.00171072,-0.00567359,0.00233274,0.00014973,0.00142008,0.000549
 03,-0.00111327,0.00094511,0.00027353,-0.00012754,0.00013868,-0.0000972
 5,0.00007423,0.00044306,-0.00615915,0.14208948,0.00322291,0.01146940,-
 0.00202653,-0.00140859,0.02177083,-0.03003181,0.00025803,-0.01167518,0
 .00375912,-0.00318920,-0.00166911,0.00017012,-0.00030206,0.00009679,-0
 .00104635,-0.00000230,0.00026745,-0.00038934,0.00035711,-0.00111644,-0
 .00002246,0.01527329,-0.02365992,0.05148829,-0.19825891,0.00692616,-0.
 00856241,-0.05982629,0.00897949,0.01285923,0.01897467,0.01015783,0.007
 84794,0.01184005,-0.01064865,0.00528124,-0.02707718,-0.02038184,0.0109
 5885,0.00119473,0.00024422,0.00022939,0.00200276,-0.00049509,0.0008641
 5,0.03257997,0.03224374,-0.00823763,0.63445636,-0.02310544,-0.11068120
 ,-0.00204828,-0.00201572,-0.00355469,0.00145301,0.00537287,-0.00823619
 ,0.00339526,-0.00251188,-0.00856229,-0.00099832,-0.02836977,-0.0027540
 2,0.00985031,0.00102781,0.00085263,0.00079487,-0.00051104,0.00047975,-
 0.00104005,0.07946354,-0.02963499,-0.00680124,-0.20175868,0.80623973,0
 .04982135,-0.00884675,-0.05240486,0.00523165,-0.00065099,-0.00181741,-
 0.00558163,0.00420938,-0.00400699,-0.00370584,-0.00506408,-0.00183992,
 -0.01459037,0.00945110,-0.00582073,-0.00121321,-0.00045513,-0.00003537
 ,-0.00183524,0.00082890,0.00002248,-0.01790106,-0.00083570,0.00782619,
 -0.06282678,-0.01444179,0.21787860,-0.03237862,-0.03660080,0.01210016,
 -0.11509371,-0.02807094,0.01897606,0.01014122,-0.00663406,0.01556505,-
 0.00823212,-0.00546270,-0.00352752,-0.00189239,-0.00074225,0.00405781,
 -0.00052915,0.00041657,-0.00012626,0.00012641,-0.00095938,-0.00172429,
 0.02061797,-0.00270112,-0.00759718,-0.13361816,-0.05858068,0.02278550,
 0.23888726,-0.05010480,-0.04541366,0.04063687,0.05231517,0.01814974,-0
 .00866017,-0.01258323,-0.00007482,-0.00699461,0.00016186,0.00137181,0.
 00023527,-0.00331260,0.00656394,-0.00418477,-0.00021148,-0.00025225,-0
 .00018406,-0.00090728,0.00080538,-0.00055364,-0.05023486,-0.04040787,0
 .00865202,-0.05455388,-0.27787380,0.03526186,0.09374076,0.43142432,0.0
 2269738,0.02793782,0.01322583,0.01466742,0.00115377,0.00693762,0.00030
 522,0.00222812,-0.00083052,0.00157675,0.00328413,0.00076208,0.00304082
 ,-0.00811821,0.00139966,0.00013002,-0.00007569,0.00001101,0.00051118,-
 0.00006925,0.00015548,0.00060135,0.00203492,-0.03142226,0.01748608,0.0
 3682679,-0.08347755,-0.05442489,-0.07140654,0.07354237,-0.05947337,0.0
 4155618,0.03218098,-0.00436710,0.00215466,0.00039655,-0.00629978,-0.00
 059483,-0.00149072,-0.00432265,0.00530382,-0.00132039,0.00611782,-0.00
 018010,-0.00505201,-0.00097758,-0.00029259,-0.00058134,-0.00069530,-0.
 00004941,-0.00037155,-0.00313488,-0.00317393,0.00162563,-0.28226800,0.
 23098899,0.02981564,0.02197129,0.02569034,-0.00659134,0.33344955,0.030
 73346,0.00412010,-0.02734885,0.00930281,-0.00475264,-0.00042136,0.0039
 7125,0.00434115,0.00054410,0.00461545,-0.00342771,0.00281497,-0.003301
 51,0.00696371,0.00526870,0.00044663,0.00014270,0.00016181,0.00041486,0
 .00000812,0.00047031,-0.01966111,-0.00135403,0.00266539,0.22928670,-0.
 36627493,-0.01945680,0.04559460,-0.09429279,0.00620416,-0.30140313,0.4
 5452634,0.02227979,-0.01253841,0.00820189,0.00107543,0.00362548,0.0031
 3028,0.00186427,-0.00138995,0.00135360,0.00142148,-0.00051785,0.000339
 56,0.00060498,-0.00061320,-0.00015536,0.00043923,0.00025244,0.00018522
 ,0.00024150,-0.00004725,0.00006138,0.00266931,0.00192397,0.00169502,0.
 02409994,-0.02699057,-0.07632443,-0.00608445,0.00719777,0.01969629,-0.
 04861147,0.02909758,0.04181655\\0.00000847,-0.00000892,0.00001209,-0.0
 0001963,0.00001071,0.00001923,0.00001955,-0.00002682,-0.00001752,0.000
 02760,-0.00000979,0.00000757,-0.00001688,0.00001826,0.00000086,-0.0000
 0806,-0.00001452,0.00000296,0.00001055,-0.00001695,0.00000293,-0.00005
 149,0.00000798,-0.00003081,-0.00001685,0.00005226,-0.00002528,0.000043
 17,-0.00002662,0.00002282,0.00000357,0.00001440,0.00000516\\\@


 FROM THE ASHES OF OUR DESPAIR GROW THE FLOWERS OF TOMORROW.
 Job cpu time:       0 days  0 hours 43 minutes  3.9 seconds.
 Elapsed time:       0 days  0 hours  2 minutes 10.2 seconds.
 File lengths (MBytes):  RWF=     91 Int=      0 D2E=      0 Chk=      9 Scr=      1
 Normal termination of Gaussian 16 at Sat Jul  1 04:50:49 2023.
