 Entering Gaussian System, Link 0=/opt/soft/g16/g16
 Initial command:
 /opt/soft/g16/l1.exe "/scratch/gongke2021/sidanzuo-TS/Gau-23692.inp" -scrdir="/scratch/gongke2021/sidanzuo-TS/"
 Entering Link 1 = /opt/soft/g16/l1.exe PID=     23693.
  
 Copyright (c) 1988,1990,1992,1993,1995,1998,2003,2009,2016,
            Gaussian, Inc.  All Rights Reserved.
  
 This is part of the Gaussian(R) 16 program.  It is based on
 the Gaussian(R) 09 system (copyright 2009, Gaussian, Inc.),
 the Gaussian(R) 03 system (copyright 2003, Gaussian, Inc.),
 the Gaussian(R) 98 system (copyright 1998, Gaussian, Inc.),
 the Gaussian(R) 94 system (copyright 1995, Gaussian, Inc.),
 the Gaussian 92(TM) system (copyright 1992, Gaussian, Inc.),
 the Gaussian 90(TM) system (copyright 1990, Gaussian, Inc.),
 the Gaussian 88(TM) system (copyright 1988, Gaussian, Inc.),
 the Gaussian 86(TM) system (copyright 1986, Carnegie Mellon
 University), and the Gaussian 82(TM) system (copyright 1983,
 Carnegie Mellon University). Gaussian is a federally registered
 trademark of Gaussian, Inc.
  
 This software contains proprietary and confidential information,
 including trade secrets, belonging to Gaussian, Inc.
  
 This software is provided under written license and may be
 used, copied, transmitted, or stored only in accord with that
 written license.
  
 The following legend is applicable only to US Government
 contracts under FAR:
  
                    RESTRICTED RIGHTS LEGEND
  
 Use, reproduction and disclosure by the US Government is
 subject to restrictions as set forth in subparagraphs (a)
 and (c) of the Commercial Computer Software - Restricted
 Rights clause in FAR 52.227-19.
  
 Gaussian, Inc.
 340 Quinnipiac St., Bldg. 40, Wallingford CT 06492
  
  
 ---------------------------------------------------------------
 Warning -- This program may not be used in any manner that
 competes with the business of Gaussian, Inc. or will provide
 assistance to any competitor of Gaussian, Inc.  The licensee
 of this program is prohibited from giving any competitor of
 Gaussian, Inc. access to this program.  By using this program,
 the user acknowledges that Gaussian, Inc. is engaged in the
 business of creating and licensing software in the field of
 computational chemistry and represents and warrants to the
 licensee that it is not a competitor of Gaussian, Inc. and that
 it will not use this program in any manner prohibited above.
 ---------------------------------------------------------------
  

 Cite this work as:
 Gaussian 16, Revision A.03,
 M. J. Frisch, G. W. Trucks, H. B. Schlegel, G. E. Scuseria, 
 M. A. Robb, J. R. Cheeseman, G. Scalmani, V. Barone, 
 G. A. Petersson, H. Nakatsuji, X. Li, M. Caricato, A. V. Marenich, 
 J. Bloino, B. G. Janesko, R. Gomperts, B. Mennucci, H. P. Hratchian, 
 J. V. Ortiz, A. F. Izmaylov, J. L. Sonnenberg, D. Williams-Young, 
 F. Ding, F. Lipparini, F. Egidi, J. Goings, B. Peng, A. Petrone, 
 T. Henderson, D. Ranasinghe, V. G. Zakrzewski, J. Gao, N. Rega, 
 G. Zheng, W. Liang, M. Hada, M. Ehara, K. Toyota, R. Fukuda, 
 J. Hasegawa, M. Ishida, T. Nakajima, Y. Honda, O. Kitao, H. Nakai, 
 T. Vreven, K. Throssell, J. A. Montgomery, Jr., J. E. Peralta, 
 F. Ogliaro, M. J. Bearpark, J. J. Heyd, E. N. Brothers, K. N. Kudin, 
 V. N. Staroverov, T. A. Keith, R. Kobayashi, J. Normand, 
 K. Raghavachari, A. P. Rendell, J. C. Burant, S. S. Iyengar, 
 J. Tomasi, M. Cossi, J. M. Millam, M. Klene, C. Adamo, R. Cammi, 
 J. W. Ochterski, R. L. Martin, K. Morokuma, O. Farkas, 
 J. B. Foresman, and D. J. Fox, Gaussian, Inc., Wallingford CT, 2016.
 
 ******************************************
 Gaussian 16:  ES64L-G16RevA.03 25-Dec-2016
                13-Nov-2023 
 ******************************************
 %mem=10GB
 %nprocshared=24
 Will use up to   24 processors via shared memory.
 ----------------------------------------------------------------------
 # opt=(calcfc,ts,noeigentest) freq 6-31+g(d,p) integral=grid=ultrafine
  m062x
 ----------------------------------------------------------------------
 1/5=1,10=4,11=1,18=20,26=4,38=1/1,3;
 2/9=110,12=2,17=6,18=5,40=1/2;
 3/5=1,6=6,7=111,11=2,25=1,30=1,71=2,74=-55,75=-5,140=1/1,2,3;
 4//1;
 5/5=2,38=5/2;
 8/6=4,10=90,11=11/1;
 11/6=1,8=1,9=11,15=111,16=1/1,2,10;
 10/6=1,13=1/2;
 6/7=2,8=2,9=2,10=2,28=1/1;
 7/10=1,18=20,25=1/1,2,3,16;
 1/5=1,10=4,11=1,18=20,26=4/3(2);
 2/9=110/2;
 99//99;
 2/9=110/2;
 3/5=1,6=6,7=111,11=2,25=1,30=1,71=1,74=-55,75=-5/1,2,3;
 4/5=5,16=3,69=1/1;
 5/5=2,38=5/2;
 7//1,2,3,16;
 1/5=1,11=1,18=20,26=4/3(-5);
 2/9=110/2;
 6/7=2,8=2,9=2,10=2,19=2,28=1/1;
 99/9=1/99;
 -------------------
 Title Card Required
 -------------------
 Symbolic Z-matrix:
 Charge = -1 Multiplicity = 2
 N                     0.62361  -0.9229   -0.00037 
 N                     0.33755   0.37862   0.00878 
 N                     1.418     1.0943    0.00513 
 N                     2.45297   0.27985  -0.00422 
 C                     1.95085  -0.95817  -0.00854 
 C                    -1.19389   1.04891  -0.00321 
 O                    -1.12965   2.23226   0.03732 
 O                    -2.03734   0.14441  -0.05162 
 H                    -1.75702  -2.82214   0.6118 
 H                     2.53391  -1.86568  -0.01877 
 O                    -1.436    -2.12412   0.02765 
 H                    -0.38563  -1.56697   0.00427 
 H                    -1.76121  -0.99259  -0.06489 
 
 Add virtual bond connecting atoms H13        and O8         Dist= 2.21D+00.
 Add virtual bond connecting atoms H12        and O11        Dist= 2.25D+00.
 Add virtual bond connecting atoms H13        and O11        Dist= 2.23D+00.

 GradGradGradGradGradGradGradGradGradGradGradGradGradGradGradGradGradGrad
 Berny optimization.
 Initialization pass.
                           ----------------------------
                           !    Initial Parameters    !
                           ! (Angstroms and Degrees)  !
 --------------------------                            --------------------------
 ! Name  Definition              Value          Derivative Info.                !
 --------------------------------------------------------------------------------
 ! R1    R(1,2)                  1.3326         calculate D2E/DX2 analytically  !
 ! R2    R(1,5)                  1.3277         calculate D2E/DX2 analytically  !
 ! R3    R(1,12)                 1.1973         calculate D2E/DX2 analytically  !
 ! R4    R(2,3)                  1.296          calculate D2E/DX2 analytically  !
 ! R5    R(2,6)                  1.6717         calculate D2E/DX2 analytically  !
 ! R6    R(3,4)                  1.317          calculate D2E/DX2 analytically  !
 ! R7    R(4,5)                  1.336          calculate D2E/DX2 analytically  !
 ! R8    R(5,10)                 1.0787         calculate D2E/DX2 analytically  !
 ! R9    R(6,7)                  1.1858         calculate D2E/DX2 analytically  !
 ! R10   R(6,8)                  1.2377         calculate D2E/DX2 analytically  !
 ! R11   R(8,13)                 1.1701         calculate D2E/DX2 analytically  !
 ! R12   R(9,11)                 0.9652         calculate D2E/DX2 analytically  !
 ! R13   R(11,12)                1.1892         calculate D2E/DX2 analytically  !
 ! R14   R(11,13)                1.181          calculate D2E/DX2 analytically  !
 ! A1    A(2,1,5)              103.9203         calculate D2E/DX2 analytically  !
 ! A2    A(2,1,12)             110.147          calculate D2E/DX2 analytically  !
 ! A3    A(5,1,12)             145.9325         calculate D2E/DX2 analytically  !
 ! A4    A(1,2,3)              111.1221         calculate D2E/DX2 analytically  !
 ! A5    A(1,2,6)              126.0287         calculate D2E/DX2 analytically  !
 ! A6    A(3,2,6)              122.8394         calculate D2E/DX2 analytically  !
 ! A7    A(2,3,4)              108.2804         calculate D2E/DX2 analytically  !
 ! A8    A(3,4,5)              106.1249         calculate D2E/DX2 analytically  !
 ! A9    A(1,5,4)              110.5522         calculate D2E/DX2 analytically  !
 ! A10   A(1,5,10)             124.2444         calculate D2E/DX2 analytically  !
 ! A11   A(4,5,10)             125.2033         calculate D2E/DX2 analytically  !
 ! A12   A(2,6,7)              110.5027         calculate D2E/DX2 analytically  !
 ! A13   A(2,6,8)              109.3625         calculate D2E/DX2 analytically  !
 ! A14   A(7,6,8)              140.1348         calculate D2E/DX2 analytically  !
 ! A15   A(6,8,13)             123.3488         calculate D2E/DX2 analytically  !
 ! A16   A(9,11,12)            130.1289         calculate D2E/DX2 analytically  !
 ! A17   A(9,11,13)            130.4498         calculate D2E/DX2 analytically  !
 ! A18   A(12,11,13)            78.0417         calculate D2E/DX2 analytically  !
 ! A19   L(1,12,11,6,-1)       175.3981         calculate D2E/DX2 analytically  !
 ! A20   L(8,13,11,1,-1)       177.5174         calculate D2E/DX2 analytically  !
 ! A21   L(1,12,11,6,-2)       180.9296         calculate D2E/DX2 analytically  !
 ! A22   L(8,13,11,1,-2)       174.7646         calculate D2E/DX2 analytically  !
 ! D1    D(5,1,2,3)              0.0595         calculate D2E/DX2 analytically  !
 ! D2    D(5,1,2,6)            178.9401         calculate D2E/DX2 analytically  !
 ! D3    D(12,1,2,3)           179.944          calculate D2E/DX2 analytically  !
 ! D4    D(12,1,2,6)            -1.1754         calculate D2E/DX2 analytically  !
 ! D5    D(2,1,5,4)              0.0121         calculate D2E/DX2 analytically  !
 ! D6    D(2,1,5,10)          -179.9003         calculate D2E/DX2 analytically  !
 ! D7    D(12,1,5,4)          -179.7943         calculate D2E/DX2 analytically  !
 ! D8    D(12,1,5,10)            0.2933         calculate D2E/DX2 analytically  !
 ! D9    D(2,1,11,9)          -126.7886         calculate D2E/DX2 analytically  !
 ! D10   D(2,1,11,13)            5.0963         calculate D2E/DX2 analytically  !
 ! D11   D(5,1,11,9)            52.1633         calculate D2E/DX2 analytically  !
 ! D12   D(5,1,11,13)         -175.9519         calculate D2E/DX2 analytically  !
 ! D13   D(1,2,3,4)             -0.1093         calculate D2E/DX2 analytically  !
 ! D14   D(6,2,3,4)           -179.0319         calculate D2E/DX2 analytically  !
 ! D15   D(1,2,6,7)            178.5404         calculate D2E/DX2 analytically  !
 ! D16   D(1,2,6,8)             -1.4463         calculate D2E/DX2 analytically  !
 ! D17   D(3,2,6,7)             -2.7023         calculate D2E/DX2 analytically  !
 ! D18   D(3,2,6,8)            177.311          calculate D2E/DX2 analytically  !
 ! D19   D(2,3,4,5)              0.1111         calculate D2E/DX2 analytically  !
 ! D20   D(3,4,5,1)             -0.0763         calculate D2E/DX2 analytically  !
 ! D21   D(3,4,5,10)           179.8351         calculate D2E/DX2 analytically  !
 ! D22   D(2,6,8,13)             1.0499         calculate D2E/DX2 analytically  !
 ! D23   D(7,6,8,13)          -178.9306         calculate D2E/DX2 analytically  !
 ! D24   D(6,8,11,9)           127.0871         calculate D2E/DX2 analytically  !
 ! D25   D(6,8,11,12)           -4.5638         calculate D2E/DX2 analytically  !
 --------------------------------------------------------------------------------
 Trust Radius=3.00D-01 FncErr=1.00D-07 GrdErr=1.00D-06 EigMax=2.50D+02 EigMin=1.00D-04
 Number of steps in this run=     71 maximum allowed number of steps=    100.
 Search for a saddle point of order  1.
 GradGradGradGradGradGradGradGradGradGradGradGradGradGradGradGradGradGrad

                          Input orientation:                          
 ---------------------------------------------------------------------
 Center     Atomic      Atomic             Coordinates (Angstroms)
 Number     Number       Type             X           Y           Z
 ---------------------------------------------------------------------
      1          7           0        0.623606   -0.922895   -0.000372
      2          7           0        0.337546    0.378623    0.008779
      3          7           0        1.418004    1.094300    0.005128
      4          7           0        2.452966    0.279851   -0.004217
      5          6           0        1.950849   -0.958172   -0.008539
      6          6           0       -1.193890    1.048910   -0.003211
      7          8           0       -1.129646    2.232264    0.037317
      8          8           0       -2.037343    0.144407   -0.051623
      9          1           0       -1.757020   -2.822137    0.611799
     10          1           0        2.533914   -1.865681   -0.018774
     11          8           0       -1.435997   -2.124115    0.027653
     12          1           0       -0.385631   -1.566971    0.004272
     13          1           0       -1.761209   -0.992591   -0.064892
 ---------------------------------------------------------------------
                    Distance matrix (angstroms):
                    1          2          3          4          5
     1  N    0.000000
     2  N    1.332615   0.000000
     3  N    2.167988   1.295992   0.000000
     4  N    2.189331   2.117765   1.317027   0.000000
     5  C    1.327737   2.095249   2.120555   1.335979   0.000000
     6  C    2.681663   1.671743   2.612302   3.727065   3.730655
     7  O    3.609756   2.364202   2.790433   4.080288   4.435136
     8  O    2.867474   2.387175   3.583984   4.492601   4.138020
     9  H    3.106324   3.872428   5.078120   5.265528   4.196126
    10  H    2.130366   3.140333   3.163434   2.147108   1.078722
    11  O    2.384466   3.067492   4.301630   4.572100   3.582102
    12  H    1.197253   2.075654   3.214881   3.386511   2.414527
    13  H    2.386706   2.508073   3.803605   4.402506   3.712645
                    6          7          8          9         10
     6  C    0.000000
     7  O    1.185789   0.000000
     8  O    1.237692   2.278370   0.000000
     9  H    3.959843   5.125485   3.052719   0.000000
    10  H    4.731977   5.497088   4.993788   4.441232   0.000000
    11  O    3.182398   4.367148   2.348211   0.965151   3.978584
    12  H    2.737913   3.871542   2.379094   1.955821   2.934877
    13  H    2.119760   3.287706   1.170124   1.950683   4.383206
                   11         12         13
    11  O    0.000000
    12  H    1.189212   0.000000
    13  H    1.180963   1.492284   0.000000
 Stoichiometry    C2H4N4O3(1-,2)
 Framework group  C1[X(C2H4N4O3)]
 Deg. of freedom    33
 Full point group                 C1      NOp   1
 Largest Abelian subgroup         C1      NOp   1
 Largest concise Abelian subgroup C1      NOp   1
                         Standard orientation:                         
 ---------------------------------------------------------------------
 Center     Atomic      Atomic             Coordinates (Angstroms)
 Number     Number       Type             X           Y           Z
 ---------------------------------------------------------------------
      1          7           0       -0.656924    0.914632   -0.017516
      2          7           0       -0.320772   -0.374680    0.005724
      3          7           0       -1.372790   -1.131470    0.016831
      4          7           0       -2.438467   -0.357703    0.003517
      5          6           0       -1.984564    0.898611   -0.018591
      6          6           0        1.235325   -0.985525   -0.006847
      7          8           0        1.217039   -2.169889    0.048324
      8          8           0        2.042955   -0.049840   -0.070949
      9          1           0        1.651727    2.911614    0.558195
     10          1           0       -2.602286    1.782773   -0.036477
     11          8           0        1.354870    2.194615   -0.015656
     12          1           0        0.326697    1.597145   -0.026362
     13          1           0        1.723053    1.075419   -0.096377
 ---------------------------------------------------------------------
 Rotational constants (GHZ):           2.2703896           1.6007788           0.9404016
 Standard basis: 6-31+G(d,p) (6D, 7F)
 There are   191 symmetry adapted cartesian basis functions of A   symmetry.
 There are   191 symmetry adapted basis functions of A   symmetry.
   191 basis functions,   316 primitive gaussians,   191 cartesian basis functions
    35 alpha electrons       34 beta electrons
       nuclear repulsion energy       465.3337181684 Hartrees.
 NAtoms=   13 NActive=   13 NUniq=   13 SFac= 1.00D+00 NAtFMM=   60 NAOKFM=F Big=F
 Integral buffers will be    131072 words long.
 Raffenetti 2 integral format.
 Two-electron integral symmetry is turned on.
 One-electron integrals computed using PRISM.
 NBasis=   191 RedAO= T EigKep=  2.35D-05  NBF=   191
 NBsUse=   191 1.00D-06 EigRej= -1.00D+00 NBFU=   191
 ExpMin= 4.38D-02 ExpMax= 5.48D+03 ExpMxC= 8.25D+02 IAcc=3 IRadAn=         5 AccDes= 0.00D+00
 Harris functional with IExCor= 1009 and IRadAn=       5 diagonalized for initial guess.
 HarFok:  IExCor= 1009 AccDes= 0.00D+00 IRadAn=         5 IDoV= 1 UseB2=F ITyADJ=14
 ICtDFT=  3500011 ScaDFX=  1.000000  1.000000  1.000000  1.000000
 FoFCou: FMM=F IPFlag=           0 FMFlag=      100000 FMFlg1=           0
         NFxFlg=           0 DoJE=T BraDBF=F KetDBF=T FulRan=T
         wScrn=  0.000000 ICntrl=       500 IOpCl=  0 I1Cent=   200000004 NGrid=           0
         NMat0=    1 NMatS0=      1 NMatT0=    0 NMatD0=    1 NMtDS0=    0 NMtDT0=    0
 Petite list used in FoFCou.
 Initial guess <Sx>= 0.0000 <Sy>= 0.0000 <Sz>= 0.5000 <S**2>= 0.7500 S= 0.5000
 Requested convergence on RMS density matrix=1.00D-08 within 128 cycles.
 Requested convergence on MAX density matrix=1.00D-06.
 Requested convergence on             energy=1.00D-06.
 No special actions if energy rises.
 Restarting incremental Fock formation.
 SCF Done:  E(UM062X) =  -523.047618278     A.U. after   21 cycles
            NFock= 21  Conv=0.57D-08     -V/T= 2.0069
 <Sx>= 0.0000 <Sy>= 0.0000 <Sz>= 0.5000 <S**2>= 0.7625 S= 0.5062
 <L.S>=  0.00000000000    
 Annihilation of the first spin contaminant:
 S**2 before annihilation     0.7625,   after     0.7501
 DoSCS=F DFT=T ScalE2(SS,OS)=  1.000000  1.000000
 Range of M.O.s used for correlation:     1   191
 NBasis=   191 NAE=    35 NBE=    34 NFC=     0 NFV=     0
 NROrb=    191 NOA=    35 NOB=    34 NVA=   156 NVB=   157

 **** Warning!!: The largest alpha MO coefficient is  0.64141844D+02


 **** Warning!!: The largest beta MO coefficient is  0.71098463D+02

 Symmetrizing basis deriv contribution to polar:
 IMax=3 JMax=2 DiffMx= 0.00D+00
 G2DrvN: will do    14 centers at a time, making    1 passes.
 Calling FoFCou, ICntrl=  3107 FMM=F I1Cent=   0 AccDes= 0.00D+00.
 End of G2Drv F.D. properties file   721 does not exist.
 End of G2Drv F.D. properties file   722 does not exist.
 End of G2Drv F.D. properties file   788 does not exist.
          IDoAtm=1111111111111
          Differentiating once with respect to nuclear coordinates.
 Keep R1 and R2 ints in memory in canonical form, NReq=360574310.
          There are    42 degrees of freedom in the 1st order CPHF.  IDoFFX=6 NUNeed=     0.
     36 vectors produced by pass  0 Test12= 2.57D-14 2.38D-09 XBig12= 3.42D-01 1.76D-01.
 AX will form    36 AO Fock derivatives at one time.
     36 vectors produced by pass  1 Test12= 2.57D-14 2.38D-09 XBig12= 3.95D-02 8.19D-02.
     36 vectors produced by pass  2 Test12= 2.57D-14 2.38D-09 XBig12= 3.66D-03 1.52D-02.
     36 vectors produced by pass  3 Test12= 2.57D-14 2.38D-09 XBig12= 6.84D-05 1.51D-03.
     36 vectors produced by pass  4 Test12= 2.57D-14 2.38D-09 XBig12= 1.17D-06 1.59D-04.
     36 vectors produced by pass  5 Test12= 2.57D-14 2.38D-09 XBig12= 1.59D-08 1.43D-05.
     36 vectors produced by pass  6 Test12= 2.57D-14 2.38D-09 XBig12= 1.62D-10 1.23D-06.
     29 vectors produced by pass  7 Test12= 2.57D-14 2.38D-09 XBig12= 1.15D-12 1.29D-07.
      9 vectors produced by pass  8 Test12= 2.57D-14 2.38D-09 XBig12= 9.98D-15 1.09D-08.
 InvSVY:  IOpt=1 It=  1 EMax= 1.11D-15
 Solved reduced A of dimension   290 with    36 vectors.
 End of Minotr F.D. properties file   721 does not exist.
 End of Minotr F.D. properties file   722 does not exist.
 End of Minotr F.D. properties file   788 does not exist.

 **********************************************************************

            Population analysis using the SCF density.

 **********************************************************************

 Orbital symmetries:
 Alpha Orbitals:
       Occupied  (A) (A) (A) (A) (A) (A) (A) (A) (A) (A) (A) (A)
                 (A) (A) (A) (A) (A) (A) (A) (A) (A) (A) (A) (A)
                 (A) (A) (A) (A) (A) (A) (A) (A) (A) (A) (A)
       Virtual   (A) (A) (A) (A) (A) (A) (A) (A) (A) (A) (A) (A)
                 (A) (A) (A) (A) (A) (A) (A) (A) (A) (A) (A) (A)
                 (A) (A) (A) (A) (A) (A) (A) (A) (A) (A) (A) (A)
                 (A) (A) (A) (A) (A) (A) (A) (A) (A) (A) (A) (A)
                 (A) (A) (A) (A) (A) (A) (A) (A) (A) (A) (A) (A)
                 (A) (A) (A) (A) (A) (A) (A) (A) (A) (A) (A) (A)
                 (A) (A) (A) (A) (A) (A) (A) (A) (A) (A) (A) (A)
                 (A) (A) (A) (A) (A) (A) (A) (A) (A) (A) (A) (A)
                 (A) (A) (A) (A) (A) (A) (A) (A) (A) (A) (A) (A)
                 (A) (A) (A) (A) (A) (A) (A) (A) (A) (A) (A) (A)
                 (A) (A) (A) (A) (A) (A) (A) (A) (A) (A) (A) (A)
                 (A) (A) (A) (A) (A) (A) (A) (A) (A) (A) (A) (A)
                 (A) (A) (A) (A) (A) (A) (A) (A) (A) (A) (A) (A)
 Beta  Orbitals:
       Occupied  (A) (A) (A) (A) (A) (A) (A) (A) (A) (A) (A) (A)
                 (A) (A) (A) (A) (A) (A) (A) (A) (A) (A) (A) (A)
                 (A) (A) (A) (A) (A) (A) (A) (A) (A) (A)
       Virtual   (A) (A) (A) (A) (A) (A) (A) (A) (A) (A) (A) (A)
                 (A) (A) (A) (A) (A) (A) (A) (A) (A) (A) (A) (A)
                 (A) (A) (A) (A) (A) (A) (A) (A) (A) (A) (A) (A)
                 (A) (A) (A) (A) (A) (A) (A) (A) (A) (A) (A) (A)
                 (A) (A) (A) (A) (A) (A) (A) (A) (A) (A) (A) (A)
                 (A) (A) (A) (A) (A) (A) (A) (A) (A) (A) (A) (A)
                 (A) (A) (A) (A) (A) (A) (A) (A) (A) (A) (A) (A)
                 (A) (A) (A) (A) (A) (A) (A) (A) (A) (A) (A) (A)
                 (A) (A) (A) (A) (A) (A) (A) (A) (A) (A) (A) (A)
                 (A) (A) (A) (A) (A) (A) (A) (A) (A) (A) (A) (A)
                 (A) (A) (A) (A) (A) (A) (A) (A) (A) (A) (A) (A)
                 (A) (A) (A) (A) (A) (A) (A) (A) (A) (A) (A) (A)
                 (A) (A) (A) (A) (A) (A) (A) (A) (A) (A) (A) (A)
                 (A)
 The electronic state is 2-A.
 Alpha  occ. eigenvalues --  -19.51536 -19.50105 -19.48136 -14.66443 -14.62798
 Alpha  occ. eigenvalues --  -14.61428 -14.61126 -10.56232 -10.43898  -1.09754
 Alpha  occ. eigenvalues --   -1.07008  -1.01219  -0.98123  -0.86882  -0.80418
 Alpha  occ. eigenvalues --   -0.59092  -0.57795  -0.55871  -0.52294  -0.44561
 Alpha  occ. eigenvalues --   -0.42051  -0.41541  -0.38950  -0.37721  -0.36829
 Alpha  occ. eigenvalues --   -0.29955  -0.27833  -0.25308  -0.23816  -0.22060
 Alpha  occ. eigenvalues --   -0.21613  -0.20842  -0.19967  -0.17521   0.03302
 Alpha virt. eigenvalues --    0.13651   0.15692   0.16822   0.17315   0.18600
 Alpha virt. eigenvalues --    0.18901   0.19969   0.22095   0.23311   0.24420
 Alpha virt. eigenvalues --    0.25619   0.26808   0.29510   0.29948   0.31163
 Alpha virt. eigenvalues --    0.32195   0.33596   0.34359   0.34473   0.35072
 Alpha virt. eigenvalues --    0.35877   0.37018   0.38329   0.38840   0.39745
 Alpha virt. eigenvalues --    0.39922   0.41088   0.41982   0.42125   0.43064
 Alpha virt. eigenvalues --    0.43623   0.43827   0.44898   0.45679   0.45950
 Alpha virt. eigenvalues --    0.47701   0.49599   0.50492   0.51126   0.53216
 Alpha virt. eigenvalues --    0.53914   0.55787   0.56991   0.59370   0.61444
 Alpha virt. eigenvalues --    0.63054   0.66828   0.70236   0.73362   0.86591
 Alpha virt. eigenvalues --    0.88768   0.94357   0.98982   1.00493   1.04974
 Alpha virt. eigenvalues --    1.06770   1.07964   1.10545   1.11754   1.13461
 Alpha virt. eigenvalues --    1.15135   1.16008   1.16757   1.18272   1.18598
 Alpha virt. eigenvalues --    1.20385   1.23879   1.27474   1.31022   1.31715
 Alpha virt. eigenvalues --    1.33447   1.36359   1.39733   1.43257   1.44337
 Alpha virt. eigenvalues --    1.45924   1.46066   1.47798   1.49759   1.51635
 Alpha virt. eigenvalues --    1.54685   1.55080   1.55460   1.58328   1.58455
 Alpha virt. eigenvalues --    1.59512   1.63932   1.64797   1.68004   1.69266
 Alpha virt. eigenvalues --    1.72078   1.75806   1.78174   1.80501   1.82475
 Alpha virt. eigenvalues --    1.85956   1.87108   1.88764   1.92203   1.95645
 Alpha virt. eigenvalues --    1.98031   2.03984   2.10344   2.12881   2.14907
 Alpha virt. eigenvalues --    2.16867   2.18180   2.25415   2.27275   2.29904
 Alpha virt. eigenvalues --    2.32477   2.36308   2.43811   2.45041   2.48241
 Alpha virt. eigenvalues --    2.51238   2.52122   2.53967   2.58416   2.61289
 Alpha virt. eigenvalues --    2.64594   2.66472   2.71658   2.75674   2.77279
 Alpha virt. eigenvalues --    2.81982   2.84807   2.85199   2.93859   2.96389
 Alpha virt. eigenvalues --    2.98343   3.00148   3.02725   3.04530   3.09812
 Alpha virt. eigenvalues --    3.16485   3.18068   3.23174   3.27753   3.32760
 Alpha virt. eigenvalues --    3.40032   3.43977   3.50622   3.65689   3.70151
 Alpha virt. eigenvalues --    3.95459   4.03235   4.20119   4.30125   4.45655
 Alpha virt. eigenvalues --    4.48875   4.60839   4.69626   4.79990   4.93570
 Alpha virt. eigenvalues --    5.15747
  Beta  occ. eigenvalues --  -19.51482 -19.50105 -19.48026 -14.66004 -14.62364
  Beta  occ. eigenvalues --  -14.61524 -14.60578 -10.56207 -10.43840  -1.09159
  Beta  occ. eigenvalues --   -1.06227  -1.01008  -0.98041  -0.85734  -0.79320
  Beta  occ. eigenvalues --   -0.58530  -0.56929  -0.55306  -0.51663  -0.44127
  Beta  occ. eigenvalues --   -0.41241  -0.40130  -0.38709  -0.36492  -0.36268
  Beta  occ. eigenvalues --   -0.29729  -0.27478  -0.24800  -0.22907  -0.21294
  Beta  occ. eigenvalues --   -0.20152  -0.18869  -0.16567  -0.16464
  Beta virt. eigenvalues --    0.13219   0.15223   0.16045   0.16325   0.18286
  Beta virt. eigenvalues --    0.18448   0.18569   0.20612   0.21963   0.22586
  Beta virt. eigenvalues --    0.25406   0.26523   0.28053   0.29007   0.29411
  Beta virt. eigenvalues --    0.31490   0.32186   0.33270   0.34089   0.34344
  Beta virt. eigenvalues --    0.34704   0.35584   0.36722   0.38119   0.38858
  Beta virt. eigenvalues --    0.39252   0.39535   0.40499   0.41756   0.41940
  Beta virt. eigenvalues --    0.42916   0.43398   0.43612   0.44575   0.45504
  Beta virt. eigenvalues --    0.45940   0.47636   0.49431   0.50584   0.50886
  Beta virt. eigenvalues --    0.52776   0.53391   0.55771   0.56853   0.59166
  Beta virt. eigenvalues --    0.61307   0.63337   0.66926   0.70730   0.73429
  Beta virt. eigenvalues --    0.86892   0.89230   0.94646   0.99119   1.00541
  Beta virt. eigenvalues --    1.05072   1.06919   1.08080   1.10584   1.12968
  Beta virt. eigenvalues --    1.15205   1.15352   1.15951   1.18253   1.18510
  Beta virt. eigenvalues --    1.18643   1.20866   1.23937   1.27413   1.31238
  Beta virt. eigenvalues --    1.31800   1.33471   1.36611   1.40025   1.43316
  Beta virt. eigenvalues --    1.44365   1.46171   1.46494   1.47950   1.49899
  Beta virt. eigenvalues --    1.52024   1.54797   1.55570   1.55936   1.58534
  Beta virt. eigenvalues --    1.59487   1.59757   1.64161   1.65229   1.68537
  Beta virt. eigenvalues --    1.69412   1.72253   1.76345   1.78569   1.80921
  Beta virt. eigenvalues --    1.83147   1.86149   1.87303   1.89052   1.92340
  Beta virt. eigenvalues --    1.95812   1.98172   2.04078   2.10548   2.13004
  Beta virt. eigenvalues --    2.15368   2.17209   2.18480   2.25583   2.27369
  Beta virt. eigenvalues --    2.30046   2.32679   2.36502   2.44091   2.45388
  Beta virt. eigenvalues --    2.48705   2.51852   2.52478   2.54309   2.58641
  Beta virt. eigenvalues --    2.61629   2.64940   2.66806   2.72245   2.75825
  Beta virt. eigenvalues --    2.77675   2.82189   2.85063   2.85949   2.94343
  Beta virt. eigenvalues --    2.96549   2.98653   3.00496   3.03132   3.04934
  Beta virt. eigenvalues --    3.09982   3.16673   3.18463   3.23458   3.27921
  Beta virt. eigenvalues --    3.32864   3.40195   3.44058   3.50717   3.65791
  Beta virt. eigenvalues --    3.70331   3.95451   4.03084   4.20243   4.30050
  Beta virt. eigenvalues --    4.45596   4.48882   4.61006   4.70147   4.80281
  Beta virt. eigenvalues --    4.93623   5.15654
          Condensed to atoms (all electrons):
               1          2          3          4          5          6
     1  N    8.352811  -0.682598  -0.045183  -0.170117   0.118097   0.010198
     2  N   -0.682598   8.522345  -1.051703   0.382407  -0.119105   0.147297
     3  N   -0.045183  -1.051703   8.772648  -0.390290   0.055023  -0.027967
     4  N   -0.170117   0.382407  -0.390290   7.121450   0.333875   0.015674
     5  C    0.118097  -0.119105   0.055023   0.333875   5.310712  -0.024337
     6  C    0.010198   0.147297  -0.027967   0.015674  -0.024337   4.424858
     7  O    0.017628  -0.049179  -0.055093   0.002475  -0.009442   0.478286
     8  O   -0.043388  -0.084796   0.019955  -0.000294  -0.011385   0.249181
     9  H    0.011373   0.000051  -0.000613   0.000271   0.001818  -0.000461
    10  H   -0.076108   0.003691  -0.012808  -0.023226   0.429989   0.000455
    11  O   -0.190023   0.001385   0.034869  -0.022289  -0.001392  -0.000773
    12  H    0.202758  -0.007928   0.015738   0.000648   0.002389  -0.002204
    13  H   -0.000714   0.015942   0.006350  -0.000841   0.003318  -0.013363
               7          8          9         10         11         12
     1  N    0.017628  -0.043388   0.011373  -0.076108  -0.190023   0.202758
     2  N   -0.049179  -0.084796   0.000051   0.003691   0.001385  -0.007928
     3  N   -0.055093   0.019955  -0.000613  -0.012808   0.034869   0.015738
     4  N    0.002475  -0.000294   0.000271  -0.023226  -0.022289   0.000648
     5  C   -0.009442  -0.011385   0.001818   0.429989  -0.001392   0.002389
     6  C    0.478286   0.249181  -0.000461   0.000455  -0.000773  -0.002204
     7  O    8.207361  -0.099002   0.000028  -0.000013  -0.001652   0.000410
     8  O   -0.099002   8.559001   0.004733   0.000026  -0.108230   0.007490
     9  H    0.000028   0.004733   0.357971   0.000002   0.272955  -0.005709
    10  H   -0.000013   0.000026   0.000002   0.550748  -0.001125   0.001450
    11  O   -0.001652  -0.108230   0.272955  -0.001125   8.823574   0.004728
    12  H    0.000410   0.007490  -0.005709   0.001450   0.004728   0.277002
    13  H    0.003727   0.127710  -0.007634  -0.000001   0.096957   0.009958
              13
     1  N   -0.000714
     2  N    0.015942
     3  N    0.006350
     4  N   -0.000841
     5  C    0.003318
     6  C   -0.013363
     7  O    0.003727
     8  O    0.127710
     9  H   -0.007634
    10  H   -0.000001
    11  O    0.096957
    12  H    0.009958
    13  H    0.218858
          Atomic-Atomic Spin Densities.
               1          2          3          4          5          6
     1  N    0.836198  -0.403964   0.155600  -0.030368  -0.311982  -0.020492
     2  N   -0.403964   0.832492  -0.440454   0.037131   0.179966   0.083842
     3  N    0.155600  -0.440454   0.884547  -0.094131  -0.131839  -0.022579
     4  N   -0.030368   0.037131  -0.094131  -0.071380   0.090475   0.002193
     5  C   -0.311982   0.179966  -0.131839   0.090475   0.293125   0.001583
     6  C   -0.020492   0.083842  -0.022579   0.002193   0.001583   0.075510
     7  O    0.010246  -0.044302   0.023592  -0.001322  -0.003439  -0.038132
     8  O    0.020684  -0.036003   0.007736  -0.001189  -0.004006  -0.021884
     9  H   -0.002586   0.001093   0.000192  -0.000026   0.000391  -0.000022
    10  H   -0.005020   0.004888  -0.002980   0.004182   0.000622  -0.000025
    11  O   -0.008021   0.009191  -0.001177   0.000266   0.001221  -0.000070
    12  H   -0.002093  -0.005816   0.000972  -0.000248   0.000295   0.000166
    13  H    0.000893  -0.001357   0.000386  -0.000043  -0.000057   0.000246
               7          8          9         10         11         12
     1  N    0.010246   0.020684  -0.002586  -0.005020  -0.008021  -0.002093
     2  N   -0.044302  -0.036003   0.001093   0.004888   0.009191  -0.005816
     3  N    0.023592   0.007736   0.000192  -0.002980  -0.001177   0.000972
     4  N   -0.001322  -0.001189  -0.000026   0.004182   0.000266  -0.000248
     5  C   -0.003439  -0.004006   0.000391   0.000622   0.001221   0.000295
     6  C   -0.038132  -0.021884  -0.000022  -0.000025  -0.000070   0.000166
     7  O    0.094638   0.007131  -0.000007   0.000003  -0.000041   0.000003
     8  O    0.007131   0.044798  -0.000629  -0.000007   0.000502  -0.000352
     9  H   -0.000007  -0.000629   0.003054   0.000001  -0.001193  -0.000439
    10  H    0.000003  -0.000007   0.000001  -0.007802  -0.000031   0.000039
    11  O   -0.000041   0.000502  -0.001193  -0.000031  -0.005990   0.007670
    12  H    0.000003  -0.000352  -0.000439   0.000039   0.007670  -0.008443
    13  H   -0.000000  -0.000662   0.000065   0.000000   0.000285  -0.000141
              13
     1  N    0.000893
     2  N   -0.001357
     3  N    0.000386
     4  N   -0.000043
     5  C   -0.000057
     6  C    0.000246
     7  O   -0.000000
     8  O   -0.000662
     9  H    0.000065
    10  H    0.000000
    11  O    0.000285
    12  H   -0.000141
    13  H    0.000009
 Mulliken charges and spin densities:
               1          2
     1  N   -0.504736   0.239094
     2  N   -0.077809   0.216707
     3  N   -0.320928   0.379864
     4  N   -0.249743  -0.064460
     5  C   -0.089558   0.116355
     6  C    0.743156   0.060336
     7  O   -0.495535   0.048368
     8  O   -0.621000   0.016119
     9  H    0.365215  -0.000105
    10  H    0.126919  -0.006127
    11  O   -0.908985   0.002612
    12  H    0.493270  -0.008387
    13  H    0.539732  -0.000377
 Sum of Mulliken charges =  -1.00000   1.00000
 Mulliken charges and spin densities with hydrogens summed into heavy atoms:
               1          2
     1  N   -0.504736   0.239094
     2  N   -0.077809   0.216707
     3  N   -0.320928   0.379864
     4  N   -0.249743  -0.064460
     5  C    0.037361   0.110228
     6  C    0.743156   0.060336
     7  O   -0.495535   0.048368
     8  O   -0.081267   0.015742
    11  O   -0.050500  -0.005880
 APT charges:
               1
     1  N   -0.293231
     2  N   -0.638851
     3  N   -0.145264
     4  N   -0.242700
     5  C   -0.376808
     6  C    0.302065
     7  O   -0.216871
     8  O   -0.503874
     9  H    0.915058
    10  H    0.639001
    11  O   -1.287565
    12  H    0.425974
    13  H    0.423066
 Sum of APT charges =  -1.00000
 APT charges with hydrogens summed into heavy atoms:
               1
     1  N   -0.293231
     2  N   -0.638851
     3  N   -0.145264
     4  N   -0.242700
     5  C    0.262193
     6  C    0.302065
     7  O   -0.216871
     8  O   -0.080808
    11  O    0.053468
 Electronic spatial extent (au):  <R**2>=           1157.6492
 Charge=             -1.0000 electrons
 Dipole moment (field-independent basis, Debye):
    X=              2.0438    Y=              6.0341    Z=              0.9223  Tot=              6.4372
 Quadrupole moment (field-independent basis, Debye-Ang):
   XX=            -75.7311   YY=            -65.9252   ZZ=            -55.2363
   XY=             -1.3360   XZ=              2.0469   YZ=              3.7923
 Traceless Quadrupole moment (field-independent basis, Debye-Ang):
   XX=            -10.1002   YY=             -0.2943   ZZ=             10.3945
   XY=             -1.3360   XZ=              2.0469   YZ=              3.7923
 Octapole moment (field-independent basis, Debye-Ang**2):
  XXX=             39.4926  YYY=             46.0924  ZZZ=              0.8570  XYY=              3.3757
  XXY=             25.3568  XXZ=              3.4144  XZZ=             10.0864  YZZ=              0.3581
  YYZ=             10.3968  XYZ=              6.3044
 Hexadecapole moment (field-independent basis, Debye-Ang**3):
 XXXX=          -1019.4435 YYYY=           -609.8645 ZZZZ=            -60.9442 XXXY=            -16.2535
 XXXZ=              8.2442 YYYX=             41.5030 YYYZ=             37.1084 ZZZX=              1.4933
 ZZZY=              3.3691 XXYY=           -245.3066 XXZZ=           -160.9021 YYZZ=           -109.7711
 XXYZ=             10.8162 YYXZ=             18.4224 ZZXY=              4.5153
 N-N= 4.653337181684D+02 E-N=-2.168925955570D+03  KE= 5.194420231486D+02
  Exact polarizability:   0.000   0.000   0.000   0.000   0.000   0.000
 Approx polarizability: 108.948  -6.807 114.712   0.336   0.136  58.792
                          Isotropic Fermi Contact Couplings
        Atom                 a.u.       MegaHertz       Gauss      10(-4) cm-1
     1  N(14)              0.06122      19.78016       7.05805       6.59795
     2  N(14)              0.05629      18.18807       6.48996       6.06689
     3  N(14)              0.09914      32.03378      11.43045      10.68532
     4  N(14)             -0.02345      -7.57604      -2.70332      -2.52709
     5  C(13)              0.00952      10.70157       3.81859       3.56966
     6  C(13)              0.00293       3.29329       1.17513       1.09852
     7  O(17)              0.01235      -7.48500      -2.67084      -2.49673
     8  O(17)              0.00514      -3.11379      -1.11108      -1.03865
     9  H(1)               0.00019       0.83116       0.29658       0.27725
    10  H(1)              -0.00187      -8.35199      -2.98020      -2.78592
    11  O(17)             -0.00557       3.37794       1.20533       1.12676
    12  H(1)              -0.00261     -11.67597      -4.16628      -3.89469
    13  H(1)              -0.00021      -0.93491      -0.33360      -0.31185
 --------------------------------------------------------
       Center         ----  Spin Dipole Couplings  ----
                      3XX-RR        3YY-RR        3ZZ-RR
 --------------------------------------------------------
     1   Atom       -0.334220     -0.317550      0.651770
     2   Atom       -0.322976     -0.329169      0.652145
     3   Atom       -0.424996     -0.421709      0.846705
     4   Atom        0.055971      0.056425     -0.112396
     5   Atom       -0.035732     -0.045655      0.081387
     6   Atom       -0.028469     -0.035760      0.064229
     7   Atom       -0.113211     -0.111137      0.224348
     8   Atom       -0.058514     -0.054365      0.112879
     9   Atom        0.000191      0.002157     -0.002347
    10   Atom       -0.001873      0.004913     -0.003040
    11   Atom       -0.007809     -0.001223      0.009032
    12   Atom        0.009406      0.000627     -0.010033
    13   Atom        0.005421      0.001056     -0.006477
 --------------------------------------------------------
                        XY            XZ            YZ
 --------------------------------------------------------
     1   Atom       -0.000707      0.008071      0.018289
     2   Atom       -0.000770      0.009576      0.012066
     3   Atom        0.000051     -0.002158      0.017836
     4   Atom       -0.003186     -0.000443     -0.004021
     5   Atom       -0.007205      0.002858      0.003346
     6   Atom       -0.003877      0.007460      0.002684
     7   Atom        0.002352      0.014142      0.015708
     8   Atom       -0.001120      0.007412      0.012746
     9   Atom        0.003335      0.000753      0.000989
    10   Atom       -0.011447      0.000407     -0.000217
    11   Atom        0.005162     -0.000944     -0.004414
    12   Atom        0.025066     -0.001132     -0.000242
    13   Atom        0.003810     -0.000239     -0.000387
 --------------------------------------------------------


 ---------------------------------------------------------------------------------
              Anisotropic Spin Dipole Couplings in Principal Axis System
 ---------------------------------------------------------------------------------

       Atom             a.u.   MegaHertz   Gauss  10(-4) cm-1        Axes

              Baa    -0.3343   -12.894    -4.601    -4.301  0.9986  0.0520 -0.0091
     1 N(14)  Bbb    -0.3178   -12.259    -4.374    -4.089 -0.0522  0.9985 -0.0184
              Bcc     0.6522    25.153     8.975     8.390  0.0082  0.0188  0.9998
 
              Baa    -0.3294   -12.706    -4.534    -4.238  0.1379  0.9904 -0.0135
     2 N(14)  Bbb    -0.3229   -12.455    -4.444    -4.155  0.9904 -0.1380 -0.0080
              Bcc     0.6524    25.161     8.978     8.393  0.0098  0.0123  0.9999
 
              Baa    -0.4250   -16.391    -5.849    -5.468  0.9996 -0.0266  0.0021
     3 N(14)  Bbb    -0.4220   -16.274    -5.807    -5.428  0.0266  0.9995 -0.0140
              Bcc     0.8470    32.665    11.656    10.896 -0.0017  0.0141  0.9999
 
              Baa    -0.1125    -4.339    -1.548    -1.447  0.0031  0.0239  0.9997
     4 N(14)  Bbb     0.0531     2.046     0.730     0.683  0.7369  0.6757 -0.0184
              Bcc     0.0594     2.292     0.818     0.765 -0.6760  0.7368 -0.0155
 
              Baa    -0.0496    -6.653    -2.374    -2.219  0.4666  0.8839 -0.0328
     5 C(13)  Bbb    -0.0320    -4.288    -1.530    -1.430  0.8842 -0.4670 -0.0085
              Bcc     0.0815    10.941     3.904     3.650  0.0228  0.0250  0.9994
 
              Baa    -0.0377    -5.063    -1.807    -1.689  0.4226  0.9046 -0.0547
     6 C(13)  Bbb    -0.0271    -3.643    -1.300    -1.215  0.9029 -0.4255 -0.0612
              Bcc     0.0649     8.706     3.107     2.904  0.0787  0.0235  0.9966
 
              Baa    -0.1148     8.306     2.964     2.771  0.8647 -0.5021 -0.0128
     7 O(17)  Bbb    -0.1109     8.024     2.863     2.677  0.5006  0.8635 -0.0616
              Bcc     0.2257   -16.330    -5.827    -5.447  0.0420  0.0468  0.9980
 
              Baa    -0.0595     4.305     1.536     1.436  0.9270  0.3690 -0.0671
     8 O(17)  Bbb    -0.0547     3.955     1.411     1.319 -0.3727  0.9264 -0.0540
              Bcc     0.1142    -8.260    -2.947    -2.755  0.0423  0.0751  0.9963
 
              Baa    -0.0026    -1.367    -0.488    -0.456 -0.1347 -0.1111  0.9846
     9 H(1)   Bbb    -0.0023    -1.228    -0.438    -0.410  0.7958 -0.6042  0.0407
              Bcc     0.0049     2.595     0.926     0.866  0.5904  0.7891  0.1698
 
              Baa    -0.0104    -5.562    -1.985    -1.855  0.8013  0.5977 -0.0266
    10 H(1)   Bbb    -0.0030    -1.625    -0.580    -0.542  0.0062  0.0362  0.9993
              Bcc     0.0135     7.187     2.564     2.397 -0.5982  0.8009 -0.0253
 
              Baa    -0.0107     0.776     0.277     0.259  0.8625 -0.5011 -0.0707
    11 O(17)  Bbb    -0.0004     0.025     0.009     0.009  0.4828  0.7728  0.4120
              Bcc     0.0111    -0.802    -0.286    -0.267 -0.1518 -0.3895  0.9084
 
              Baa    -0.0205   -10.916    -3.895    -3.641 -0.6432  0.7640 -0.0521
    12 H(1)   Bbb    -0.0100    -5.352    -1.910    -1.785 -0.0142  0.0561  0.9983
              Bcc     0.0305    16.268     5.805     5.426  0.7656  0.6428 -0.0252
 
              Baa    -0.0065    -3.466    -1.237    -1.156  0.0043  0.0490  0.9988
    13 H(1)   Bbb    -0.0011    -0.611    -0.218    -0.204 -0.5027  0.8635 -0.0402
              Bcc     0.0076     4.077     1.455     1.360  0.8645  0.5019 -0.0284
 

 ---------------------------------------------------------------------------------

 Calling FoFJK, ICntrl=    100147 FMM=F ISym2X=0 I1Cent= 0 IOpClX= 1 NMat=1 NMatS=1 NMatT=0.
 ***** Axes restored to original set *****
 -------------------------------------------------------------------
 Center     Atomic                   Forces (Hartrees/Bohr)
 Number     Number              X              Y              Z
 -------------------------------------------------------------------
      1        7          -0.034227749   -0.040901693   -0.002839441
      2        7          -0.104837287    0.036732629    0.001586323
      3        7           0.041583003    0.066449995    0.000284640
      4        7           0.008219193   -0.030489227   -0.000070554
      5        6           0.036962831    0.007376639   -0.000927632
      6        6           0.115953680   -0.023941216    0.000262674
      7        8          -0.021172061    0.031730234    0.000803396
      8        8          -0.045364208   -0.016622346   -0.005233929
      9        1           0.002729285    0.014495226    0.000383359
     10        1           0.000411005    0.000074107   -0.000068893
     11        8          -0.023101629   -0.021026464   -0.015290248
     12        1           0.044151282   -0.021533813    0.008858041
     13        1          -0.021307344   -0.002344071    0.012252263
 -------------------------------------------------------------------
 Cartesian Forces:  Max     0.115953680 RMS     0.034389600
 FormGI is forming the generalized inverse of G from B-inverse, IUseBI=4.

 GradGradGradGradGradGradGradGradGradGradGradGradGradGradGradGradGradGrad
 Berny optimization.
 Internal  Forces:  Max     0.065151321 RMS     0.018470169
 Search for a saddle point.
 Step number   1 out of a maximum of   71
 All quantities printed in internal units (Hartrees-Bohrs-Radians)
 Swapping is turned off.
 Second derivative matrix not updated -- analytic derivatives used.
 ITU=  0
     Eigenvalues ---   -0.03776  -0.00939  -0.00303  -0.00051   0.00454
     Eigenvalues ---    0.01059   0.01304   0.01851   0.02532   0.03548
     Eigenvalues ---    0.03720   0.04902   0.05667   0.06068   0.07545
     Eigenvalues ---    0.08200   0.09936   0.10759   0.20384   0.21723
     Eigenvalues ---    0.25937   0.27395   0.30333   0.30975   0.32134
     Eigenvalues ---    0.38538   0.41151   0.51062   0.54501   0.58322
     Eigenvalues ---    0.63493   0.72343   0.99013
 Eigenvectors required to have negative eigenvalues:
                          R14       R11       R13       R3        R5
   1                   -0.46845   0.46153   0.38722  -0.35638   0.35490
                          A16       D24       A14       A17       D9
   1                    0.16516   0.16174   0.16007  -0.15054   0.09688
 RFO step:  Lambda0=7.603032156D-03 Lambda=-7.39212758D-02.
 Linear search not attempted -- option 19 set.
 Maximum step size (   0.300) exceeded in Quadratic search.
    -- Step size scaled by   0.355
 Iteration  1 RMS(Cart)=  0.04254779 RMS(Int)=  0.00305493
 Iteration  2 RMS(Cart)=  0.00266819 RMS(Int)=  0.00167296
 Iteration  3 RMS(Cart)=  0.00000923 RMS(Int)=  0.00167293
 Iteration  4 RMS(Cart)=  0.00000005 RMS(Int)=  0.00167293
 Variable       Old X    -DE/DX   Delta X   Delta X   Delta X     New X
                                 (Linear)    (Quad)   (Total)
    R1        2.51828   0.05491   0.00000   0.03247   0.03224   2.55052
    R2        2.50906   0.03365   0.00000   0.01848   0.01840   2.52746
    R3        2.26248   0.00552   0.00000  -0.08041  -0.07992   2.18256
    R4        2.44907   0.06515   0.00000   0.04055   0.04084   2.48991
    R5        3.15914  -0.04961   0.00000  -0.11817  -0.11903   3.04011
    R6        2.48882   0.02720   0.00000   0.01474   0.01457   2.50339
    R7        2.52464  -0.00270   0.00000  -0.01499  -0.01538   2.50925
    R8        2.03849   0.00016   0.00000  -0.00005  -0.00005   2.03844
    R9        2.24082   0.03055   0.00000   0.01690   0.01690   2.25772
   R10        2.33890   0.05318   0.00000   0.01763   0.01735   2.35625
   R11        2.21121   0.00916   0.00000   0.11377   0.11431   2.32553
   R12        1.82387  -0.01116   0.00000  -0.00327  -0.00327   1.82060
   R13        2.24728   0.03276   0.00000   0.12587   0.12635   2.37364
   R14        2.23170   0.01200   0.00000  -0.09539  -0.09479   2.13691
    A1        1.81375  -0.00808   0.00000  -0.00413  -0.00372   1.81004
    A2        1.92243   0.01273   0.00000   0.03688   0.03647   1.95890
    A3        2.54700  -0.00466   0.00000  -0.03269  -0.03311   2.51389
    A4        1.93945  -0.00599   0.00000  -0.00604  -0.00681   1.93264
    A5        2.19962  -0.00081   0.00000  -0.00983  -0.01347   2.18615
    A6        2.14395   0.00679   0.00000   0.01801   0.01571   2.15966
    A7        1.88985  -0.01705   0.00000  -0.01342  -0.01282   1.87702
    A8        1.85223   0.02159   0.00000   0.01798   0.01768   1.86991
    A9        1.92950   0.00952   0.00000   0.00563   0.00552   1.93502
   A10        2.16847  -0.00437   0.00000  -0.00417  -0.00414   2.16433
   A11        2.18521  -0.00515   0.00000  -0.00145  -0.00142   2.18379
   A12        1.92864   0.02041   0.00000   0.02576   0.02600   1.95464
   A13        1.90874   0.01041   0.00000   0.02068   0.01942   1.92816
   A14        2.44581  -0.03082   0.00000  -0.04642  -0.04605   2.39976
   A15        2.15284   0.00065   0.00000   0.02337   0.02383   2.17668
   A16        2.27118  -0.00811   0.00000  -0.05262  -0.05896   2.21222
   A17        2.27678  -0.00719   0.00000  -0.11230  -0.11816   2.15862
   A18        1.36208   0.01525   0.00000   0.00980   0.00730   1.36939
   A19        3.06127  -0.02552   0.00000  -0.03840  -0.03789   3.02339
   A20        3.09826  -0.01243   0.00000  -0.04022  -0.03948   3.05879
   A21        3.15782  -0.00307   0.00000   0.00439   0.00440   3.16222
   A22        3.05022   0.00671   0.00000   0.02646   0.02462   3.07484
    D1        0.00104   0.00031   0.00000  -0.01756  -0.01745  -0.01641
    D2        3.12309  -0.00031   0.00000   0.10501   0.10363  -3.05646
    D3        3.14061  -0.00038   0.00000   0.00479   0.00640  -3.13617
    D4       -0.02051  -0.00101   0.00000   0.12735   0.12748   0.10696
    D5        0.00021  -0.00025   0.00000   0.01141   0.01130   0.01151
    D6       -3.13985  -0.00040   0.00000   0.00085   0.00093  -3.13892
    D7       -3.13800   0.00087   0.00000  -0.02626  -0.02649   3.11869
    D8        0.00512   0.00073   0.00000  -0.03682  -0.03686  -0.03174
    D9       -2.21288   0.00313   0.00000   0.09349   0.09182  -2.12106
   D10        0.08895  -0.00410   0.00000  -0.09294  -0.09038  -0.00143
   D11        0.91042   0.00464   0.00000   0.12538   0.12310   1.03352
   D12       -3.07094  -0.00258   0.00000  -0.06104  -0.05910  -3.13004
   D13       -0.00191  -0.00024   0.00000   0.01732   0.01727   0.01536
   D14       -3.12470   0.00045   0.00000  -0.10030  -0.10124   3.05725
   D15        3.11612   0.00133   0.00000  -0.05765  -0.05637   3.05975
   D16       -0.02524   0.00070   0.00000  -0.08765  -0.08773  -0.11297
   D17       -0.04716   0.00049   0.00000   0.07813   0.07957   0.03241
   D18        3.09466  -0.00014   0.00000   0.04813   0.04821  -3.14031
   D19        0.00194   0.00010   0.00000  -0.00940  -0.00958  -0.00764
   D20       -0.00133   0.00008   0.00000  -0.00161  -0.00140  -0.00273
   D21        3.13871   0.00022   0.00000   0.00907   0.00911  -3.13536
   D22        0.01832   0.00250   0.00000   0.01016   0.01133   0.02966
   D23       -3.12293   0.00156   0.00000  -0.03371  -0.03174   3.12852
   D24        2.21809   0.00019   0.00000  -0.07344  -0.06879   2.14930
   D25       -0.07965   0.00358   0.00000   0.04855   0.04592  -0.03373
         Item               Value     Threshold  Converged?
 Maximum Force            0.065151     0.000450     NO 
 RMS     Force            0.018470     0.000300     NO 
 Maximum Displacement     0.135099     0.001800     NO 
 RMS     Displacement     0.042564     0.001200     NO 
 Predicted change in Energy=-2.276795D-02
 GradGradGradGradGradGradGradGradGradGradGradGradGradGradGradGradGradGrad

                          Input orientation:                          
 ---------------------------------------------------------------------
 Center     Atomic      Atomic             Coordinates (Angstroms)
 Number     Number       Type             X           Y           Z
 ---------------------------------------------------------------------
      1          7           0        0.605740   -0.914750   -0.012097
      2          7           0        0.322479    0.404331   -0.049689
      3          7           0        1.428862    1.119659   -0.032225
      4          7           0        2.449600    0.275783   -0.002372
      5          6           0        1.942569   -0.951402    0.007533
      6          6           0       -1.153602    1.039678    0.025215
      7          8           0       -1.125491    2.233504    0.062309
      8          8           0       -2.017413    0.141112   -0.007931
      9          1           0       -1.777124   -2.779274    0.631044
     10          1           0        2.520795   -1.861570    0.036434
     11          8           0       -1.459715   -2.150049   -0.025844
     12          1           0       -0.347102   -1.567148   -0.032138
     13          1           0       -1.773447   -1.064083   -0.056919
 ---------------------------------------------------------------------
                    Distance matrix (angstroms):
                    1          2          3          4          5
     1  N    0.000000
     2  N    1.349676   0.000000
     3  N    2.194711   1.317605   0.000000
     4  N    2.194831   2.131527   1.324736   0.000000
     5  C    1.337475   2.113286   2.134190   1.327841   0.000000
     6  C    2.629918   1.608755   2.584341   3.683391   3.681166
     7  O    3.593634   2.335602   2.788244   4.076535   4.422626
     8  O    2.827684   2.355021   3.582591   4.469047   4.107954
     9  H    3.093239   3.873897   5.091164   5.253550   4.191181
    10  H    2.136880   3.158215   3.175651   2.138891   1.078697
    11  O    2.406711   3.114746   4.362901   4.600865   3.607410
    12  H    1.154960   2.082157   3.220711   3.349451   2.371352
    13  H    2.384291   2.559140   3.876096   4.430840   3.718283
                    6          7          8          9         10
     6  C    0.000000
     7  O    1.194734   0.000000
     8  O    1.246871   2.275646   0.000000
     9  H    3.916657   5.086849   2.999114   0.000000
    10  H    4.681726   5.483221   4.960649   4.434845   0.000000
    11  O    3.204788   4.397160   2.358128   0.963419   3.991436
    12  H    2.729335   3.880691   2.389284   1.988473   2.883785
    13  H    2.194712   3.362758   1.230615   1.848023   4.368663
                   11         12         13
    11  O    0.000000
    12  H    1.256074   0.000000
    13  H    1.130803   1.512663   0.000000
 Stoichiometry    C2H4N4O3(1-,2)
 Framework group  C1[X(C2H4N4O3)]
 Deg. of freedom    33
 Full point group                 C1      NOp   1
 Largest Abelian subgroup         C1      NOp   1
 Largest concise Abelian subgroup C1      NOp   1
                         Standard orientation:                         
 ---------------------------------------------------------------------
 Center     Atomic      Atomic             Coordinates (Angstroms)
 Number     Number       Type             X           Y           Z
 ---------------------------------------------------------------------
      1          7           0       -0.601568    0.934134   -0.013661
      2          7           0       -0.321006   -0.385559   -0.050036
      3          7           0       -1.428397   -1.098864   -0.019007
      4          7           0       -2.447303   -0.253089    0.018667
      5          6           0       -1.938059    0.973219    0.019548
      6          6           0        1.154656   -1.023288    0.011725
      7          8           0        1.124846   -2.216942    0.052830
      8          8           0        2.019647   -0.126365   -0.033073
      9          1           0        1.791010    2.796412    0.599215
     10          1           0       -2.514371    1.884498    0.051531
     11          8           0        1.465789    2.165716   -0.052421
     12          1           0        0.352155    1.584774   -0.045498
     13          1           0        1.777292    1.079104   -0.083319
 ---------------------------------------------------------------------
 Rotational constants (GHZ):           2.2448286           1.6127056           0.9402954
 Standard basis: 6-31+G(d,p) (6D, 7F)
 There are   191 symmetry adapted cartesian basis functions of A   symmetry.
 There are   191 symmetry adapted basis functions of A   symmetry.
   191 basis functions,   316 primitive gaussians,   191 cartesian basis functions
    35 alpha electrons       34 beta electrons
       nuclear repulsion energy       464.6946485616 Hartrees.
 NAtoms=   13 NActive=   13 NUniq=   13 SFac= 1.00D+00 NAtFMM=   60 NAOKFM=F Big=F
 Integral buffers will be    131072 words long.
 Raffenetti 2 integral format.
 Two-electron integral symmetry is turned on.
 One-electron integrals computed using PRISM.
 NBasis=   191 RedAO= T EigKep=  2.51D-05  NBF=   191
 NBsUse=   191 1.00D-06 EigRej= -1.00D+00 NBFU=   191
 Initial guess from the checkpoint file:  "/scratch/gongke2021/sidanzuo-TS/Gau-23693.chk"
 B after Tr=    -0.000000   -0.000000    0.000000
         Rot=    0.999791   -0.000316   -0.000064    0.020465 Ang=  -2.35 deg.
 Initial guess <Sx>= 0.0000 <Sy>= 0.0000 <Sz>= 0.5000 <S**2>= 0.7625 S= 0.5062
 ExpMin= 4.38D-02 ExpMax= 5.48D+03 ExpMxC= 8.25D+02 IAcc=2 IRadAn=         4 AccDes= 0.00D+00
 Harris functional with IExCor= 1009 and IRadAn=       4 diagonalized for initial guess.
 HarFok:  IExCor= 1009 AccDes= 0.00D+00 IRadAn=         4 IDoV= 1 UseB2=F ITyADJ=14
 ICtDFT=  3500011 ScaDFX=  1.000000  1.000000  1.000000  1.000000
 FoFCou: FMM=F IPFlag=           0 FMFlag=      100000 FMFlg1=           0
         NFxFlg=           0 DoJE=T BraDBF=F KetDBF=T FulRan=T
         wScrn=  0.000000 ICntrl=       500 IOpCl=  0 I1Cent=   200000004 NGrid=           0
         NMat0=    1 NMatS0=      1 NMatT0=    0 NMatD0=    1 NMtDS0=    0 NMtDT0=    0
 Petite list used in FoFCou.
 Requested convergence on RMS density matrix=1.00D-08 within 128 cycles.
 Requested convergence on MAX density matrix=1.00D-06.
 Requested convergence on             energy=1.00D-06.
 No special actions if energy rises.
 SCF Done:  E(UM062X) =  -523.070134185     A.U. after   18 cycles
            NFock= 18  Conv=0.80D-08     -V/T= 2.0073
 <Sx>= 0.0000 <Sy>= 0.0000 <Sz>= 0.5000 <S**2>= 0.7635 S= 0.5067
 <L.S>=  0.00000000000    
 Annihilation of the first spin contaminant:
 S**2 before annihilation     0.7635,   after     0.7501
 Calling FoFJK, ICntrl=      2127 FMM=F ISym2X=0 I1Cent= 0 IOpClX= 1 NMat=1 NMatS=1 NMatT=0.
 ***** Axes restored to original set *****
 -------------------------------------------------------------------
 Center     Atomic                   Forces (Hartrees/Bohr)
 Number     Number              X              Y              Z
 -------------------------------------------------------------------
      1        7          -0.027025531   -0.025051267   -0.000634745
      2        7          -0.079814091    0.028782045   -0.001335930
      3        7           0.029979273    0.046309836    0.000985560
      4        7           0.005265409   -0.022008166    0.000754818
      5        6           0.025078802    0.005128270   -0.000071588
      6        6           0.093519039   -0.021630493   -0.003847071
      7        8          -0.017722058    0.023114337    0.001734534
      8        8          -0.033726466   -0.007718982   -0.002101650
      9        1           0.000662318    0.011962014    0.000744395
     10        1           0.000165359   -0.000094517   -0.000113471
     11        8          -0.017414499   -0.019602080   -0.014366248
     12        1           0.037956718   -0.015124177    0.006744022
     13        1          -0.016924272   -0.004066821    0.011507376
 -------------------------------------------------------------------
 Cartesian Forces:  Max     0.093519039 RMS     0.026428776

 GradGradGradGradGradGradGradGradGradGradGradGradGradGradGradGradGradGrad
 Berny optimization.
 FormGI is forming the generalized inverse of G from B-inverse, IUseBI=4.
 Internal  Forces:  Max     0.045821295 RMS     0.013824732
 Search for a saddle point.
 Step number   2 out of a maximum of   71
 All quantities printed in internal units (Hartrees-Bohrs-Radians)
 Swapping is turned off.
 Update second derivatives using D2CorX and points    1    2
 ITU=  0  0
     Eigenvalues ---   -0.03807  -0.00847  -0.00382  -0.00067   0.00454
     Eigenvalues ---    0.01067   0.01384   0.01891   0.02802   0.03546
     Eigenvalues ---    0.03748   0.05020   0.05681   0.06096   0.07549
     Eigenvalues ---    0.08204   0.09931   0.10759   0.20335   0.21727
     Eigenvalues ---    0.25928   0.27363   0.30322   0.30988   0.32105
     Eigenvalues ---    0.38537   0.41082   0.51040   0.54502   0.58304
     Eigenvalues ---    0.63480   0.72320   0.99033
 Eigenvectors required to have negative eigenvalues:
                          R14       R11       R13       R5        R3
   1                   -0.46368   0.46283   0.38901   0.37360  -0.34926
                          A14       A16       D24       A17       D9
   1                    0.16436   0.15369   0.15360  -0.13547   0.10385
 RFO step:  Lambda0=4.545743867D-03 Lambda=-5.43809018D-02.
 Linear search not attempted -- option 19 set.
 Maximum step size (   0.300) exceeded in Quadratic search.
    -- Step size scaled by   0.334
 Iteration  1 RMS(Cart)=  0.04469087 RMS(Int)=  0.00290134
 Iteration  2 RMS(Cart)=  0.00225890 RMS(Int)=  0.00161715
 Iteration  3 RMS(Cart)=  0.00000631 RMS(Int)=  0.00161713
 Iteration  4 RMS(Cart)=  0.00000003 RMS(Int)=  0.00161713
 Variable       Old X    -DE/DX   Delta X   Delta X   Delta X     New X
                                 (Linear)    (Quad)   (Total)
    R1        2.55052   0.03811   0.00000   0.01980   0.01982   2.57034
    R2        2.52746   0.02256   0.00000   0.01016   0.01019   2.53766
    R3        2.18256   0.00336   0.00000  -0.10215  -0.10141   2.08114
    R4        2.48991   0.04582   0.00000   0.02873   0.02888   2.51879
    R5        3.04011  -0.04230   0.00000  -0.14517  -0.14602   2.89409
    R6        2.50339   0.01909   0.00000   0.01105   0.01082   2.51421
    R7        2.50925  -0.00243   0.00000  -0.01137  -0.01166   2.49760
    R8        2.03844   0.00017   0.00000  -0.00034  -0.00034   2.03810
    R9        2.25772   0.02274   0.00000   0.01656   0.01656   2.27428
   R10        2.35625   0.03820   0.00000   0.01664   0.01618   2.37242
   R11        2.32553   0.00909   0.00000   0.06570   0.06595   2.39148
   R12        1.82060  -0.00752   0.00000  -0.00587  -0.00587   1.81473
   R13        2.37364   0.02799   0.00000   0.12450   0.12515   2.49879
   R14        2.13691   0.00942   0.00000  -0.05823  -0.05796   2.07895
    A1        1.81004  -0.00561   0.00000  -0.00016  -0.00022   1.80981
    A2        1.95890   0.01114   0.00000   0.04560   0.04541   2.00431
    A3        2.51389  -0.00551   0.00000  -0.04405  -0.04513   2.46875
    A4        1.93264  -0.00414   0.00000  -0.00435  -0.00484   1.92779
    A5        2.18615  -0.00062   0.00000  -0.00677  -0.00962   2.17653
    A6        2.15966   0.00472   0.00000   0.02077   0.01920   2.17886
    A7        1.87702  -0.01204   0.00000  -0.01102  -0.01067   1.86636
    A8        1.86991   0.01490   0.00000   0.01401   0.01378   1.88369
    A9        1.93502   0.00689   0.00000   0.00199   0.00205   1.93708
   A10        2.16433  -0.00336   0.00000  -0.00341  -0.00348   2.16086
   A11        2.18379  -0.00353   0.00000   0.00152   0.00145   2.18525
   A12        1.95464   0.01605   0.00000   0.02932   0.02985   1.98449
   A13        1.92816   0.00903   0.00000   0.02810   0.02673   1.95488
   A14        2.39976  -0.02507   0.00000  -0.05650  -0.05600   2.34376
   A15        2.17668   0.00070   0.00000   0.02146   0.02124   2.19792
   A16        2.21222  -0.00558   0.00000   0.12494   0.12225   2.33447
   A17        2.15862  -0.00631   0.00000   0.02161   0.01302   2.17164
   A18        1.36939   0.01044   0.00000   0.02010   0.01705   1.38643
   A19        3.02339  -0.01978   0.00000  -0.04576  -0.04574   2.97764
   A20        3.05879  -0.01064   0.00000  -0.05189  -0.05032   3.00847
   A21        3.16222  -0.00277   0.00000  -0.02058  -0.01933   3.14290
   A22        3.07484   0.00544   0.00000   0.02338   0.02147   3.09631
    D1       -0.01641   0.00036   0.00000   0.02656   0.02598   0.00957
    D2       -3.05646   0.00056   0.00000  -0.07784  -0.07747  -3.13393
    D3       -3.13617   0.00001   0.00000  -0.01402  -0.01690   3.13011
    D4        0.10696   0.00021   0.00000  -0.11842  -0.12035  -0.01339
    D5        0.01151  -0.00029   0.00000  -0.01935  -0.01868  -0.00717
    D6       -3.13892  -0.00027   0.00000  -0.00703  -0.00649   3.13777
    D7        3.11869   0.00067   0.00000   0.04736   0.04638  -3.11811
    D8       -0.03174   0.00070   0.00000   0.05968   0.05857   0.02683
    D9       -2.12106   0.00359   0.00000   0.00708   0.00422  -2.11684
   D10       -0.00143  -0.00357   0.00000   0.05968   0.05979   0.05836
   D11        1.03352   0.00467   0.00000  -0.04344  -0.04611   0.98741
   D12       -3.13004  -0.00249   0.00000   0.00916   0.00946  -3.12057
   D13        0.01536  -0.00025   0.00000  -0.02418  -0.02387  -0.00851
   D14        3.05725  -0.00081   0.00000   0.07646   0.07774   3.13500
   D15        3.05975   0.00067   0.00000   0.05585   0.05496   3.11471
   D16       -0.11297   0.00047   0.00000   0.07750   0.07692  -0.03606
   D17        0.03241   0.00144   0.00000  -0.05996  -0.06148  -0.02907
   D18       -3.14031   0.00124   0.00000  -0.03830  -0.03952   3.10336
   D19       -0.00764  -0.00004   0.00000   0.01115   0.01143   0.00380
   D20       -0.00273   0.00023   0.00000   0.00567   0.00502   0.00228
   D21       -3.13536   0.00020   0.00000  -0.00679  -0.00735   3.14047
   D22        0.02966   0.00163   0.00000   0.01975   0.01974   0.04939
   D23        3.12852   0.00279   0.00000   0.05262   0.05074  -3.10393
   D24        2.14930  -0.00007   0.00000   0.12524   0.12557   2.27487
   D25       -0.03373   0.00380   0.00000  -0.02930  -0.03090  -0.06463
         Item               Value     Threshold  Converged?
 Maximum Force            0.045821     0.000450     NO 
 RMS     Force            0.013825     0.000300     NO 
 Maximum Displacement     0.163293     0.001800     NO 
 RMS     Displacement     0.044510     0.001200     NO 
 Predicted change in Energy=-1.582232D-02
 GradGradGradGradGradGradGradGradGradGradGradGradGradGradGradGradGradGrad

                          Input orientation:                          
 ---------------------------------------------------------------------
 Center     Atomic      Atomic             Coordinates (Angstroms)
 Number     Number       Type             X           Y           Z
 ---------------------------------------------------------------------
      1          7           0        0.591421   -0.896265   -0.011885
      2          7           0        0.311214    0.434704   -0.004801
      3          7           0        1.437296    1.147807   -0.008667
      4          7           0        2.445647    0.279847   -0.007412
      5          6           0        1.933616   -0.938610   -0.007631
      6          6           0       -1.100413    1.028576    0.003678
      7          8           0       -1.119040    2.231417    0.038736
      8          8           0       -1.985278    0.139005   -0.038585
      9          1           0       -1.863535   -2.820182    0.596839
     10          1           0        2.505162   -1.853233   -0.007802
     11          8           0       -1.465581   -2.162114    0.021703
     12          1           0       -0.291109   -1.554892    0.002213
     13          1           0       -1.783250   -1.110268   -0.033067
 ---------------------------------------------------------------------
                    Distance matrix (angstroms):
                    1          2          3          4          5
     1  N    0.000000
     2  N    1.360164   0.000000
     3  N    2.212181   1.332888   0.000000
     4  N    2.195771   2.140044   1.330461   0.000000
     5  C    1.342869   2.125604   2.144638   1.321671   0.000000
     6  C    2.562724   1.531485   2.540539   3.624259   3.615976
     7  O    3.565198   2.296889   2.776926   4.064203   4.401129
     8  O    2.777027   2.315698   3.568276   4.433272   4.064474
     9  H    3.177863   3.960529   5.196832   5.342691   4.280660
    10  H    2.139674   3.169869   3.185369   2.133910   1.078517
    11  O    2.415525   3.146612   4.402635   4.611043   3.612805
    12  H    1.101294   2.078783   3.208128   3.294874   2.308528
    13  H    2.384389   2.602790   3.933372   4.451589   3.720915
                    6          7          8          9         10
     6  C    0.000000
     7  O    1.203496   0.000000
     8  O    1.255432   2.265951   0.000000
     9  H    3.968265   5.136575   3.029087   0.000000
    10  H    4.615747   5.460895   4.912638   4.515096   0.000000
    11  O    3.211568   4.407209   2.359844   0.960313   3.982847
    12  H    2.707265   3.875944   2.396072   2.104058   2.812159
    13  H    2.245499   3.407813   1.265515   1.824016   4.352368
                   11         12         13
    11  O    0.000000
    12  H    1.322302   0.000000
    13  H    1.100133   1.557376   0.000000
 Stoichiometry    C2H4N4O3(1-,2)
 Framework group  C1[X(C2H4N4O3)]
 Deg. of freedom    33
 Full point group                 C1      NOp   1
 Largest Abelian subgroup         C1      NOp   1
 Largest concise Abelian subgroup C1      NOp   1
                         Standard orientation:                         
 ---------------------------------------------------------------------
 Center     Atomic      Atomic             Coordinates (Angstroms)
 Number     Number       Type             X           Y           Z
 ---------------------------------------------------------------------
      1          7           0       -0.535273    0.949287   -0.023784
      2          7           0       -0.324902   -0.394374   -0.004673
      3          7           0       -1.486674   -1.047583    0.009267
      4          7           0       -2.448263   -0.128087    0.010027
      5          6           0       -1.873325    1.061842   -0.008045
      6          6           0        1.053802   -1.061170   -0.002279
      7          8           0        1.009918   -2.262907    0.045735
      8          8           0        1.983477   -0.219604   -0.062121
      9          1           0        2.022456    2.748366    0.542033
     10          1           0       -2.396301    2.005065   -0.013109
     11          8           0        1.585255    2.106057   -0.022322
     12          1           0        0.380543    1.560948   -0.024731
     13          1           0        1.847027    1.038517   -0.068438
 ---------------------------------------------------------------------
 Rotational constants (GHZ):           2.2347993           1.6341736           0.9453574
 Standard basis: 6-31+G(d,p) (6D, 7F)
 There are   191 symmetry adapted cartesian basis functions of A   symmetry.
 There are   191 symmetry adapted basis functions of A   symmetry.
   191 basis functions,   316 primitive gaussians,   191 cartesian basis functions
    35 alpha electrons       34 beta electrons
       nuclear repulsion energy       465.5361266993 Hartrees.
 NAtoms=   13 NActive=   13 NUniq=   13 SFac= 1.00D+00 NAtFMM=   60 NAOKFM=F Big=F
 Integral buffers will be    131072 words long.
 Raffenetti 2 integral format.
 Two-electron integral symmetry is turned on.
 One-electron integrals computed using PRISM.
 NBasis=   191 RedAO= T EigKep=  2.57D-05  NBF=   191
 NBsUse=   191 1.00D-06 EigRej= -1.00D+00 NBFU=   191
 Initial guess from the checkpoint file:  "/scratch/gongke2021/sidanzuo-TS/Gau-23693.chk"
 B after Tr=     0.000000    0.000000    0.000000
         Rot=    0.999687    0.000219   -0.000333    0.025002 Ang=   2.87 deg.
 Initial guess <Sx>= 0.0000 <Sy>= 0.0000 <Sz>= 0.5000 <S**2>= 0.7635 S= 0.5067
 ExpMin= 4.38D-02 ExpMax= 5.48D+03 ExpMxC= 8.25D+02 IAcc=2 IRadAn=         4 AccDes= 0.00D+00
 Harris functional with IExCor= 1009 and IRadAn=       4 diagonalized for initial guess.
 HarFok:  IExCor= 1009 AccDes= 0.00D+00 IRadAn=         4 IDoV= 1 UseB2=F ITyADJ=14
 ICtDFT=  3500011 ScaDFX=  1.000000  1.000000  1.000000  1.000000
 FoFCou: FMM=F IPFlag=           0 FMFlag=      100000 FMFlg1=           0
         NFxFlg=           0 DoJE=T BraDBF=F KetDBF=T FulRan=T
         wScrn=  0.000000 ICntrl=       500 IOpCl=  0 I1Cent=   200000004 NGrid=           0
         NMat0=    1 NMatS0=      1 NMatT0=    0 NMatD0=    1 NMtDS0=    0 NMtDT0=    0
 Petite list used in FoFCou.
 Requested convergence on RMS density matrix=1.00D-08 within 128 cycles.
 Requested convergence on MAX density matrix=1.00D-06.
 Requested convergence on             energy=1.00D-06.
 No special actions if energy rises.
 SCF Done:  E(UM062X) =  -523.084921274     A.U. after   17 cycles
            NFock= 17  Conv=0.90D-08     -V/T= 2.0073
 <Sx>= 0.0000 <Sy>= 0.0000 <Sz>= 0.5000 <S**2>= 0.7642 S= 0.5071
 <L.S>=  0.00000000000    
 Annihilation of the first spin contaminant:
 S**2 before annihilation     0.7642,   after     0.7501
 Calling FoFJK, ICntrl=      2127 FMM=F ISym2X=0 I1Cent= 0 IOpClX= 1 NMat=1 NMatS=1 NMatT=0.
 ***** Axes restored to original set *****
 -------------------------------------------------------------------
 Center     Atomic                   Forces (Hartrees/Bohr)
 Number     Number              X              Y              Z
 -------------------------------------------------------------------
      1        7          -0.014305727   -0.010349402   -0.002135013
      2        7          -0.057206206    0.018446631    0.000784967
      3        7           0.022993892    0.032514504    0.000330284
      4        7           0.003962196   -0.015336696    0.000251296
      5        6           0.016961290    0.003422056   -0.000453930
      6        6           0.068647488   -0.015154423   -0.001382510
      7        8          -0.013485444    0.019372214    0.000822458
      8        8          -0.026126524   -0.004578332   -0.002372547
      9        1          -0.001264635    0.010506504    0.002120901
     10        1           0.000057449   -0.000195739   -0.000149353
     11        8          -0.012623544   -0.023529826   -0.013189364
     12        1           0.027650391   -0.013323389    0.005544654
     13        1          -0.015260628   -0.001794102    0.009828157
 -------------------------------------------------------------------
 Cartesian Forces:  Max     0.068647488 RMS     0.019339362

 GradGradGradGradGradGradGradGradGradGradGradGradGradGradGradGradGradGrad
 Berny optimization.
 FormGI is forming the generalized inverse of G from B-inverse, IUseBI=4.
 Internal  Forces:  Max     0.033875335 RMS     0.010508646
 Search for a saddle point.
 Step number   3 out of a maximum of   71
 All quantities printed in internal units (Hartrees-Bohrs-Radians)
 Swapping is turned off.
 Update second derivatives using D2CorX and points    1    2    3
 ITU=  0  0  0
     Eigenvalues ---   -0.04093  -0.00883  -0.00352  -0.00103   0.00451
     Eigenvalues ---    0.01082   0.01390   0.01898   0.03287   0.03554
     Eigenvalues ---    0.04499   0.05631   0.05697   0.06064   0.07739
     Eigenvalues ---    0.08667   0.09990   0.10773   0.20402   0.21750
     Eigenvalues ---    0.26124   0.27387   0.30388   0.31495   0.32325
     Eigenvalues ---    0.38537   0.41106   0.51050   0.54500   0.58351
     Eigenvalues ---    0.63467   0.72311   0.99163
 Eigenvectors required to have negative eigenvalues:
                          R11       R14       R5        R13       R3
   1                    0.46436  -0.44663   0.39774   0.39395  -0.31866
                          A14       A17       A16       D24       D9
   1                    0.17012  -0.15990   0.15931   0.14959   0.11115
 RFO step:  Lambda0=2.190051048D-03 Lambda=-3.26690846D-02.
 Linear search not attempted -- option 19 set.
 Maximum step size (   0.300) exceeded in Quadratic search.
    -- Step size scaled by   0.474
 Iteration  1 RMS(Cart)=  0.05027648 RMS(Int)=  0.00616810
 Iteration  2 RMS(Cart)=  0.00499388 RMS(Int)=  0.00359912
 Iteration  3 RMS(Cart)=  0.00005170 RMS(Int)=  0.00359861
 Iteration  4 RMS(Cart)=  0.00000079 RMS(Int)=  0.00359861
 Variable       Old X    -DE/DX   Delta X   Delta X   Delta X     New X
                                 (Linear)    (Quad)   (Total)
    R1        2.57034   0.02641   0.00000   0.01976   0.01970   2.59004
    R2        2.53766   0.01547   0.00000   0.00985   0.00981   2.54747
    R3        2.08114   0.00970   0.00000  -0.04177  -0.04055   2.04060
    R4        2.51879   0.03388   0.00000   0.03428   0.03476   2.55355
    R5        2.89409  -0.02828   0.00000  -0.12152  -0.12317   2.77091
    R6        2.51421   0.01331   0.00000   0.01225   0.01176   2.52597
    R7        2.49760  -0.00172   0.00000  -0.01145  -0.01222   2.48538
    R8        2.03810   0.00019   0.00000   0.00025   0.00025   2.03835
    R9        2.27428   0.01959   0.00000   0.01985   0.01985   2.29413
   R10        2.37242   0.03068   0.00000   0.02128   0.02039   2.39281
   R11        2.39148   0.00950   0.00000   0.10797   0.10869   2.50017
   R12        1.81473  -0.00541   0.00000  -0.00008  -0.00008   1.81465
   R13        2.49879   0.02571   0.00000   0.12980   0.13088   2.62967
   R14        2.07895   0.01118   0.00000  -0.05178  -0.05095   2.02801
    A1        1.80981  -0.00347   0.00000   0.00062   0.00123   1.81105
    A2        2.00431   0.00843   0.00000   0.04338   0.04409   2.04839
    A3        2.46875  -0.00498   0.00000  -0.04453  -0.04604   2.42272
    A4        1.92779  -0.00374   0.00000  -0.00678  -0.00821   1.91958
    A5        2.17653   0.00041   0.00000  -0.01082  -0.01617   2.16036
    A6        2.17886   0.00333   0.00000   0.01789   0.01311   2.19197
    A7        1.86636  -0.00797   0.00000  -0.00987  -0.00876   1.85760
    A8        1.88369   0.00996   0.00000   0.01218   0.01166   1.89535
    A9        1.93708   0.00521   0.00000   0.00402   0.00409   1.94117
   A10        2.16086  -0.00266   0.00000  -0.00504  -0.00508   2.15578
   A11        2.18525  -0.00255   0.00000   0.00103   0.00099   2.18624
   A12        1.98449   0.01155   0.00000   0.02890   0.02939   2.01388
   A13        1.95488   0.00687   0.00000   0.02073   0.01913   1.97401
   A14        2.34376  -0.01841   0.00000  -0.04991  -0.04923   2.29453
   A15        2.19792   0.00133   0.00000   0.02566   0.02702   2.22494
   A16        2.33447  -0.00321   0.00000  -0.08709  -0.09866   2.23582
   A17        2.17164  -0.00543   0.00000  -0.13291  -0.14811   2.02353
   A18        1.38643   0.00699   0.00000  -0.00751  -0.01277   1.37366
   A19        2.97764  -0.01498   0.00000  -0.03297  -0.03152   2.94613
   A20        3.00847  -0.00893   0.00000  -0.03740  -0.03444   2.97403
   A21        3.14290  -0.00222   0.00000  -0.00239  -0.00196   3.14093
   A22        3.09631   0.00470   0.00000   0.02895   0.02501   3.12133
    D1        0.00957   0.00021   0.00000  -0.01444  -0.01410  -0.00453
    D2       -3.13393   0.00013   0.00000   0.14263   0.14083  -2.99310
    D3        3.13011  -0.00054   0.00000  -0.03301  -0.03272   3.09740
    D4       -0.01339  -0.00063   0.00000   0.12406   0.12222   0.10883
    D5       -0.00717  -0.00021   0.00000   0.00689   0.00671  -0.00046
    D6        3.13777  -0.00022   0.00000   0.00277   0.00336   3.14113
    D7       -3.11811   0.00058   0.00000   0.03160   0.02957  -3.08854
    D8        0.02683   0.00057   0.00000   0.02748   0.02621   0.05304
    D9       -2.11684   0.00376   0.00000   0.16699   0.16167  -1.95518
   D10        0.05836  -0.00352   0.00000  -0.08996  -0.08406  -0.02571
[...]
 ! R13   R(11,12)                1.3804         -DE/DX =    0.0                 !
 ! R14   R(11,13)                1.2689         -DE/DX =    0.0                 !
 ! A1    A(2,1,5)              102.367          -DE/DX =    0.0                 !
 ! A2    A(2,1,12)             116.8958         -DE/DX =    0.0                 !
 ! A3    A(5,1,12)             133.321          -DE/DX =    0.0                 !
 ! A4    A(1,2,3)              110.2248         -DE/DX =    0.0                 !
 ! A5    A(1,2,6)              124.196          -DE/DX =    0.0                 !
 ! A6    A(3,2,6)              124.436          -DE/DX =    0.0                 !
 ! A7    A(2,3,4)              105.1971         -DE/DX =    0.0                 !
 ! A8    A(3,4,5)              109.1562         -DE/DX =    0.0                 !
 ! A9    A(1,5,4)              112.74           -DE/DX =    0.0                 !
 ! A10   A(1,5,10)             122.5044         -DE/DX =    0.0                 !
 ! A11   A(4,5,10)             124.7215         -DE/DX =    0.0                 !
 ! A12   A(2,6,7)              119.2433         -DE/DX =    0.0                 !
 ! A13   A(2,6,8)              114.8277         -DE/DX =    0.0                 !
 ! A14   A(7,6,8)              125.926          -DE/DX =    0.0                 !
 ! A15   A(6,8,13)             120.8586         -DE/DX =    0.0                 !
 ! A16   A(9,11,12)            114.4387         -DE/DX =    0.0                 !
 ! A17   A(9,11,13)            109.6321         -DE/DX =    0.0                 !
 ! A18   A(12,11,13)            80.4034         -DE/DX =    0.0                 !
 ! A19   L(1,12,11,6,-1)       160.1031         -DE/DX =    0.0                 !
 ! A20   L(8,13,11,1,-1)       173.6302         -DE/DX =    0.0                 !
 ! A21   L(1,12,11,6,-2)       180.5259         -DE/DX =    0.0                 !
 ! A22   L(8,13,11,1,-2)       179.7966         -DE/DX =    0.0                 !
 ! D1    D(5,1,2,3)             -5.6833         -DE/DX =    0.0                 !
 ! D2    D(5,1,2,6)           -173.9047         -DE/DX =    0.0                 !
 ! D3    D(12,1,2,3)          -159.683          -DE/DX =    0.0                 !
 ! D4    D(12,1,2,6)            32.0956         -DE/DX =    0.0                 !
 ! D5    D(2,1,5,4)              4.5785         -DE/DX =    0.0                 !
 ! D6    D(2,1,5,10)          -177.4514         -DE/DX =    0.0                 !
 ! D7    D(12,1,5,4)           152.0728         -DE/DX =    0.0                 !
 ! D8    D(12,1,5,10)          -29.957          -DE/DX =    0.0                 !
 ! D9    D(2,1,11,9)          -125.77           -DE/DX =    0.0                 !
 ! D10   D(2,1,11,13)          -22.8512         -DE/DX =    0.0                 !
 ! D11   D(5,1,11,9)            93.8089         -DE/DX =    0.0                 !
 ! D12   D(5,1,11,13)         -163.2723         -DE/DX =    0.0                 !
 ! D13   D(1,2,3,4)              4.8582         -DE/DX =    0.0                 !
 ! D14   D(6,2,3,4)            173.0454         -DE/DX =    0.0                 !
 ! D15   D(1,2,6,7)            168.0635         -DE/DX =    0.0                 !
 ! D16   D(1,2,6,8)            -12.5314         -DE/DX =    0.0                 !
 ! D17   D(3,2,6,7)              1.4928         -DE/DX =    0.0                 !
 ! D18   D(3,2,6,8)           -179.1021         -DE/DX =    0.0                 !
 ! D19   D(2,3,4,5)             -1.9125         -DE/DX =    0.0                 !
 ! D20   D(3,4,5,1)             -1.7797         -DE/DX =    0.0                 !
 ! D21   D(3,4,5,10)          -179.6969         -DE/DX =    0.0                 !
 ! D22   D(2,6,8,13)           -14.9375         -DE/DX =    0.0                 !
 ! D23   D(7,6,8,13)           164.4214         -DE/DX =    0.0                 !
 ! D24   D(6,8,11,9)           133.5806         -DE/DX =    0.0                 !
 ! D25   D(6,8,11,12)           21.9557         -DE/DX =    0.0                 !
 --------------------------------------------------------------------------------
 GradGradGradGradGradGradGradGradGradGradGradGradGradGradGradGradGradGrad


 ----------------------------------------------------------------------

 Electric dipole moment (input orientation):
 (Debye = 10**-18 statcoulomb cm , SI units = C m)
                  (au)            (Debye)         (10**-30 SI)
   Tot        0.225227D+01      0.572471D+01      0.190956D+02
   x          0.495398D+00      0.125918D+01      0.420016D+01
   y         -0.210701D+01     -0.535547D+01     -0.178639D+02
   z          0.622769D+00      0.158292D+01      0.528005D+01

 Dipole polarizability, Alpha (input orientation).
 (esu units = cm**3 , SI units = C**2 m**2 J**-1)
 Alpha(0;0):
               (au)            (10**-24 esu)      (10**-40 SI)
   iso        0.772376D+02      0.114454D+02      0.127348D+02
   aniso      0.467177D+02      0.692285D+01      0.770271D+01
   xx         0.932035D+02      0.138113D+02      0.153672D+02
   yx        -0.267500D+01     -0.396394D+00     -0.441048D+00
   yy         0.918570D+02      0.136118D+02      0.151452D+02
   zx        -0.283367D+01     -0.419906D+00     -0.467209D+00
   zy        -0.320552D+01     -0.475008D+00     -0.528518D+00
   zz         0.466521D+02      0.691313D+01      0.769190D+01

 ----------------------------------------------------------------------

 Dipole orientation:
     7          0.68885877          0.00300868          1.93429329
     7          0.65095141          0.22091683         -0.68073817
     7          3.05600598          0.73584865         -1.58142501
     7          4.56640497          0.62414278          0.45385081
     6          3.19168028          0.16008089          2.46190954
     6         -1.57891016          0.40072088         -2.13991716
     8         -1.42623122          0.99818106         -4.35977400
     8         -3.65979571         -0.13336029         -0.92333266
     1         -4.35811299         -1.37637714          4.36365016
     1          3.92592899         -0.01794687          4.35723874
     8         -3.28345008         -2.17861421          3.13638315
     1         -0.94825508         -1.05264257          2.84657800
     1         -3.59909465         -1.14933332          0.99387165

 Electric dipole moment (dipole orientation):
 (Debye = 10**-18 statcoulomb cm , SI units = C m)
                  (au)            (Debye)         (10**-30 SI)
   Tot        0.225227D+01      0.572471D+01      0.190956D+02
   x          0.000000D+00      0.000000D+00      0.000000D+00
   y          0.000000D+00      0.000000D+00      0.000000D+00
   z          0.225227D+01      0.572471D+01      0.190956D+02

 Dipole polarizability, Alpha (dipole orientation).
 (esu units = cm**3 , SI units = C**2 m**2 J**-1)
 Alpha(0;0):
               (au)            (10**-24 esu)      (10**-40 SI)
   iso        0.772376D+02      0.114454D+02      0.127348D+02
   aniso      0.467177D+02      0.692285D+01      0.770271D+01
   xx         0.915133D+02      0.135609D+02      0.150885D+02
   yx         0.592021D+01      0.877285D+00      0.976111D+00
   yy         0.493189D+02      0.730831D+01      0.813159D+01
   zx         0.392784D+01      0.582045D+00      0.647613D+00
   zy        -0.960984D+01     -0.142403D+01     -0.158445D+01
   zz         0.908805D+02      0.134671D+02      0.149842D+02

 ----------------------------------------------------------------------
 1\1\GINC-NODE4\Freq\UM062X\6-31+G(d,p)\C2H4N4O3(1-,2)\GONGKE2021\13-No
 v-2023\0\\#N Geom=AllCheck Guess=TCheck SCRF=Check GenChk UM062X/6-31+
 G(d,p) Freq\\Title Card Required\\-1,2\N,0.5761115254,-0.8983034915,0.
 2043376441\N,0.2710230644,0.4292795023,-0.0660099015\N,1.4345761231,1.
 1659886544,-0.2228209558\N,2.4309197223,0.2686868001,-0.1561197153\C,1
 .9251613714,-0.9198704868,0.067980867\C,-1.0187504349,0.9913455621,0.0
 690376865\O,-1.1484346523,2.202704907,0.022225049\O,-1.9821267056,0.12
 27185098,0.2248597484\H,-1.828306931,-2.7609597737,0.4643869775\H,2.50
 44039833,-1.825133456,0.1717126585\O,-1.4924531428,-2.1952094749,-0.23
 74181303\H,-0.2412408604,-1.6652110651,0.0057800239\H,-1.8147332331,-0
 .9902431978,-0.004631702\\Version=ES64L-G16RevA.03\State=2-A\HF=-523.1
 027871\S2=0.765485\S2-1=0.\S2A=0.75008\RMSD=2.181e-09\RMSF=1.748e-05\Z
 eroPoint=0.0793206\Thermal=0.0872085\Dipole=0.4953984,-2.1070053,0.622
 7689\DipoleDeriv=-0.9098348,-0.9321668,0.1406409,-0.4947027,-0.7468218
 ,0.0346055,-0.0125822,0.2486031,-0.2259246,-1.1998135,0.4139516,0.0215
 445,0.3462255,-0.1082916,-0.0800627,0.1437795,-0.1761614,-0.0468046,0.
 0640843,0.3443755,-0.0266241,-0.1513088,-0.4777492,0.0604701,-0.015423
 7,0.0320423,-0.2117503,-0.5182275,-0.3913277,0.0593096,0.0183453,0.137
 8975,-0.0317488,0.0266275,-0.0237852,-0.270601,0.5116132,0.4005115,-0.
 1393089,0.1176206,0.0637735,-0.0851774,-0.0683649,-0.162815,-0.0145846
 ,2.526521,-0.1443139,-0.1559485,-0.4164075,2.3564047,-0.0369627,-0.213
 2537,-0.0747882,0.3959555,-0.7918025,0.199207,0.0025767,0.6083158,-1.7
 130273,-0.0054902,-0.0277638,0.0544535,-0.4640562,-1.2670595,-0.333224
 5,0.0627193,-0.619496,-1.6485059,-0.0106272,0.1248755,-0.0486809,-0.48
 05914,0.2601849,-0.038017,0.0472112,-0.0150106,0.2464469,0.0672307,0.0
 599826,0.102546,0.1617149,0.0297314,0.0697998,0.0007015,0.0680759,-0.0
 049052,0.0256524,-0.0090567,0.038665,0.1613958,-1.1936317,-0.3177613,-
 0.0811751,-0.3435504,-1.5566732,-0.1820138,-0.1641449,-0.2773821,-0.56
 12426,1.2246884,0.8912727,0.0606711,0.7138687,0.7949243,0.0724642,0.11
 17293,0.0674317,0.2761807,0.2635463,-0.1623069,0.0076818,0.1680242,1.6
 565274,0.1716598,0.0435953,0.2198709,0.2803085\Polar=93.2035445,-2.675
 0026,91.8570412,-2.8336673,-3.2055153,46.6521415\Quadrupole=-6.3095262
 ,-2.3206996,8.6302258,-2.0852527,-0.3529491,-2.9671102\PG=C01 [X(C2H4N
 4O3)]\NImag=1\\0.70205385,0.09932984,0.54328590,0.00483894,-0.03567638
 ,0.07034103,-0.11131046,0.02359336,-0.01518071,0.73513090,0.04250001,-
 0.23218783,0.04199392,-0.11262771,0.60373800,-0.01039825,0.04236684,-0
 .02648755,-0.03699925,-0.07593153,0.05497949,-0.00263682,-0.04998741,0
 .00845243,-0.15305680,-0.07429910,0.01717676,0.35270073,-0.03695261,-0
 .05864856,0.01266559,-0.02124501,-0.15142251,0.01714930,-0.03458953,0.
 46777766,0.00472732,0.01263949,-0.00981445,0.00474814,0.01860665,-0.02
 470791,-0.01098303,-0.05736624,0.06668328,-0.09753212,-0.02226461,0.01
 499367,-0.10379976,-0.00180244,0.01020275,-0.16228109,0.02763680,0.000
 97385,0.48692977,-0.04980289,-0.02196999,0.00794075,0.03379570,-0.0022
 4456,0.00155147,0.09248147,-0.15040325,0.00820930,0.10903168,0.5368770
 1,0.02053132,0.01372269,0.02984939,0.00138021,0.00127946,0.00814795,-0
 .00935931,0.01305369,-0.06133179,-0.04319428,-0.08180951,0.10524547,-0
 .32620660,0.01441242,0.01519199,-0.07269495,0.07111285,-0.00819785,-0.
 00848001,0.04555352,-0.00187257,-0.13514975,-0.17023006,0.02901864,0.6
 9367322,-0.02133812,-0.11078182,0.00404054,0.03530544,-0.03097567,0.00
 077149,0.08022497,-0.13001050,0.01811391,-0.13252314,-0.33899109,0.053
 59967,-0.08767523,0.87173427,0.03025783,0.00048167,-0.04356829,-0.0007
 2952,0.00409748,0.00004420,-0.00924087,0.01583811,0.02529970,0.0211094
 5,0.05744384,-0.08044201,-0.02676454,-0.11270371,0.13371788,-0.0150090
 8,-0.01317841,0.00600554,-0.20547617,0.04863374,0.00337975,-0.02756425
 ,0.00689837,0.00492116,0.00105799,-0.00826610,0.00148830,0.01470708,-0
 .00615065,-0.00186271,0.57027047,0.02976971,-0.00879552,-0.00801002,0.
 02094684,-0.12267277,0.01406852,-0.00540333,0.01873826,-0.00344471,-0.
 01579263,-0.00205311,0.00137862,-0.00044365,-0.00963753,0.00230951,0.0
 4574341,1.04288228,-0.00917845,0.00351465,-0.00771823,0.02336567,0.004
 87050,-0.03981713,0.00166787,-0.00300380,-0.00757392,-0.00094154,0.001
 65429,0.00136139,-0.00003581,0.00209342,-0.00190411,-0.04177731,-0.052
 14536,0.20634237,-0.00332012,0.00194670,0.00223329,-0.01439156,0.05546
 142,-0.00013199,0.00178105,0.00119436,-0.00085778,0.00064664,0.0026655
 8,-0.00009756,-0.00226325,0.00377620,-0.00016012,-0.10629449,0.0667660
 3,0.00093518,0.11491834,0.00459932,-0.00597466,0.00366344,0.04487123,-
 0.06008579,-0.00796128,-0.00212821,0.00835098,0.00173479,0.00524247,-0
 .00321447,-0.00018085,0.00029169,0.00026208,-0.00078949,0.05728715,-0.
 66802608,0.02469656,-0.07597016,0.80530609,0.00237519,0.00147226,0.003
 57585,0.00033854,-0.00434574,0.01590863,-0.00004911,-0.00060792,-0.000
 47940,0.00008943,-0.00028233,0.00024862,-0.00034922,-0.00051938,0.0009
 5062,0.00021589,0.02361152,-0.08051459,-0.00467615,-0.02971779,0.03684
 723,0.01210874,0.00508315,-0.00301369,-0.07431732,-0.03341547,0.016876
 09,-0.00033259,0.00970021,-0.00122636,-0.00422771,-0.00027162,0.000265
 80,-0.00543496,0.00017417,0.00151067,-0.25462216,-0.12682868,0.0338650
 8,0.01473093,-0.03417407,0.00065202,0.35829070,0.01786611,0.01722692,-
 0.00509816,-0.01306416,0.00817081,0.00968741,-0.00412605,-0.00138880,-
 0.00057160,0.00369597,0.00341580,-0.00048485,-0.01070016,0.00194822,0.
 00178772,-0.11522857,-0.22841107,0.01489198,-0.05813544,-0.08630706,0.
 01198182,0.14807410,0.45227913,-0.00098314,-0.00076199,0.00081837,0.01
 210469,0.00450592,0.00952096,0.00054482,-0.00009877,0.00439631,0.00020
 572,-0.00050275,0.00020865,0.00164802,0.00025820,0.00032473,0.03277380
 ,0.01783227,-0.06832272,0.00055739,0.00633382,0.02083406,-0.05914375,0
 .00381830,0.05459315,-0.00727566,-0.00303877,-0.00453162,0.00039350,0.
 00055615,-0.00014985,-0.00027675,0.00007747,0.00000070,-0.00048642,-0.
 00026248,0.00048297,0.00058437,-0.00082709,-0.00049889,-0.00093726,-0.
 00056302,0.00056328,0.00010803,0.00040308,-0.00022674,-0.00049351,0.00
 421425,0.00193125,0.08079940,-0.00073841,0.00096110,-0.00060398,0.0004
 3955,-0.00003420,0.00035933,0.00013606,-0.00000576,-0.00012698,0.00008
 795,0.00025061,0.00007265,-0.00057483,-0.00024852,-0.00025827,0.000078
 34,-0.00031723,-0.00028015,-0.00007762,0.00019366,0.00021432,0.0028169
 9,-0.00508875,-0.00485033,0.11182296,0.21010853,-0.00364059,-0.0016718
 2,-0.00149841,0.00012365,0.00013744,-0.00000187,-0.00008919,-0.0000755
 1,0.00009276,-0.00015088,-0.00005735,0.00013358,-0.00015642,-0.0003417
 5,-0.00018837,0.00003476,-0.00007322,-0.00009135,-0.00005511,-0.000049
 89,0.00007399,0.00117704,-0.00317039,-0.00138471,-0.13941646,-0.233793
 03,0.29338190,-0.00985882,0.02673575,-0.00463300,-0.00709593,-0.001326
 89,0.00173881,-0.00006807,-0.00456274,0.00136477,0.01352502,-0.0115328
 6,0.00037997,-0.14753072,0.13787054,-0.01222759,0.00227064,0.00064714,
 -0.00068403,-0.00086216,0.00101910,0.00013806,-0.00042605,-0.00056705,
 0.00002246,-0.00017259,0.00004300,0.00001480,0.14997977,-0.00155432,0.
 00610529,-0.00136773,-0.00423905,-0.00078184,0.00119242,-0.00316585,-0
 .00055014,0.00180635,0.01868206,-0.02230054,0.00137910,0.13852512,-0.2
 6488421,0.02867356,0.00017895,0.00010542,0.00004630,0.00019334,0.00016
 548,-0.00006602,0.00014007,0.00009997,-0.00003930,0.00003104,0.0000049
 6,0.00002352,-0.14892601,0.28262045,0.00218163,-0.00414202,-0.00211764
 ,0.00070080,0.00107051,0.00466045,0.00125959,0.00227530,0.00790260,-0.
 00362838,0.00320151,-0.00594802,-0.01494991,0.02930670,-0.02888238,0.0
 0044893,-0.00011323,0.00068507,-0.00015444,0.00012729,-0.00018647,-0.0
 0017706,-0.00029921,-0.00010301,-0.00000701,0.00000394,0.00002318,0.01
 378928,-0.03160438,0.02432091,-0.06379624,-0.04505405,-0.00699467,0.00
 223052,0.00383628,-0.00429616,-0.00183094,-0.00550194,0.00092451,-0.00
 598244,-0.00469138,0.00225941,0.01272116,-0.00710358,-0.00325049,-0.02
 931448,-0.00037234,0.00509421,0.00659992,0.00047669,-0.00069975,0.0251
 6169,0.03706771,0.00012581,-0.08258890,-0.10358432,0.14056485,-0.00019
 442,0.00035638,-0.00004870,0.15168657,-0.03471577,-0.00739819,-0.00854
 257,-0.00513129,0.00198552,0.00154354,-0.00171658,0.00087849,0.0000209
 8,-0.00362396,-0.00121644,0.00126953,0.00160091,-0.00437618,-0.0010868
 0,0.03522760,0.01186859,-0.00742984,-0.00698933,-0.01180754,0.00225293
 ,-0.00551267,-0.10470507,-0.01562891,-0.10825029,-0.20190348,0.2380764
 5,-0.00086886,0.00020474,-0.00022707,0.11939252,0.32189410,-0.00573834
 ,-0.00407255,0.01160105,-0.00280198,-0.00082385,0.00009633,-0.00061043
 ,-0.00069407,0.00000266,-0.00091928,-0.00086892,-0.00047688,0.00072092
 ,-0.00141792,0.00125094,0.00537073,0.00082370,-0.00046952,-0.00119731,
 -0.00248041,-0.00021706,-0.00321647,-0.01554620,0.01323112,0.13460166,
 0.21787582,-0.29582515,-0.00016130,0.00004714,-0.00012157,-0.13355534,
 -0.20785681,0.34211595,-0.08012809,-0.03942391,-0.01593436,0.00900406,
 0.00426206,0.00835494,0.00250590,0.01148119,-0.00253905,0.00565079,0.0
 0619067,-0.00288057,-0.02068067,-0.00263209,0.00124155,0.03513435,0.00
 407401,-0.00461912,-0.00759719,0.00244073,0.00053201,-0.01350024,-0.03
 151673,-0.00153254,0.00640826,0.00032473,0.00362149,0.00040493,-0.0001
 7563,0.00063666,0.01942527,0.00638397,-0.00068372,0.06224850,-0.025581
 69,-0.10751500,-0.01062129,-0.01815188,-0.01848784,0.00079867,0.002382
 58,0.00180446,-0.00107055,0.01239084,0.00433131,-0.00404573,-0.0107422
 4,0.01850052,0.00637685,0.01789262,-0.00309365,-0.00293606,-0.00403808
 ,0.00254805,0.00054922,-0.00844385,-0.01816003,-0.00113167,-0.00266682
 ,-0.00291622,0.00042601,0.00072308,-0.00082302,0.00015926,0.03645136,-
 0.01736113,0.00661929,-0.00648654,0.11340284,-0.03309813,-0.02568942,-
 0.02426225,0.01110581,0.00384063,-0.00235490,0.00101840,0.00161404,-0.
 00007442,0.00089162,0.00357746,0.00279519,0.00536911,0.00708960,-0.006
 08642,0.00156773,0.00006825,0.00168324,-0.00079943,-0.00004284,-0.0001
 9556,-0.00084659,-0.00178432,-0.00233838,0.01382800,0.00286603,0.00255
 394,0.00013042,-0.00008431,-0.00027812,-0.00943683,0.00348837,-0.03091
 929,0.00975847,0.00103568,0.05386409,0.00291143,0.00184595,-0.00142782
 ,-0.00461603,-0.00289090,0.00244427,-0.00046036,0.00030991,-0.00018166
 ,0.00164907,0.00089231,-0.00027491,-0.00324492,0.00089856,0.00061522,0
 .01577736,-0.01854348,-0.00825505,-0.00405616,-0.00435903,0.00165982,-
 0.05693752,0.02242001,0.01174548,0.00393754,-0.01077440,-0.00202794,0.
 00002840,-0.00004611,-0.00005139,-0.03411771,0.00420376,0.00819086,-0.
 01887586,0.00627063,0.00051141,0.09800475,-0.02338117,-0.01430764,-0.0
 0038411,0.01550699,0.00499868,-0.00559619,0.00019100,-0.00512034,0.001
 44860,-0.00076098,-0.00248130,0.00076552,0.00886966,-0.00253956,-0.002
 17049,-0.06911646,-0.03058759,0.01402751,0.01320701,0.01858924,-0.0045
 4290,0.04265766,-0.03908007,-0.00973478,-0.00149650,-0.00100472,0.0005
 6953,0.00074580,0.00003343,0.00024139,-0.03127334,0.01193659,0.0083947
 9,0.04507754,0.02776968,0.00402084,-0.00022720,0.03179360,-0.00187534,
 -0.00218342,-0.00071887,0.00184396,0.00069861,0.00001135,0.00021205,-0
 .00074973,-0.00039543,0.00036787,-0.00005777,0.00020846,0.00037764,-0.
 00029076,-0.00051649,-0.01256658,0.00369415,-0.00366052,0.00440404,0.0
 0466663,0.00315406,0.01327723,-0.01521249,-0.03177856,-0.00657729,0.01
 852064,0.00273052,0.00012735,-0.00000666,0.00004499,0.00931313,-0.0058
 7979,-0.04026858,0.00404424,0.00384031,0.00561287,-0.01294830,-0.00703
 972,0.06557620\\-0.00000098,0.00000338,-0.00001056,-0.00007231,0.00002
 266,0.00001447,0.00000119,0.00000212,-0.00000003,0.00000117,0.00000868
 ,-0.00000142,0.00000609,-0.00001765,0.00000451,0.00006045,-0.00002014,
 0.00000667,0.00000545,-0.00000544,-0.00000427,0.00000147,0.00000593,-0
 .00000605,-0.00000209,0.00000039,-0.00000166,-0.00000020,-0.00000097,-
 0.00000051,0.00002502,-0.00000113,-0.00000417,-0.00001848,0.00000285,-
 0.00000452,-0.00000678,-0.00000068,0.00000753\\\@


 I am not a vegetarian because I love animals;
 I am a vegetarian because I hate plants.
                               -- A. Whitney Brown
 Job cpu time:       0 days  0 hours 29 minutes 49.7 seconds.
 Elapsed time:       0 days  0 hours  1 minutes 15.1 seconds.
 File lengths (MBytes):  RWF=    116 Int=      0 D2E=      0 Chk=      5 Scr=      1
 Normal termination of Gaussian 16 at Mon Nov 13 02:33:10 2023.
