 Entering Gaussian System, Link 0=/opt/soft/g16/g16
 Initial command:
 /opt/soft/g16/l1.exe "/scratch/gongke2021/2-H-1-H-Tz-2/Gau-23123.inp" -scrdir="/scratch/gongke2021/2-H-1-H-Tz-2/"
 Entering Link 1 = /opt/soft/g16/l1.exe PID=     23124.
  
 Copyright (c) 1988,1990,1992,1993,1995,1998,2003,2009,2016,
            Gaussian, Inc.  All Rights Reserved.
  
 This is part of the Gaussian(R) 16 program.  It is based on
 the Gaussian(R) 09 system (copyright 2009, Gaussian, Inc.),
 the Gaussian(R) 03 system (copyright 2003, Gaussian, Inc.),
 the Gaussian(R) 98 system (copyright 1998, Gaussian, Inc.),
 the Gaussian(R) 94 system (copyright 1995, Gaussian, Inc.),
 the Gaussian 92(TM) system (copyright 1992, Gaussian, Inc.),
 the Gaussian 90(TM) system (copyright 1990, Gaussian, Inc.),
 the Gaussian 88(TM) system (copyright 1988, Gaussian, Inc.),
 the Gaussian 86(TM) system (copyright 1986, Carnegie Mellon
 University), and the Gaussian 82(TM) system (copyright 1983,
 Carnegie Mellon University). Gaussian is a federally registered
 trademark of Gaussian, Inc.
  
 This software contains proprietary and confidential information,
 including trade secrets, belonging to Gaussian, Inc.
  
 This software is provided under written license and may be
 used, copied, transmitted, or stored only in accord with that
 written license.
  
 The following legend is applicable only to US Government
 contracts under FAR:
  
                    RESTRICTED RIGHTS LEGEND
  
 Use, reproduction and disclosure by the US Government is
 subject to restrictions as set forth in subparagraphs (a)
 and (c) of the Commercial Computer Software - Restricted
 Rights clause in FAR 52.227-19.
  
 Gaussian, Inc.
 340 Quinnipiac St., Bldg. 40, Wallingford CT 06492
  
  
 ---------------------------------------------------------------
 Warning -- This program may not be used in any manner that
 competes with the business of Gaussian, Inc. or will provide
 assistance to any competitor of Gaussian, Inc.  The licensee
 of this program is prohibited from giving any competitor of
 Gaussian, Inc. access to this program.  By using this program,
 the user acknowledges that Gaussian, Inc. is engaged in the
 business of creating and licensing software in the field of
 computational chemistry and represents and warrants to the
 licensee that it is not a competitor of Gaussian, Inc. and that
 it will not use this program in any manner prohibited above.
 ---------------------------------------------------------------
  

 Cite this work as:
 Gaussian 16, Revision A.03,
 M. J. Frisch, G. W. Trucks, H. B. Schlegel, G. E. Scuseria, 
 M. A. Robb, J. R. Cheeseman, G. Scalmani, V. Barone, 
 G. A. Petersson, H. Nakatsuji, X. Li, M. Caricato, A. V. Marenich, 
 J. Bloino, B. G. Janesko, R. Gomperts, B. Mennucci, H. P. Hratchian, 
 J. V. Ortiz, A. F. Izmaylov, J. L. Sonnenberg, D. Williams-Young, 
 F. Ding, F. Lipparini, F. Egidi, J. Goings, B. Peng, A. Petrone, 
 T. Henderson, D. Ranasinghe, V. G. Zakrzewski, J. Gao, N. Rega, 
 G. Zheng, W. Liang, M. Hada, M. Ehara, K. Toyota, R. Fukuda, 
 J. Hasegawa, M. Ishida, T. Nakajima, Y. Honda, O. Kitao, H. Nakai, 
 T. Vreven, K. Throssell, J. A. Montgomery, Jr., J. E. Peralta, 
 F. Ogliaro, M. J. Bearpark, J. J. Heyd, E. N. Brothers, K. N. Kudin, 
 V. N. Staroverov, T. A. Keith, R. Kobayashi, J. Normand, 
 K. Raghavachari, A. P. Rendell, J. C. Burant, S. S. Iyengar, 
 J. Tomasi, M. Cossi, J. M. Millam, M. Klene, C. Adamo, R. Cammi, 
 J. W. Ochterski, R. L. Martin, K. Morokuma, O. Farkas, 
 J. B. Foresman, and D. J. Fox, Gaussian, Inc., Wallingford CT, 2016.
 
 ******************************************
 Gaussian 16:  ES64L-G16RevA.03 25-Dec-2016
                13-May-2023 
 ******************************************
 %mem=10GB
 %nprocshared=24
 Will use up to   24 processors via shared memory.
 -----------------------------------------------------
 # opt freq 6-31+g(d,p) scrf=(smd,solvent=water) m062x
 -----------------------------------------------------
 1/18=20,19=15,26=3,38=1/1,3;
 2/9=110,12=2,17=6,18=5,40=1/2;
 3/5=1,6=6,7=111,11=2,25=1,30=1,70=32201,71=1,72=1,74=-55/1,2,3;
 4//1;
 5/5=2,38=5,53=1/2;
 6/7=2,8=2,9=2,10=2,28=1/1;
 7//1,2,3,16;
 1/18=20,19=15,26=3/3(2);
 2/9=110/2;
 99//99;
 2/9=110/2;
 3/5=1,6=6,7=111,11=2,25=1,30=1,70=32205,71=1,72=1,74=-55/1,2,3;
 4/5=5,16=3,69=1/1;
 5/5=2,38=5,53=1/2;
 7//1,2,3,16;
 1/18=20,19=15,26=3/3(-5);
 2/9=110/2;
 6/7=2,8=2,9=2,10=2,19=2,28=1/1;
 99/9=1/99;
 ----------
 2-H-1-H-Tz
 ----------
 Symbolic Z-matrix:
 Charge =  1 Multiplicity = 1
 N                     1.0187   -1.07364   0.36689 
 N                     1.59671  -0.02964   0.93518 
 C                     1.68129   0.94258   0.03125 
 C                     1.11359   0.4082   -1.12288 
 N                     0.71598  -0.84601  -0.87356 
 H                     2.11336   1.90496   0.25964 
 H                     0.97562   0.86467  -2.08989 
 H                     1.90477  -0.05816   1.90964 
 H                     0.86396  -1.95631   0.85651 
 C                    -0.39984  -2.57485  -1.39476 
 O                    -0.44636  -2.71095  -0.23994 
 O                    -0.36558  -2.43553  -2.54892 
 
 Add virtual bond connecting atoms O11        and H9         Dist= 3.53D+00.

 GradGradGradGradGradGradGradGradGradGradGradGradGradGradGradGradGradGrad
 Berny optimization.
 Initialization pass.
                           ----------------------------
                           !    Initial Parameters    !
                           ! (Angstroms and Degrees)  !
 --------------------------                            --------------------------
 ! Name  Definition              Value          Derivative Info.                !
 --------------------------------------------------------------------------------
 ! R1    R(1,2)                  1.3217         estimate D2E/DX2                !
 ! R2    R(1,5)                  1.297          estimate D2E/DX2                !
 ! R3    R(1,9)                  1.0212         estimate D2E/DX2                !
 ! R4    R(2,3)                  1.3302         estimate D2E/DX2                !
 ! R5    R(2,8)                  1.0224         estimate D2E/DX2                !
 ! R6    R(3,4)                  1.3928         estimate D2E/DX2                !
 ! R7    R(3,6)                  1.0794         estimate D2E/DX2                !
 ! R8    R(4,5)                  1.3391         estimate D2E/DX2                !
 ! R9    R(4,7)                  1.0782         estimate D2E/DX2                !
 ! R10   R(9,11)                 1.8678         estimate D2E/DX2                !
 ! R11   R(10,11)                1.1637         estimate D2E/DX2                !
 ! R12   R(10,12)                1.1631         estimate D2E/DX2                !
 ! A1    A(2,1,5)              112.0028         estimate D2E/DX2                !
 ! A2    A(2,1,9)              122.8784         estimate D2E/DX2                !
 ! A3    A(5,1,9)              125.0936         estimate D2E/DX2                !
 ! A4    A(1,2,3)              108.2362         estimate D2E/DX2                !
 ! A5    A(1,2,8)              121.3008         estimate D2E/DX2                !
 ! A6    A(3,2,8)              130.4595         estimate D2E/DX2                !
 ! A7    A(2,3,4)              104.8776         estimate D2E/DX2                !
 ! A8    A(2,3,6)              122.2311         estimate D2E/DX2                !
 ! A9    A(4,3,6)              132.8901         estimate D2E/DX2                !
 ! A10   A(3,4,5)              109.0318         estimate D2E/DX2                !
 ! A11   A(3,4,7)              129.2658         estimate D2E/DX2                !
 ! A12   A(5,4,7)              121.7015         estimate D2E/DX2                !
 ! A13   A(1,5,4)              105.8513         estimate D2E/DX2                !
 ! A14   A(1,9,11)             100.0247         estimate D2E/DX2                !
 ! A15   A(9,11,10)            120.4798         estimate D2E/DX2                !
 ! A16   L(11,10,12,3,-1)      180.1617         estimate D2E/DX2                !
 ! A17   L(11,10,12,3,-2)      180.6174         estimate D2E/DX2                !
 ! D1    D(5,1,2,3)              0.1352         estimate D2E/DX2                !
 ! D2    D(5,1,2,8)           -179.251          estimate D2E/DX2                !
 ! D3    D(9,1,2,3)            178.3929         estimate D2E/DX2                !
 ! D4    D(9,1,2,8)             -0.9934         estimate D2E/DX2                !
 ! D5    D(2,1,5,4)             -0.1548         estimate D2E/DX2                !
 ! D6    D(9,1,5,4)           -178.3665         estimate D2E/DX2                !
 ! D7    D(2,1,9,11)           161.4036         estimate D2E/DX2                !
 ! D8    D(5,1,9,11)           -20.5708         estimate D2E/DX2                !
 ! D9    D(1,2,3,4)             -0.0551         estimate D2E/DX2                !
 ! D10   D(1,2,3,6)            179.5943         estimate D2E/DX2                !
 ! D11   D(8,2,3,4)            179.2556         estimate D2E/DX2                !
 ! D12   D(8,2,3,6)             -1.0949         estimate D2E/DX2                !
 ! D13   D(2,3,4,5)             -0.0372         estimate D2E/DX2                !
 ! D14   D(2,3,4,7)            179.6075         estimate D2E/DX2                !
 ! D15   D(6,3,4,5)           -179.6326         estimate D2E/DX2                !
 ! D16   D(6,3,4,7)              0.0122         estimate D2E/DX2                !
 ! D17   D(3,4,5,1)              0.1154         estimate D2E/DX2                !
 ! D18   D(7,4,5,1)           -179.5613         estimate D2E/DX2                !
 ! D19   D(1,9,11,10)           37.7257         estimate D2E/DX2                !
 --------------------------------------------------------------------------------
 Trust Radius=3.00D-01 FncErr=1.00D-07 GrdErr=1.00D-06 EigMax=2.50D+02 EigMin=1.00D-04
 Number of steps in this run=     58 maximum allowed number of steps=    100.
 GradGradGradGradGradGradGradGradGradGradGradGradGradGradGradGradGradGrad

                          Input orientation:                          
 ---------------------------------------------------------------------
 Center     Atomic      Atomic             Coordinates (Angstroms)
 Number     Number       Type             X           Y           Z
 ---------------------------------------------------------------------
      1          7           0        1.018697   -1.073643    0.366889
      2          7           0        1.596711   -0.029640    0.935179
      3          6           0        1.681288    0.942584    0.031254
      4          6           0        1.113590    0.408199   -1.122875
      5          7           0        0.715975   -0.846006   -0.873556
      6          1           0        2.113356    1.904962    0.259638
      7          1           0        0.975618    0.864665   -2.089889
      8          1           0        1.904768   -0.058162    1.909638
      9          1           0        0.863958   -1.956305    0.856508
     10          6           0       -0.399841   -2.574854   -1.394756
     11          8           0       -0.446364   -2.710952   -0.239945
     12          8           0       -0.365581   -2.435530   -2.548923
 ---------------------------------------------------------------------
                    Distance matrix (angstroms):
                    1          2          3          4          5
     1  N    0.000000
     2  N    1.321740   0.000000
     3  C    2.148685   1.330208   0.000000
     4  C    2.103392   2.158864   1.392789   0.000000
     5  N    1.296982   2.171099   2.224762   1.339137   0.000000
     6  H    3.175196   2.113282   1.079358   2.269620   3.287039
     7  H    3.129641   3.215054   2.236803   1.078199   2.115012
     8  H    2.048511   1.022391   2.140038   3.168531   3.127314
     9  H    1.021158   2.062802   3.122920   3.093728   2.061015
    10  C    2.714641   3.986594   4.328622   3.356039   2.122642
    11  O    2.279349   3.569945   4.236599   3.597516   2.287033
    12  O    3.503273   4.666676   4.717906   3.508326   2.550138
                    6          7          8          9         10
     6  H    0.000000
     7  H    2.810150   0.000000
     8  H    2.572910   4.208461   0.000000
     9  H    4.102028   4.080637   2.407346   0.000000
    10  C    5.396474   3.769003   4.750156   2.654803   0.000000
    11  O    5.301736   4.269586   4.145579   1.867791   1.163734
    12  O    5.733499   3.591770   5.539416   3.652175   1.163051
                   11         12
    11  O    0.000000
    12  O    2.326750   0.000000
 Stoichiometry    C3H4N3O2(1+)
 Framework group  C1[X(C3H4N3O2)]
 Deg. of freedom    30
 Full point group                 C1      NOp   1
 Largest Abelian subgroup         C1      NOp   1
 Largest concise Abelian subgroup C1      NOp   1
                         Standard orientation:                         
 ---------------------------------------------------------------------
 Center     Atomic      Atomic             Coordinates (Angstroms)
 Number     Number       Type             X           Y           Z
 ---------------------------------------------------------------------
      1          7           0        0.592489   -0.802299   -0.161589
      2          7           0        1.910487   -0.743394   -0.081547
      3          6           0        2.260648    0.528298    0.090614
      4          6           0        1.058336    1.231172    0.107187
      5          7           0        0.046302    0.369135   -0.053957
      6          1           0        3.291211    0.833117    0.190807
      7          1           0        0.887718    2.288665    0.230120
      8          1           0        2.485554   -1.585050   -0.160264
      9          1           0        0.085092   -1.674436   -0.318716
     10          6           0       -2.021907   -0.099399    0.038768
     11          8           0       -1.617742   -1.168391    0.258275
     12          8           0       -2.429381    0.970038   -0.168489
 ---------------------------------------------------------------------
 Rotational constants (GHZ):           5.5517612           1.5033596           1.1968411
 Standard basis: 6-31+G(d,p) (6D, 7F)
 There are   172 symmetry adapted cartesian basis functions of A   symmetry.
 There are   172 symmetry adapted basis functions of A   symmetry.
   172 basis functions,   284 primitive gaussians,   172 cartesian basis functions
    29 alpha electrons       29 beta electrons
       nuclear repulsion energy       367.0476268985 Hartrees.
 NAtoms=   12 NActive=   12 NUniq=   12 SFac= 1.00D+00 NAtFMM=   60 NAOKFM=F Big=F
 Integral buffers will be    131072 words long.
 Raffenetti 2 integral format.
 Two-electron integral symmetry is turned on.
 ------------------------------------------------------------------------------
 Polarizable Continuum Model (PCM)
 =================================
 Model                : PCM.
 Atomic radii         : SMD-Coulomb.
 Polarization charges : Total charges.
 Charge compensation  : None.
 Solution method      : On-the-fly selection.
 Cavity type          : VdW (van der Waals Surface) (Alpha=1.000).
 Cavity algorithm     : GePol (No added spheres)
                        Default sphere list used, NSphG=   12.
                        Lebedev-Laikov grids with approx.  5.0 points / Ang**2.
                        Smoothing algorithm: York/Karplus (Gamma=1.0000).
                        Polarization charges: spherical gaussians, with
                                              point-specific exponents (IZeta= 3).
                        Self-potential: point-specific (ISelfS= 7).
                        Self-field    : sphere-specific E.n sum rule (ISelfD= 2).
 1st derivatives      : Analytical E(r).r(x)/FMM algorithm (CHGder, D1EAlg=3).
                        Cavity 1st derivative terms included.
 Solvent              : Water, Eps=  78.355300 Eps(inf)=   1.777849
 ------------------------------------------------------------------------------
 Spheres list:
 ISph  on   Nord     Re0    Alpha      Xe            Ye            Ze
    1   N      1    1.8900  1.000      0.592489     -0.802299     -0.161589
    2   N      2    1.8900  1.000      1.910487     -0.743394     -0.081547
    3   C      3    1.8500  1.000      2.260648      0.528298      0.090614
    4   C      4    1.8500  1.000      1.058336      1.231172      0.107187
    5   N      5    1.8900  1.000      0.046302      0.369135     -0.053957
    6   H      6    1.2000  1.000      3.291211      0.833117      0.190807
    7   H      7    1.2000  1.000      0.887718      2.288665      0.230120
    8   H      8    1.2000  1.000      2.485554     -1.585050     -0.160264
    9   H      9    1.2000  1.000      0.085092     -1.674436     -0.318716
   10   C     10    1.8500  1.000     -2.021907     -0.099399      0.038768
   11   O     11    1.5200  1.000     -1.617742     -1.168391      0.258275
   12   O     12    1.5200  1.000     -2.429381      0.970038     -0.168489
 ------------------------------------------------------------------------------
 ------------------------------------------------------------------------------
 Atomic radii for non-electrostatic terms: SMD-CDS.
 ------------------------------------------------------------------------------
 Nuclear repulsion after PCM non-electrostatic terms =      367.0586263757 Hartrees.
 One-electron integrals computed using PRISM.
 NBasis=   172 RedAO= T EigKep=  4.08D-05  NBF=   172
 NBsUse=   172 1.00D-06 EigRej= -1.00D+00 NBFU=   172
 ExpMin= 4.38D-02 ExpMax= 5.48D+03 ExpMxC= 8.25D+02 IAcc=3 IRadAn=         5 AccDes= 0.00D+00
 Harris functional with IExCor= 1009 and IRadAn=       5 diagonalized for initial guess.
 HarFok:  IExCor= 1009 AccDes= 0.00D+00 IRadAn=         5 IDoV= 1 UseB2=F ITyADJ=14
 ICtDFT=  3500011 ScaDFX=  1.000000  1.000000  1.000000  1.000000
 FoFCou: FMM=F IPFlag=           0 FMFlag=      100000 FMFlg1=           0
         NFxFlg=           0 DoJE=T BraDBF=F KetDBF=T FulRan=T
         wScrn=  0.000000 ICntrl=       500 IOpCl=  0 I1Cent=   200000004 NGrid=           0
         NMat0=    1 NMatS0=      1 NMatT0=    0 NMatD0=    1 NMtDS0=    0 NMtDT0=    0
 Petite list used in FoFCou.
 Keep R1 ints in memory in canonical form, NReq=134699993.
 Requested convergence on RMS density matrix=1.00D-08 within 128 cycles.
 Requested convergence on MAX density matrix=1.00D-06.
 Requested convergence on             energy=1.00D-06.
 No special actions if energy rises.
 Inv3:  Mode=1 IEnd=     3257292.
 Iteration    1 A*A^-1 deviation from unit magnitude is 3.11D-15 for    247.
 Iteration    1 A*A^-1 deviation from orthogonality  is 1.61D-15 for    674     27.
 Iteration    1 A^-1*A deviation from unit magnitude is 2.89D-15 for     67.
 Iteration    1 A^-1*A deviation from orthogonality  is 1.44D-15 for    913     80.
 Error on total polarization charges =  0.02485
 SCF Done:  E(RM062X) =  -431.063617209     A.U. after   14 cycles
            NFock= 14  Conv=0.47D-08     -V/T= 2.0078
 SMD-CDS (non-electrostatic) energy       (kcal/mol) =       6.90
 (included in total energy above)

 **********************************************************************

            Population analysis using the SCF density.

 **********************************************************************

 Orbital symmetries:
       Occupied  (A) (A) (A) (A) (A) (A) (A) (A) (A) (A) (A) (A)
                 (A) (A) (A) (A) (A) (A) (A) (A) (A) (A) (A) (A)
                 (A) (A) (A) (A) (A)
       Virtual   (A) (A) (A) (A) (A) (A) (A) (A) (A) (A) (A) (A)
                 (A) (A) (A) (A) (A) (A) (A) (A) (A) (A) (A) (A)
                 (A) (A) (A) (A) (A) (A) (A) (A) (A) (A) (A) (A)
                 (A) (A) (A) (A) (A) (A) (A) (A) (A) (A) (A) (A)
                 (A) (A) (A) (A) (A) (A) (A) (A) (A) (A) (A) (A)
                 (A) (A) (A) (A) (A) (A) (A) (A) (A) (A) (A) (A)
                 (A) (A) (A) (A) (A) (A) (A) (A) (A) (A) (A) (A)
                 (A) (A) (A) (A) (A) (A) (A) (A) (A) (A) (A) (A)
                 (A) (A) (A) (A) (A) (A) (A) (A) (A) (A) (A) (A)
                 (A) (A) (A) (A) (A) (A) (A) (A) (A) (A) (A) (A)
                 (A) (A) (A) (A) (A) (A) (A) (A) (A) (A) (A) (A)
                 (A) (A) (A) (A) (A) (A) (A) (A) (A) (A) (A)
 The electronic state is 1-A.
 Alpha  occ. eigenvalues --  -19.72276 -19.72113 -14.93893 -14.92516 -14.86481
 Alpha  occ. eigenvalues --  -10.75638 -10.64733 -10.62381  -1.31833  -1.29075
 Alpha  occ. eigenvalues --   -1.24230  -1.09366  -0.99455  -0.79602  -0.78675
 Alpha  occ. eigenvalues --   -0.76273  -0.66688  -0.63455  -0.62493  -0.61389
 Alpha  occ. eigenvalues --   -0.59951  -0.59407  -0.57073  -0.54639  -0.45089
 Alpha  occ. eigenvalues --   -0.44425  -0.43081  -0.42484  -0.38030
 Alpha virt. eigenvalues --   -0.03715   0.00922   0.02708   0.03788   0.03864
 Alpha virt. eigenvalues --    0.04645   0.05162   0.05896   0.06860   0.07875
 Alpha virt. eigenvalues --    0.08222   0.08815   0.09639   0.10449   0.11411
 Alpha virt. eigenvalues --    0.12969   0.14622   0.14792   0.16109   0.18807
 Alpha virt. eigenvalues --    0.18919   0.19616   0.21072   0.21859   0.22289
 Alpha virt. eigenvalues --    0.22932   0.24018   0.24653   0.25159   0.26634
 Alpha virt. eigenvalues --    0.26852   0.28018   0.29051   0.30485   0.31073
 Alpha virt. eigenvalues --    0.32077   0.32636   0.32683   0.34346   0.35635
 Alpha virt. eigenvalues --    0.36651   0.38811   0.41610   0.43934   0.47404
 Alpha virt. eigenvalues --    0.51908   0.69035   0.69469   0.73637   0.75138
 Alpha virt. eigenvalues --    0.76178   0.81032   0.82831   0.85627   0.87870
 Alpha virt. eigenvalues --    0.89062   0.91046   0.92759   0.93033   0.93708
 Alpha virt. eigenvalues --    0.96099   0.97040   0.98025   1.00369   1.02455
 Alpha virt. eigenvalues --    1.07289   1.11742   1.16441   1.19280   1.21789
 Alpha virt. eigenvalues --    1.22161   1.23308   1.25476   1.28091   1.30049
 Alpha virt. eigenvalues --    1.31245   1.32630   1.33851   1.36397   1.38745
 Alpha virt. eigenvalues --    1.40202   1.43453   1.45396   1.47500   1.49409
 Alpha virt. eigenvalues --    1.52917   1.54701   1.58001   1.65282   1.69196
 Alpha virt. eigenvalues --    1.74102   1.80797   1.86409   1.89233   1.94894
 Alpha virt. eigenvalues --    1.96065   2.04082   2.04390   2.07567   2.08440
 Alpha virt. eigenvalues --    2.11404   2.13194   2.17852   2.18388   2.19398
 Alpha virt. eigenvalues --    2.20669   2.23891   2.25252   2.26792   2.37587
 Alpha virt. eigenvalues --    2.38630   2.44506   2.46406   2.50098   2.53291
 Alpha virt. eigenvalues --    2.58592   2.64404   2.68061   2.70306   2.71510
 Alpha virt. eigenvalues --    2.77926   2.81453   2.90145   2.92486   2.97986
 Alpha virt. eigenvalues --    3.03488   3.06517   3.11061   3.20317   3.28131
 Alpha virt. eigenvalues --    3.33256   3.35675   3.39295   3.63605   3.77927
 Alpha virt. eigenvalues --    4.00972   4.17533   4.22499   4.34448   4.48028
 Alpha virt. eigenvalues --    4.67016   4.70768   4.94334
          Condensed to atoms (all electrons):
               1          2          3          4          5          6
     1  N    6.756405  -0.205081  -0.022370  -0.013171   0.272023   0.015110
     2  N   -0.205081   6.999156   0.223800   0.032500  -0.016770  -0.040228
     3  C   -0.022370   0.223800   5.298360   0.088024   0.066953   0.363885
     4  C   -0.013171   0.032500   0.088024   5.485260   0.242887   0.002688
     5  N    0.272023  -0.016770   0.066953   0.242887   6.542412  -0.004591
     6  H    0.015110  -0.040228   0.363885   0.002688  -0.004591   0.367186
     7  H    0.007399  -0.001547  -0.017144   0.398334  -0.045937  -0.000108
     8  H    0.005473   0.280265   0.013908  -0.015465   0.007063  -0.000764
     9  H    0.281161  -0.003427   0.002810   0.003546   0.002420  -0.000013
    10  C    0.018942  -0.025248  -0.002070  -0.014467   0.012659   0.000200
    11  O   -0.021019  -0.005273  -0.003687   0.003567  -0.075029   0.000068
    12  O   -0.001677  -0.001795   0.012785  -0.033538   0.010445  -0.000010
               7          8          9         10         11         12
     1  N    0.007399   0.005473   0.281161   0.018942  -0.021019  -0.001677
     2  N   -0.001547   0.280265  -0.003427  -0.025248  -0.005273  -0.001795
     3  C   -0.017144   0.013908   0.002810  -0.002070  -0.003687   0.012785
     4  C    0.398334  -0.015465   0.003546  -0.014467   0.003567  -0.033538
     5  N   -0.045937   0.007063   0.002420   0.012659  -0.075029   0.010445
     6  H   -0.000108  -0.000764  -0.000013   0.000200   0.000068  -0.000010
     7  H    0.393812  -0.000049  -0.000028  -0.001526   0.000094   0.000054
     8  H   -0.000049   0.243536  -0.000988   0.000324   0.000276   0.000002
     9  H   -0.000028  -0.000988   0.247942  -0.000400  -0.005312  -0.000054
    10  C   -0.001526   0.000324  -0.000400   4.316531   0.415731   0.451428
    11  O    0.000094   0.000276  -0.005312   0.415731   8.174569  -0.103022
    12  O    0.000054   0.000002  -0.000054   0.451428  -0.103022   8.064799
 Mulliken charges:
               1
     1  N   -0.093194
     2  N   -0.236351
     3  C   -0.025254
     4  C   -0.180164
     5  N   -0.014536
     6  H    0.296577
     7  H    0.266647
     8  H    0.466418
     9  H    0.472342
    10  C    0.827896
    11  O   -0.380963
    12  O   -0.399418
 Sum of Mulliken charges =   1.00000
 Mulliken charges with hydrogens summed into heavy atoms:
               1
     1  N    0.379148
     2  N    0.230067
     3  C    0.271323
     4  C    0.086483
     5  N   -0.014536
    10  C    0.827896
    11  O   -0.380963
    12  O   -0.399418
 Electronic spatial extent (au):  <R**2>=            882.4624
 Charge=              1.0000 electrons
 Dipole moment (field-independent basis, Debye):
    X=              9.9743    Y=             -3.3327    Z=             -0.4644  Tot=             10.5267
 Quadrupole moment (field-independent basis, Debye-Ang):
   XX=            -21.0752   YY=            -31.4654   ZZ=            -43.5960
   XY=             -1.2595   XZ=             -0.1674   YZ=              3.4053
 Traceless Quadrupole moment (field-independent basis, Debye-Ang):
   XX=             10.9703   YY=              0.5801   ZZ=            -11.5505
   XY=             -1.2595   XZ=             -0.1674   YZ=              3.4053
 Octapole moment (field-independent basis, Debye-Ang**2):
  XXX=             68.2769  YYY=            -10.9370  ZZZ=             -0.7363  XYY=             26.4455
  XXY=            -16.5289  XXZ=              1.7575  XZZ=             -3.8297  YZZ=             -2.9541
  YYZ=             -1.9381  XYZ=              0.6043
 Hexadecapole moment (field-independent basis, Debye-Ang**3):
 XXXX=           -596.2291 YYYY=           -184.1210 ZZZZ=            -45.0314 XXXY=              0.0139
 XXXZ=             -1.0932 YYYX=            -20.5770 YYYZ=             10.2323 ZZZX=             -1.2238
 ZZZY=              0.5688 XXYY=           -146.2413 XXZZ=           -141.0511 YYZZ=            -48.9454
 XXYZ=             10.2514 YYXZ=             -0.0097 ZZXY=             -3.2895
 N-N= 3.670586263757D+02 E-N=-1.728882202433D+03  KE= 4.277417786203D+02
 D1PCM: PCM CHGder 1st derivatives, ID1Alg=3 FixD1E=F DoIter=F DoCFld=F I1PDM=0.
 Calling FoFJK, ICntrl=      2127 FMM=F ISym2X=0 I1Cent= 0 IOpClX= 0 NMat=1 NMatS=1 NMatT=0.
 ***** Axes restored to original set *****
 -------------------------------------------------------------------
 Center     Atomic                   Forces (Hartrees/Bohr)
 Number     Number              X              Y              Z
 -------------------------------------------------------------------
      1        7           0.016341729    0.017618402    0.011581603
      2        7          -0.000631256   -0.002641463   -0.006113889
      3        6           0.000302971    0.001894401    0.000161281
      4        6           0.001092883    0.000571907   -0.000831010
      5        7           0.027883677    0.042065337    0.012401092
      6        1          -0.000225517    0.000100317   -0.000111286
      7        1          -0.000103637   -0.000083441   -0.000496840
      8        1          -0.000196615   -0.000034623    0.000299213
      9        1           0.001708150    0.003435783    0.001064296
     10        6          -0.003658806   -0.000858083   -0.013266431
     11        8          -0.033051178   -0.047293260   -0.000780365
     12        8          -0.009462402   -0.014775276   -0.003907665
 -------------------------------------------------------------------
 Cartesian Forces:  Max     0.047293260 RMS     0.014261689

 GradGradGradGradGradGradGradGradGradGradGradGradGradGradGradGradGradGrad
 Berny optimization.
 FormGI is forming the generalized inverse of G from B-inverse, IUseBI=4.
 Internal  Forces:  Max     0.221605542 RMS     0.039194987
 Search for a local minimum.
 Step number   1 out of a maximum of   58
 All quantities printed in internal units (Hartrees-Bohrs-Radians)
 Mixed Optimization -- RFO/linear search
 Second derivative matrix not updated -- first step.
 ITU=  0
     Eigenvalues ---    0.00230   0.00749   0.02002   0.02265   0.02363
     Eigenvalues ---    0.02391   0.02482   0.02537   0.04826   0.04826
     Eigenvalues ---    0.05404   0.15993   0.15999   0.15999   0.16000
     Eigenvalues ---    0.16000   0.22000   0.22922   0.25000   0.36072
     Eigenvalues ---    0.36213   0.43202   0.43959   0.44154   0.51429
     Eigenvalues ---    0.57310   0.59245   0.65425   1.25381   1.25818
 RFO step:  Lambda=-1.88368856D-01 EMin= 2.30000000D-03
 Linear search not attempted -- first point.
 Maximum step size (   0.300) exceeded in Quadratic search.
    -- Step size scaled by   0.430
 Iteration  1 RMS(Cart)=  0.26540797 RMS(Int)=  0.01612867
 Iteration  2 RMS(Cart)=  0.08272856 RMS(Int)=  0.00130144
 Iteration  3 RMS(Cart)=  0.00259396 RMS(Int)=  0.00012419
 Iteration  4 RMS(Cart)=  0.00000243 RMS(Int)=  0.00012418
 Iteration  5 RMS(Cart)=  0.00000000 RMS(Int)=  0.00012418
 Variable       Old X    -DE/DX   Delta X   Delta X   Delta X     New X
                                 (Linear)    (Quad)   (Total)
    R1        2.49773   0.00504   0.00000   0.00303   0.00305   2.50078
    R2        2.45094  -0.00242   0.00000  -0.00096  -0.00093   2.45001
    R3        1.92971   0.05010   0.00000   0.03423   0.03423   1.96394
    R4        2.51373  -0.00032   0.00000  -0.00021  -0.00022   2.51351
    R5        1.93204   0.00022   0.00000   0.00015   0.00015   1.93219
    R6        2.63199  -0.00955   0.00000  -0.00669  -0.00672   2.62527
    R7        2.03969  -0.00002   0.00000  -0.00002  -0.00002   2.03967
    R8        2.53060  -0.00278   0.00000  -0.00175  -0.00176   2.52884
    R9        2.03750   0.00043   0.00000   0.00033   0.00033   2.03783
   R10        3.52961   0.06831   0.00000   0.12127   0.12127   3.65088
   R11        2.19914   0.01468   0.00000   0.00438   0.00438   2.20352
   R12        2.19785   0.00183   0.00000   0.00054   0.00054   2.19839
    A1        1.95482  -0.02367   0.00000  -0.02378  -0.02375   1.93107
    A2        2.14463  -0.04463   0.00000  -0.05793  -0.05795   2.08668
    A3        2.18329   0.06816   0.00000   0.08143   0.08137   2.26467
    A4        1.88908   0.01407   0.00000   0.01555   0.01556   1.90464
    A5        2.11710  -0.00713   0.00000  -0.00789  -0.00790   2.10920
    A6        2.27695  -0.00693   0.00000  -0.00765  -0.00765   2.26930
    A7        1.83046  -0.00371   0.00000  -0.00437  -0.00441   1.82605
    A8        2.13334   0.00204   0.00000   0.00242   0.00244   2.13578
    A9        2.31937   0.00167   0.00000   0.00196   0.00198   2.32135
   A10        1.90296  -0.00461   0.00000  -0.00553  -0.00556   1.89740
   A11        2.25611   0.00260   0.00000   0.00313   0.00315   2.25926
   A12        2.12409   0.00201   0.00000   0.00240   0.00242   2.12651
   A13        1.84745   0.01791   0.00000   0.01812   0.01815   1.86560
   A14        1.74576   0.22161   0.00000   0.21754   0.21754   1.96330
   A15        2.10277   0.08193   0.00000   0.10121   0.10121   2.20397
   A16        3.14442   0.03928   0.00000   0.07143   0.07143   3.21585
   A17        3.15237   0.00143   0.00000   0.00261   0.00261   3.15497
    D1        0.00236   0.00187   0.00000   0.00393   0.00386   0.00622
    D2       -3.12852   0.00123   0.00000   0.00274   0.00260  -3.12592
    D3        3.11354  -0.00164   0.00000  -0.00418  -0.00374   3.10980
    D4       -0.01734  -0.00228   0.00000  -0.00536  -0.00500  -0.02234
    D5       -0.00270  -0.00170   0.00000  -0.00349  -0.00348  -0.00619
    D6       -3.11308   0.00430   0.00000   0.00778   0.00831  -3.10477
    D7        2.81703  -0.00530   0.00000  -0.01245  -0.01228   2.80474
    D8       -0.35903  -0.01126   0.00000  -0.02393  -0.02410  -0.38312
    D9       -0.00096  -0.00120   0.00000  -0.00259  -0.00253  -0.00349
   D10        3.13451  -0.00074   0.00000  -0.00149  -0.00151   3.13300
   D11        3.12860  -0.00047   0.00000  -0.00124  -0.00110   3.12750
   D12       -0.01911  -0.00000   0.00000  -0.00014  -0.00008  -0.01919
   D13       -0.00065   0.00019   0.00000   0.00052   0.00043  -0.00022
   D14        3.13474   0.00058   0.00000   0.00126   0.00123   3.13597
   D15       -3.13518  -0.00035   0.00000  -0.00074  -0.00075  -3.13593
   D16        0.00021   0.00005   0.00000  -0.00000   0.00005   0.00027
   D17        0.00201   0.00093   0.00000   0.00178   0.00187   0.00388
   D18       -3.13394   0.00056   0.00000   0.00110   0.00113  -3.13280
   D19        0.65844   0.02803   0.00000   0.06326   0.06326   0.72170
         Item               Value     Threshold  Converged?
 Maximum Force            0.221606     0.000450     NO 
 RMS     Force            0.039195     0.000300     NO 
 Maximum Displacement     1.417163     0.001800     NO 
 RMS     Displacement     0.341698     0.001200     NO 
 Predicted change in Energy=-7.255159D-02
 GradGradGradGradGradGradGradGradGradGradGradGradGradGradGradGradGradGrad

                          Input orientation:                          
 ---------------------------------------------------------------------
 Center     Atomic      Atomic             Coordinates (Angstroms)
 Number     Number       Type             X           Y           Z
 ---------------------------------------------------------------------
      1          7           0        1.026637   -0.947886    0.232283
      2          7           0        1.602367    0.018803    0.928931
      3          6           0        1.773787    1.078920    0.144134
      4          6           0        1.264327    0.689148   -1.088138
      5          7           0        0.817028   -0.568228   -0.989522
      6          1           0        2.220231    1.995018    0.499725
      7          1           0        1.199451    1.245416   -2.009686
      8          1           0        1.850638   -0.119178    1.911160
      9          1           0        0.842542   -1.865588    0.683964
     10          6           0       -0.590524   -3.007886   -1.413561
     11          8           0       -0.492342   -2.897760   -0.256880
     12          8           0       -0.741966   -3.185460   -2.553249
 ---------------------------------------------------------------------
                    Distance matrix (angstroms):
                    1          2          3          4          5
     1  N    0.000000
     2  N    1.323356   0.000000
     3  C    2.161931   1.330090   0.000000
     4  C    2.116575   2.152255   1.389232   0.000000
     5  N    1.296489   2.154490   2.216678   1.338207   0.000000
     6  H    3.186985   2.114569   1.079348   2.267235   3.279797
     7  H    3.141156   3.209734   2.235290   1.078375   2.115724
     8  H    2.045571   1.022472   2.136287   3.161160   3.111905
     9  H    1.039270   2.046526   3.135085   3.137662   2.117628
    10  C    3.093156   4.410996   4.971757   4.149028   2.848322
    11  O    2.519640   3.781573   4.594577   4.079557   2.770908
    12  O    3.986713   5.280983   5.638247   4.602646   3.424267
                    6          7          8          9         10
     6  H    0.000000
     7  H    2.810878   0.000000
     8  H    2.568768   4.202284   0.000000
     9  H    4.103199   4.130554   2.360554   0.000000
    10  C    6.048971   4.652951   5.035641   2.785343   0.000000
    11  O    5.645332   4.806288   4.232077   1.931963   1.166053
    12  O    6.703179   4.867979   6.004551   3.838265   1.163338
                   11         12
    11  O    0.000000
    12  O    2.327744   0.000000
 Stoichiometry    C3H4N3O2(1+)
 Framework group  C1[X(C3H4N3O2)]
 Deg. of freedom    30
 Full point group                 C1      NOp   1
 Largest Abelian subgroup         C1      NOp   1
 Largest concise Abelian subgroup C1      NOp   1
                         Standard orientation:                         
 ---------------------------------------------------------------------
 Center     Atomic      Atomic             Coordinates (Angstroms)
 Number     Number       Type             X           Y           Z
 ---------------------------------------------------------------------
      1          7           0        0.647722   -0.660166   -0.142530
      2          7           0        1.954319   -0.861251   -0.082198
      3          6           0        2.568784    0.308610    0.069453
      4          6           0        1.541741    1.243806    0.093071
      5          7           0        0.374706    0.603386   -0.043637
      6          1           0        3.641851    0.391438    0.151060
      7          1           0        1.593143    2.315249    0.203796
      8          1           0        2.343844   -1.803527   -0.158589
      9          1           0        0.010875   -1.468249   -0.289200
     10          6           0       -2.386930   -0.089205    0.037759
     11          8           0       -1.807340   -1.081222    0.236902
     12          8           0       -3.038723    0.857727   -0.140679
 ---------------------------------------------------------------------
 Rotational constants (GHZ):           5.9573633           1.0980124           0.9338263
 Standard basis: 6-31+G(d,p) (6D, 7F)
 There are   172 symmetry adapted cartesian basis functions of A   symmetry.
 There are   172 symmetry adapted basis functions of A   symmetry.
   172 basis functions,   284 primitive gaussians,   172 cartesian basis functions
    29 alpha electrons       29 beta electrons
       nuclear repulsion energy       347.3884328381 Hartrees.
 NAtoms=   12 NActive=   12 NUniq=   12 SFac= 1.00D+00 NAtFMM=   60 NAOKFM=F Big=F
 Integral buffers will be    131072 words long.
 Raffenetti 2 integral format.
 Two-electron integral symmetry is turned on.
 ------------------------------------------------------------------------------
 Polarizable Continuum Model (PCM)
 =================================
 Model                : PCM.
 Atomic radii         : SMD-Coulomb.
 Polarization charges : Total charges.
 Charge compensation  : None.
 Solution method      : On-the-fly selection.
 Cavity type          : VdW (van der Waals Surface) (Alpha=1.000).
 Cavity algorithm     : GePol (No added spheres)
                        Default sphere list used, NSphG=   12.
                        Lebedev-Laikov grids with approx.  5.0 points / Ang**2.
                        Smoothing algorithm: York/Karplus (Gamma=1.0000).
                        Polarization charges: spherical gaussians, with
                                              point-specific exponents (IZeta= 3).
                        Self-potential: point-specific (ISelfS= 7).
                        Self-field    : sphere-specific E.n sum rule (ISelfD= 2).
 1st derivatives      : Analytical E(r).r(x)/FMM algorithm (CHGder, D1EAlg=3).
                        Cavity 1st derivative terms included.
 Solvent              : Water, Eps=  78.355300 Eps(inf)=   1.777849
 ------------------------------------------------------------------------------
 Spheres list:
 ISph  on   Nord     Re0    Alpha      Xe            Ye            Ze
    1   N      1    1.8900  1.000      0.647722     -0.660166     -0.142530
    2   N      2    1.8900  1.000      1.954319     -0.861251     -0.082198
    3   C      3    1.8500  1.000      2.568784      0.308610      0.069453
    4   C      4    1.8500  1.000      1.541741      1.243806      0.093071
    5   N      5    1.8900  1.000      0.374706      0.603386     -0.043637
    6   H      6    1.2000  1.000      3.641851      0.391438      0.151060
    7   H      7    1.2000  1.000      1.593143      2.315249      0.203796
    8   H      8    1.2000  1.000      2.343844     -1.803527     -0.158589
    9   H      9    1.2000  1.000      0.010875     -1.468249     -0.289200
   10   C     10    1.8500  1.000     -2.386930     -0.089205      0.037759
   11   O     11    1.5200  1.000     -1.807340     -1.081222      0.236902
   12   O     12    1.5200  1.000     -3.038723      0.857727     -0.140679
 ------------------------------------------------------------------------------
 ------------------------------------------------------------------------------
 Atomic radii for non-electrostatic terms: SMD-CDS.
 ------------------------------------------------------------------------------
 Nuclear repulsion after PCM non-electrostatic terms =      347.3993961015 Hartrees.
 One-electron integrals computed using PRISM.
 NBasis=   172 RedAO= T EigKep=  4.53D-05  NBF=   172
 NBsUse=   172 1.00D-06 EigRej= -1.00D+00 NBFU=   172
 Initial guess from the checkpoint file:  "/scratch/gongke2021/2-H-1-H-Tz-2/Gau-23124.chk"
 B after Tr=    -0.000000   -0.000000   -0.000000
         Rot=    0.999825   -0.000873   -0.003867    0.018272 Ang=  -2.14 deg.
 ExpMin= 4.38D-02 ExpMax= 5.48D+03 ExpMxC= 8.25D+02 IAcc=2 IRadAn=         4 AccDes= 0.00D+00
 Harris functional with IExCor= 1009 and IRadAn=       4 diagonalized for initial guess.
 HarFok:  IExCor= 1009 AccDes= 0.00D+00 IRadAn=         4 IDoV= 1 UseB2=F ITyADJ=14
 ICtDFT=  3500011 ScaDFX=  1.000000  1.000000  1.000000  1.000000
 FoFCou: FMM=F IPFlag=           0 FMFlag=      100000 FMFlg1=           0
         NFxFlg=           0 DoJE=T BraDBF=F KetDBF=T FulRan=T
         wScrn=  0.000000 ICntrl=       500 IOpCl=  0 I1Cent=   200000004 NGrid=           0
         NMat0=    1 NMatS0=      1 NMatT0=    0 NMatD0=    1 NMtDS0=    0 NMtDT0=    0
 Petite list used in FoFCou.
 Keep R1 ints in memory in canonical form, NReq=134699993.
 Requested convergence on RMS density matrix=1.00D-08 within 128 cycles.
 Requested convergence on MAX density matrix=1.00D-06.
 Requested convergence on             energy=1.00D-06.
 No special actions if energy rises.
 Inv3:  Mode=1 IEnd=     3557763.
 Iteration    1 A*A^-1 deviation from unit magnitude is 2.55D-15 for    184.
 Iteration    1 A*A^-1 deviation from orthogonality  is 1.76D-15 for    797    637.
 Iteration    1 A^-1*A deviation from unit magnitude is 3.22D-15 for    184.
 Iteration    1 A^-1*A deviation from orthogonality  is 1.78D-15 for    945     82.
 Error on total polarization charges =  0.02517
 SCF Done:  E(RM062X) =  -431.092368965     A.U. after   15 cycles
            NFock= 15  Conv=0.45D-08     -V/T= 2.0085
 SMD-CDS (non-electrostatic) energy       (kcal/mol) =       6.88
 (included in total energy above)
 D1PCM: PCM CHGder 1st derivatives, ID1Alg=3 FixD1E=F DoIter=F DoCFld=F I1PDM=0.
 Calling FoFJK, ICntrl=      2127 FMM=F ISym2X=0 I1Cent= 0 IOpClX= 0 NMat=1 NMatS=1 NMatT=0.
 ***** Axes restored to original set *****
 -------------------------------------------------------------------
 Center     Atomic                   Forces (Hartrees/Bohr)
 Number     Number              X              Y              Z
 -------------------------------------------------------------------
      1        7           0.012059096    0.010541932    0.014839254
      2        7           0.002806112    0.001233371    0.003934091
      3        6           0.000397940   -0.000343082    0.002568408
      4        6          -0.000640851   -0.002230927    0.000978007
      5        7          -0.005290179   -0.009772063   -0.004705921
      6        1          -0.000062758   -0.000159007    0.000045041
      7        1          -0.000160263   -0.000648948   -0.000008447
      8        1          -0.000407361    0.000802748   -0.000421761
      9        1          -0.000049103    0.011658080   -0.013311790
     10        6          -0.007484709   -0.009032236   -0.003901457
     11        8          -0.005101494   -0.007258762   -0.005142379
     12        8           0.003933568    0.005208893    0.005126954
 -------------------------------------------------------------------
 Cartesian Forces:  Max     0.014839254 RMS     0.006013709

 GradGradGradGradGradGradGradGradGradGradGradGradGradGradGradGradGradGrad
 Berny optimization.
 Using GEDIIS/GDIIS optimizer.
 FormGI is forming the generalized inverse of G from B-inverse, IUseBI=4.
 Internal  Forces:  Max     0.016483555 RMS     0.004729616
 Search for a local minimum.
 Step number   2 out of a maximum of   58
 All quantities printed in internal units (Hartrees-Bohrs-Radians)
 Mixed Optimization -- RFO/linear search
 Update second derivatives using D2CorX and points    1    2
 DE= -2.88D-02 DEPred=-7.26D-02 R= 3.96D-01
 Trust test= 3.96D-01 RLast= 3.08D-01 DXMaxT set to 3.00D-01
 ITU=  0  0
 Use linear search instead of GDIIS.
     Eigenvalues ---    0.00238   0.00753   0.01995   0.02264   0.02363
     Eigenvalues ---    0.02394   0.02482   0.02537   0.04826   0.04919
     Eigenvalues ---    0.06057   0.15962   0.15999   0.16000   0.16000
     Eigenvalues ---    0.17842   0.22024   0.22916   0.36072   0.36213
     Eigenvalues ---    0.42567   0.43382   0.43959   0.51313   0.57362
     Eigenvalues ---    0.59249   0.65408   0.89923   1.25542   1.26309
 RFO step:  Lambda=-2.32764893D-02 EMin= 2.37867010D-03
 Quartic linear search produced a step of  0.45153.
 Maximum step size (   0.300) exceeded in Quadratic search.
    -- Step size scaled by   0.650
 Iteration  1 RMS(Cart)=  0.12568755 RMS(Int)=  0.01820246
 Iteration  2 RMS(Cart)=  0.03294286 RMS(Int)=  0.00018252
 Iteration  3 RMS(Cart)=  0.00022717 RMS(Int)=  0.00007958
 Iteration  4 RMS(Cart)=  0.00000006 RMS(Int)=  0.00007958
 Variable       Old X    -DE/DX   Delta X   Delta X   Delta X     New X
                                 (Linear)    (Quad)   (Total)
    R1        2.50078   0.00141   0.00138   0.00018   0.00160   2.50238
    R2        2.45001  -0.00171  -0.00042  -0.00193  -0.00231   2.44770
    R3        1.96394  -0.00651   0.01546  -0.03103  -0.01557   1.94836
    R4        2.51351  -0.00222  -0.00010  -0.00303  -0.00314   2.51036
    R5        1.93219  -0.00061   0.00007  -0.00131  -0.00124   1.93096
    R6        2.62527   0.00404  -0.00304   0.01158   0.00849   2.63376
    R7        2.03967  -0.00015  -0.00001  -0.00035  -0.00035   2.03932
    R8        2.52884  -0.00045  -0.00079   0.00023  -0.00058   2.52826
    R9        2.03783  -0.00032   0.00015  -0.00094  -0.00079   2.03704
   R10        3.65088   0.01384   0.05476   0.26326   0.31801   3.96889
   R11        2.20352  -0.00053   0.00198  -0.00341  -0.00143   2.20209
   R12        2.19839  -0.00632   0.00025  -0.00499  -0.00475   2.19365
    A1        1.93107   0.00729  -0.01072   0.03357   0.02282   1.95389
    A2        2.08668   0.00651  -0.02617   0.04318   0.01685   2.10354
    A3        2.26467  -0.01380   0.03674  -0.07753  -0.04091   2.22375
    A4        1.90464  -0.00417   0.00703  -0.02038  -0.01333   1.89131
    A5        2.10920   0.00263  -0.00357   0.01303   0.00944   2.11864
    A6        2.26930   0.00154  -0.00345   0.00741   0.00393   2.27323
    A7        1.82605   0.00005  -0.00199   0.00231   0.00026   1.82631
    A8        2.13578  -0.00015   0.00110  -0.00179  -0.00066   2.13511
    A9        2.32135   0.00009   0.00089  -0.00050   0.00042   2.32176
   A10        1.89740   0.00274  -0.00251   0.01223   0.00966   1.90707
   A11        2.25926  -0.00079   0.00142  -0.00320  -0.00175   2.25751
   A12        2.12651  -0.00195   0.00109  -0.00902  -0.00791   2.11860
   A13        1.86560  -0.00591   0.00819  -0.02779  -0.01954   1.84606
   A14        1.96330   0.01648   0.09823  -0.01751   0.08072   2.04402
   A15        2.20397   0.00025   0.04570  -0.01099   0.03471   2.23869
   A16        3.21585  -0.01174   0.03225  -0.08815  -0.05590   3.15995
   A17        3.15497  -0.00125   0.00118  -0.01401  -0.01283   3.14214
    D1        0.00622   0.00009   0.00174   0.00911   0.01094   0.01716
    D2       -3.12592  -0.00010   0.00117   0.00287   0.00417  -3.12175
    D3        3.10980  -0.00029  -0.00169  -0.01222  -0.01414   3.09566
    D4       -0.02234  -0.00047  -0.00226  -0.01846  -0.02091  -0.04325
    D5       -0.00619   0.00001  -0.00157  -0.00697  -0.00857  -0.01476
    D6       -3.10477  -0.00022   0.00375   0.01334   0.01685  -3.08792
    D7        2.80474   0.00028  -0.00555  -0.03507  -0.04077   2.76397
    D8       -0.38312   0.00048  -0.01088  -0.05746  -0.06819  -0.45131
    D9       -0.00349  -0.00011  -0.00114  -0.00699  -0.00812  -0.01161
   D10        3.13300  -0.00005  -0.00068  -0.00398  -0.00461   3.12839
   D11        3.12750   0.00010  -0.00050   0.00002  -0.00052   3.12698
   D12       -0.01919   0.00016  -0.00003   0.00303   0.00298  -0.01621
   D13       -0.00022   0.00013   0.00019   0.00290   0.00316   0.00294
   D14        3.13597   0.00008   0.00056   0.00420   0.00477   3.14074
   D15       -3.13593   0.00006  -0.00034  -0.00059  -0.00089  -3.13682
   D16        0.00027   0.00002   0.00002   0.00072   0.00072   0.00099
   D17        0.00388  -0.00010   0.00084   0.00232   0.00310   0.00698
   D18       -3.13280  -0.00006   0.00051   0.00112   0.00162  -3.13118
   D19        0.72170  -0.00118   0.02857   0.20820   0.23677   0.95847
         Item               Value     Threshold  Converged?
 Maximum Force            0.016484     0.000450     NO 
 RMS     Force            0.004730     0.000300     NO 
 Maximum Displacement     0.684791     0.001800     NO 
 RMS     Displacement     0.157479     0.001200     NO 
 Predicted change in Energy=-3.722266D-03
 GradGradGradGradGradGradGradGradGradGradGradGradGradGradGradGradGradGrad

                          Input orientation:                          
 ---------------------------------------------------------------------
 Center     Atomic      Atomic             Coordinates (Angstroms)
 Number     Number       Type             X           Y           Z
 ---------------------------------------------------------------------
      1          7           0        1.055364   -0.868809    0.209127
      2          7           0        1.643619    0.059494    0.947857
      3          6           0        1.819528    1.141810    0.197946
      4          6           0        1.308331    0.792152   -1.050608
      5          7           0        0.849210   -0.463630   -1.003740
      6          1           0        2.271862    2.043046    0.582334
      7          1           0        1.250982    1.377532   -1.953951
      8          1           0        1.889071   -0.114030    1.924461
      9          1           0        0.866320   -1.805019    0.597448
     10          6           0       -0.723652   -3.237100   -1.457204
     11          8           0       -0.634083   -2.942292   -0.333383
     12          8           0       -0.824378   -3.547836   -2.571124
 ---------------------------------------------------------------------
                    Distance matrix (angstroms):
                    1          2          3          4          5
     1  N    0.000000
     2  N    1.324203   0.000000
     3  C    2.150967   1.328427   0.000000
     4  C    2.099932   2.154778   1.393725   0.000000
     5  N    1.295267   2.171055   2.227780   1.337900   0.000000
     6  H    3.177743   2.112528   1.079160   2.271481   3.289832
     7  H    3.124616   3.211212   2.238185   1.077956   2.110497
     8  H    2.051129   1.021818   2.136076   3.163773   3.126962
     9  H    1.031029   2.050217   3.122820   3.107532   2.088880
    10  C    3.398583   4.717609   5.327489   4.530911   3.220507
    11  O    2.729080   3.979978   4.793997   4.270065   2.965351
    12  O    4.294230   5.611335   6.053988   5.069114   3.843165
                    6          7          8          9         10
     6  H    0.000000
     7  H    2.813867   0.000000
     8  H    2.569204   4.204045   0.000000
     9  H    4.096753   4.097101   2.380426   0.000000
    10  C    6.404121   5.043885   5.292972   2.966557   0.000000
    11  O    5.842658   4.984034   4.411715   2.100248   1.165294
    12  O    7.126638   5.380267   6.274083   3.991957   1.160827
                   11         12
    11  O    0.000000
    12  O    2.326023   0.000000
 Stoichiometry    C3H4N3O2(1+)
 Framework group  C1[X(C3H4N3O2)]
 Deg. of freedom    30
 Full point group                 C1      NOp   1
 Largest Abelian subgroup         C1      NOp   1
 Largest concise Abelian subgroup C1      NOp   1
                         Standard orientation:                         
 ---------------------------------------------------------------------
 Center     Atomic      Atomic             Coordinates (Angstroms)
 Number     Number       Type             X           Y           Z
 ---------------------------------------------------------------------
      1          7           0        0.740866   -0.609825   -0.153769
      2          7           0        2.034843   -0.889326   -0.121919
      3          6           0        2.703402    0.243863    0.061465
      4          6           0        1.718458    1.228071    0.122210
      5          7           0        0.516156    0.658841   -0.020696
      6          1           0        3.779683    0.273696    0.134387
      7          1           0        1.822942    2.291786    0.262149
      8          1           0        2.375431   -1.846476   -0.231350
      9          1           0        0.048624   -1.353611   -0.328710
     10          6           0       -2.612999   -0.099486    0.049968
     11          8           0       -1.919926   -0.998971    0.311668
     12          8           0       -3.320437    0.784231   -0.207123
 ---------------------------------------------------------------------
 Rotational constants (GHZ):           6.2371778           0.9430081           0.8279060
 Standard basis: 6-31+G(d,p) (6D, 7F)
 There are   172 symmetry adapted cartesian basis functions of A   symmetry.
 There are   172 symmetry adapted basis functions of A   symmetry.
   172 basis functions,   284 primitive gaussians,   172 cartesian basis functions
    29 alpha electrons       29 beta electrons
       nuclear repulsion energy       339.1996142585 Hartrees.
 NAtoms=   12 NActive=   12 NUniq=   12 SFac= 1.00D+00 NAtFMM=   60 NAOKFM=F Big=F
 Integral buffers will be    131072 words long.
 Raffenetti 2 integral format.
 Two-electron integral symmetry is turned on.
 ------------------------------------------------------------------------------
 Polarizable Continuum Model (PCM)
 =================================
 Model                : PCM.
 Atomic radii         : SMD-Coulomb.
 Polarization charges : Total charges.
 Charge compensation  : None.
 Solution method      : On-the-fly selection.
 Cavity type          : VdW (van der Waals Surface) (Alpha=1.000).
 Cavity algorithm     : GePol (No added spheres)
                        Default sphere list used, NSphG=   12.
                        Lebedev-Laikov grids with approx.  5.0 points / Ang**2.
                        Smoothing algorithm: York/Karplus (Gamma=1.0000).
                        Polarization charges: spherical gaussians, with
                                              point-specific exponents (IZeta= 3).
                        Self-potential: point-specific (ISelfS= 7).
                        Self-field    : sphere-specific E.n sum rule (ISelfD= 2).
 1st derivatives      : Analytical E(r).r(x)/FMM algorithm (CHGder, D1EAlg=3).
                        Cavity 1st derivative terms included.
 Solvent              : Water, Eps=  78.355300 Eps(inf)=   1.777849
 ------------------------------------------------------------------------------
 Spheres list:
 ISph  on   Nord     Re0    Alpha      Xe            Ye            Ze
    1   N      1    1.8900  1.000      0.740866     -0.609825     -0.153769
    2   N      2    1.8900  1.000      2.034843     -0.889326     -0.121919
    3   C      3    1.8500  1.000      2.703402      0.243863      0.061465
    4   C      4    1.8500  1.000      1.718458      1.228071      0.122210
    5   N      5    1.8900  1.000      0.516156      0.658841     -0.020696
    6   H      6    1.2000  1.000      3.779683      0.273696      0.134387
    7   H      7    1.2000  1.000      1.822942      2.291786      0.262149
    8   H      8    1.2000  1.000      2.375431     -1.846476     -0.231350
    9   H      9    1.2000  1.000      0.048624     -1.353611     -0.328710
   10   C     10    1.8500  1.000     -2.612999     -0.099486      0.049968
   11   O     11    1.5200  1.000     -1.919926     -0.998971      0.311668
   12   O     12    1.5200  1.000     -3.320437      0.784231     -0.207123
 ------------------------------------------------------------------------------
 ------------------------------------------------------------------------------
 Atomic radii for non-electrostatic terms: SMD-CDS.
 ------------------------------------------------------------------------------
 Nuclear repulsion after PCM non-electrostatic terms =      339.2108393059 Hartrees.
 One-electron integrals computed using PRISM.
 NBasis=   172 RedAO= T EigKep=  5.01D-05  NBF=   172
 NBsUse=   172 1.00D-06 EigRej= -1.00D+00 NBFU=   172
 Initial guess from the checkpoint file:  "/scratch/gongke2021/2-H-1-H-Tz-2/Gau-23124.chk"
 B after Tr=    -0.000000    0.000000    0.000000
         Rot=    0.999990    0.003216   -0.000470    0.003062 Ang=   0.51 deg.
 ExpMin= 4.38D-02 ExpMax= 5.48D+03 ExpMxC= 8.25D+02 IAcc=2 IRadAn=         4 AccDes= 0.00D+00
 Harris functional with IExCor= 1009 and IRadAn=       4 diagonalized for initial guess.
 HarFok:  IExCor= 1009 AccDes= 0.00D+00 IRadAn=         4 IDoV= 1 UseB2=F ITyADJ=14
 ICtDFT=  3500011 ScaDFX=  1.000000  1.000000  1.000000  1.000000
 FoFCou: FMM=F IPFlag=           0 FMFlag=      100000 FMFlg1=           0
         NFxFlg=           0 DoJE=T BraDBF=F KetDBF=T FulRan=T
         wScrn=  0.000000 ICntrl=       500 IOpCl=  0 I1Cent=   200000004 NGrid=           0
         NMat0=    1 NMatS0=      1 NMatT0=    0 NMatD0=    1 NMtDS0=    0 NMtDT0=    0
 Petite list used in FoFCou.
 Keep R1 ints in memory in canonical form, NReq=134699993.
 Requested convergence on RMS density matrix=1.00D-08 within 128 cycles.
 Requested convergence on MAX density matrix=1.00D-06.
 Requested convergence on             energy=1.00D-06.
 No special actions if energy rises.
 Inv3:  Mode=1 IEnd=     3810387.
 Iteration    1 A*A^-1 deviation from unit magnitude is 3.00D-15 for    195.
 Iteration    1 A*A^-1 deviation from orthogonality  is 2.58D-15 for    558    247.
 Iteration    1 A^-1*A deviation from unit magnitude is 2.66D-15 for    219.
 Iteration    1 A^-1*A deviation from orthogonality  is 4.50D-12 for    615    501.
 Error on total polarization charges =  0.02555
 SCF Done:  E(RM062X) =  -431.096501193     A.U. after   12 cycles
            NFock= 12  Conv=0.72D-08     -V/T= 2.0086
 SMD-CDS (non-electrostatic) energy       (kcal/mol) =       7.04
 (included in total energy above)
 D1PCM: PCM CHGder 1st derivatives, ID1Alg=3 FixD1E=F DoIter=F DoCFld=F I1PDM=0.
 Calling FoFJK, ICntrl=      2127 FMM=F ISym2X=0 I1Cent= 0 IOpClX= 0 NMat=1 NMatS=1 NMatT=0.
 ***** Axes restored to original set *****
 -------------------------------------------------------------------
 Center     Atomic                   Forces (Hartrees/Bohr)
 Number     Number              X              Y              Z
 -------------------------------------------------------------------
      1        7           0.006336761   -0.002747664    0.011117163
      2        7          -0.000797398   -0.000012725   -0.001280961
      3        6          -0.000052822    0.000152558   -0.001989590
      4        6           0.000140889    0.001950959   -0.000391755
      5        7          -0.001757733   -0.002991710    0.000899368
      6        1           0.000034543    0.000007537   -0.000215635
      7        1           0.000161722    0.000297539    0.000090705
      8        1          -0.000662235   -0.000155770    0.000236762
      9        1          -0.001283352    0.006132531   -0.007668060
     10        6          -0.000922302   -0.001475827    0.001106439
     11        8          -0.001772382   -0.002375626   -0.001598899
     12        8           0.000574309    0.001218198   -0.000305537
 -------------------------------------------------------------------
 Cartesian Forces:  Max     0.011117163 RMS     0.002937452

 GradGradGradGradGradGradGradGradGradGradGradGradGradGradGradGradGradGrad
 Berny optimization.
 Using GEDIIS/GDIIS optimizer.
 FormGI is forming the generalized inverse of G from B-inverse, IUseBI=4.
 Internal  Forces:  Max     0.006508286 RMS     0.001827074
 Search for a local minimum.
 Step number   3 out of a maximum of   58
 All quantities printed in internal units (Hartrees-Bohrs-Radians)
 Mixed Optimization -- RFO/linear search
 Update second derivatives using D2CorX and points    2    3
 DE= -4.13D-03 DEPred=-3.72D-03 R= 1.11D+00
 TightC=F SS=  1.41D+00  RLast= 4.24D-01 DXNew= 5.0454D-01 1.2708D+00
 Trust test= 1.11D+00 RLast= 4.24D-01 DXMaxT set to 5.05D-01
 ITU=  1  0  0
 Use linear search instead of GDIIS.
     Eigenvalues ---    0.00209   0.00728   0.02015   0.02264   0.02359
     Eigenvalues ---    0.02391   0.02474   0.02537   0.03114   0.04828
     Eigenvalues ---    0.06668   0.15232   0.16000   0.16000   0.16037
     Eigenvalues ---    0.18299   0.21993   0.23755   0.32868   0.36073
     Eigenvalues ---    0.36222   0.43562   0.43972   0.49872   0.51440
     Eigenvalues ---    0.58065   0.59245   0.65565   1.25445   1.26755
 RFO step:  Lambda=-1.07191603D-03 EMin= 2.08891162D-03
 Quartic linear search produced a step of  0.45031.
 Iteration  1 RMS(Cart)=  0.07068089 RMS(Int)=  0.02922527
 Iteration  2 RMS(Cart)=  0.07539424 RMS(Int)=  0.00393302
 Iteration  3 RMS(Cart)=  0.00640235 RMS(Int)=  0.00012432
 Iteration  4 RMS(Cart)=  0.00005839 RMS(Int)=  0.00012253
 Iteration  5 RMS(Cart)=  0.00000000 RMS(Int)=  0.00012253
 Variable       Old X    -DE/DX   Delta X   Delta X   Delta X     New X
                                 (Linear)    (Quad)   (Total)
    R1        2.50238  -0.00123   0.00072  -0.00408  -0.00335   2.49903
    R2        2.44770  -0.00020  -0.00104   0.00054  -0.00048   2.44722
    R3        1.94836  -0.00576  -0.00701  -0.01689  -0.02390   1.92446
    R4        2.51036   0.00186  -0.00142   0.00569   0.00426   2.51462
    R5        1.93096   0.00010  -0.00056   0.00076   0.00020   1.93116
    R6        2.63376  -0.00099   0.00382  -0.00519  -0.00138   2.63238
    R7        2.03932  -0.00006  -0.00016  -0.00009  -0.00024   2.03907
    R8        2.52826   0.00117  -0.00026   0.00350   0.00324   2.53151
    R9        2.03704   0.00007  -0.00036   0.00057   0.00021   2.03725
   R10        3.96889   0.00330   0.14320   0.04704   0.19025   4.15914
   R11        2.20209  -0.00067  -0.00065  -0.00116  -0.00181   2.20028
   R12        2.19365  -0.00008  -0.00214   0.00156  -0.00058   2.19307
    A1        1.95389  -0.00005   0.01028  -0.00972   0.00044   1.95433
    A2        2.10354   0.00651   0.00759   0.04331   0.05081   2.15435
    A3        2.22375  -0.00641  -0.01842  -0.03166  -0.05021   2.17355
    A4        1.89131  -0.00022  -0.00600   0.00398  -0.00206   1.88925
    A5        2.11864  -0.00026   0.00425  -0.00637  -0.00210   2.11653
    A6        2.27323   0.00048   0.00177   0.00238   0.00417   2.27740
    A7        1.82631   0.00049   0.00012   0.00358   0.00362   1.82993
    A8        2.13511  -0.00005  -0.00030   0.00014  -0.00015   2.13496
    A9        2.32176  -0.00044   0.00019  -0.00375  -0.00356   2.31821
   A10        1.90707  -0.00097   0.00435  -0.00938  -0.00507   1.90200
   A11        2.25751   0.00014  -0.00079   0.00039  -0.00038   2.25713
   A12        2.11860   0.00084  -0.00356   0.00900   0.00545   2.12405
   A13        1.84606   0.00076  -0.00880   0.01199   0.00319   1.84925
   A14        2.04402   0.00288   0.03635  -0.01777   0.01858   2.06260
   A15        2.23869  -0.00125   0.01563  -0.01231   0.00332   2.24201
   A16        3.15995  -0.00301  -0.02517   0.00962  -0.01556   3.14440
   A17        3.14214   0.00030  -0.00578   0.01724   0.01146   3.15361
    D1        0.01716  -0.00050   0.00493  -0.02715  -0.02217  -0.00501
    D2       -3.12175  -0.00045   0.00188  -0.02458  -0.02271   3.13872
    D3        3.09566  -0.00014  -0.00637   0.00180  -0.00420   3.09146
    D4       -0.04325  -0.00009  -0.00942   0.00437  -0.00474  -0.04799
    D5       -0.01476   0.00039  -0.00386   0.01970   0.01580   0.00104
    D6       -3.08792  -0.00061   0.00759  -0.01512  -0.00692  -3.09484
    D7        2.76397  -0.00025  -0.01836  -0.07160  -0.08991   2.67406
    D8       -0.45131   0.00053  -0.03071  -0.03627  -0.06702  -0.51833
    D9       -0.01161   0.00036  -0.00365   0.02170   0.01815   0.00654
   D10        3.12839   0.00019  -0.00208   0.00965   0.00757   3.13596
   D11        3.12698   0.00031  -0.00024   0.01880   0.01875  -3.13746
   D12       -0.01621   0.00013   0.00134   0.00675   0.00817  -0.00804
   D13        0.00294  -0.00014   0.00142  -0.01033  -0.00899  -0.00605
   D14        3.14074  -0.00013   0.00215  -0.00883  -0.00672   3.13402
   D15       -3.13682   0.00007  -0.00040   0.00359   0.00320  -3.13362
   D16        0.00099   0.00007   0.00033   0.00508   0.00546   0.00645
   D17        0.00698  -0.00015   0.00139  -0.00528  -0.00382   0.00316
   D18       -3.13118  -0.00015   0.00073  -0.00662  -0.00586  -3.13704
   D19        0.95847  -0.00104   0.10662   0.29391   0.40053   1.35900
         Item               Value     Threshold  Converged?
 Maximum Force            0.006508     0.000450     NO 
 RMS     Force            0.001827     0.000300     NO 
 Maximum Displacement     0.640742     0.001800     NO 
 RMS     Displacement     0.133333     0.001200     NO 
 Predicted change in Energy=-1.465723D-04
 GradGradGradGradGradGradGradGradGradGradGradGradGradGradGradGradGradGrad

                          Input orientation:                          
 ---------------------------------------------------------------------
 Center     Atomic      Atomic             Coordinates (Angstroms)
 Number     Number       Type             X           Y           Z
 ---------------------------------------------------------------------
      1          7           0        1.097661   -0.834354    0.193141
      2          7           0        1.677274    0.074750    0.958905
      3          6           0        1.852166    1.178192    0.236034
      4          6           0        1.328116    0.870557   -1.017428
      5          7           0        0.872523   -0.389111   -1.001903
      6          1           0        2.304670    2.069074    0.643313
      7          1           0        1.262001    1.486028   -1.900068
      8          1           0        1.916772   -0.125930    1.931891
      9          1           0        0.895184   -1.782920    0.503500
     10          6           0       -0.807997   -3.372082   -1.486733
     11          8           0       -0.778339   -2.851983   -0.445438
     12          8           0       -0.847856   -3.886902   -2.526052
 ---------------------------------------------------------------------
                    Distance matrix (angstroms):
                    1          2          3          4          5
     1  N    0.000000
     2  N    1.322428   0.000000
     3  C    2.149758   1.330682   0.000000
     4  C    2.103642   2.158961   1.392995   0.000000
     5  N    1.295013   2.169691   2.224551   1.339616   0.000000
     6  H    3.176385   2.114368   1.079031   2.268956   3.286405
     7  H    3.129330   3.215259   2.237407   1.078067   2.115311
     8  H    2.048428   1.021926   2.140289   3.168278   3.125199
     9  H    1.018379   2.066397   3.123385   3.088947   2.051695
    10  C    3.590763   4.902895   5.545213   4.773177   3.457937
    11  O    2.828071   4.070379   4.860686   4.315279   3.016743
    12  O    4.527372   5.849435   6.369805   5.444650   4.185364
                    6          7          8          9         10
     6  H    0.000000
     7  H    2.809963   0.000000
     8  H    2.574673   4.208449   0.000000
     9  H    4.104151   4.074029   2.414448   0.000000
    10  C    6.620573   5.296883   5.445077   3.063869   0.000000
    11  O    5.908226   5.009719   4.510730   2.200923   1.164337
    12  O    7.446942   5.806180   6.454559   4.079597   1.160522
                   11         12
    11  O    0.000000
    12  O    2.324833   0.000000
 Stoichiometry    C3H4N3O2(1+)
 Framework group  C1[X(C3H4N3O2)]
 Deg. of freedom    30
 Full point group                 C1      NOp   1
 Largest Abelian subgroup         C1      NOp   1
 Largest concise Abelian subgroup C1      NOp   1
                         Standard orientation:                         
 ---------------------------------------------------------------------
 Center     Atomic      Atomic             Coordinates (Angstroms)
 Number     Number       Type             X           Y           Z
 ---------------------------------------------------------------------
      1          7           0        0.798017   -0.583820   -0.189694
      2          7           0        2.079127   -0.910629   -0.161960
      3          6           0        2.787189    0.196741    0.045629
      4          6           0        1.839355    1.212246    0.149526
      5          7           0        0.617512    0.685174   -0.004953
      6          1           0        3.864025    0.188718    0.113950
      7          1           0        1.983660    2.266133    0.324819
      8          1           0        2.382668   -1.877981   -0.290125
      9          1           0        0.052465   -1.251758   -0.377063
     10          6           0       -2.750245   -0.096138    0.066387
     11          8           0       -1.943795   -0.841232    0.453883
     12          8           0       -3.556605    0.649072   -0.309456
 ---------------------------------------------------------------------
 Rotational constants (GHZ):           6.6533882           0.8527724           0.7705079
 Standard basis: 6-31+G(d,p) (6D, 7F)
 There are   172 symmetry adapted cartesian basis functions of A   symmetry.
 There are   172 symmetry adapted basis functions of A   symmetry.
   172 basis functions,   284 primitive gaussians,   172 cartesian basis functions
    29 alpha electrons       29 beta electrons
       nuclear repulsion energy       334.9581586023 Hartrees.
 NAtoms=   12 NActive=   12 NUniq=   12 SFac= 1.00D+00 NAtFMM=   60 NAOKFM=F Big=F
 Integral buffers will be    131072 words long.
 Raffenetti 2 integral format.
 Two-electron integral symmetry is turned on.
 ------------------------------------------------------------------------------
 Polarizable Continuum Model (PCM)
 =================================
 Model                : PCM.
 Atomic radii         : SMD-Coulomb.
 Polarization charges : Total charges.
 Charge compensation  : None.
 Solution method      : On-the-fly selection.
 Cavity type          : VdW (van der Waals Surface) (Alpha=1.000).
 Cavity algorithm     : GePol (No added spheres)
                        Default sphere list used, NSphG=   12.
                        Lebedev-Laikov grids with approx.  5.0 points / Ang**2.
                        Smoothing algorithm: York/Karplus (Gamma=1.0000).
                        Polarization charges: spherical gaussians, with
                                              point-specific exponents (IZeta= 3).
                        Self-potential: point-specific (ISelfS= 7).
                        Self-field    : sphere-specific E.n sum rule (ISelfD= 2).
 1st derivatives      : Analytical E(r).r(x)/FMM algorithm (CHGder, D1EAlg=3).
                        Cavity 1st derivative terms included.
 Solvent              : Water, Eps=  78.355300 Eps(inf)=   1.777849
 ------------------------------------------------------------------------------
 Spheres list:
 ISph  on   Nord     Re0    Alpha      Xe            Ye            Ze
    1   N      1    1.8900  1.000      0.798017     -0.583820     -0.189694
    2   N      2    1.8900  1.000      2.079127     -0.910629     -0.161960
    3   C      3    1.8500  1.000      2.787189      0.196741      0.045629
    4   C      4    1.8500  1.000      1.839355      1.212246      0.149526
    5   N      5    1.8900  1.000      0.617512      0.685174     -0.004953
    6   H      6    1.2000  1.000      3.864025      0.188718      0.113950
    7   H      7    1.2000  1.000      1.983660      2.266133      0.324819
    8   H      8    1.2000  1.000      2.382668     -1.877981     -0.290125
    9   H      9    1.2000  1.000      0.052465     -1.251758     -0.377063
   10   C     10    1.8500  1.000     -2.750245     -0.096138      0.066387
   11   O     11    1.5200  1.000     -1.943795     -0.841232      0.453883
   12   O     12    1.5200  1.000     -3.556605      0.649072     -0.309456
 ------------------------------------------------------------------------------
 ------------------------------------------------------------------------------
 Atomic radii for non-electrostatic terms: SMD-CDS.
 ------------------------------------------------------------------------------
 Nuclear repulsion after PCM non-electrostatic terms =      334.9696103235 Hartrees.
 One-electron integrals computed using PRISM.
 NBasis=   172 RedAO= T EigKep=  5.53D-05  NBF=   172
 NBsUse=   172 1.00D-06 EigRej= -1.00D+00 NBFU=   172
 Initial guess from the checkpoint file:  "/scratch/gongke2021/2-H-1-H-Tz-2/Gau-23124.chk"
 B after Tr=    -0.000000   -0.000000   -0.000000
         Rot=    0.999882    0.015308   -0.001452    0.000670 Ang=   1.76 deg.
 ExpMin= 4.38D-02 ExpMax= 5.48D+03 ExpMxC= 8.25D+02 IAcc=2 IRadAn=         4 AccDes= 0.00D+00
 Harris functional with IExCor= 1009 and IRadAn=       4 diagonalized for initial guess.
 HarFok:  IExCor= 1009 AccDes= 0.00D+00 IRadAn=         4 IDoV= 1 UseB2=F ITyADJ=14
 ICtDFT=  3500011 ScaDFX=  1.000000  1.000000  1.000000  1.000000
 FoFCou: FMM=F IPFlag=           0 FMFlag=      100000 FMFlg1=           0
         NFxFlg=           0 DoJE=T BraDBF=F KetDBF=T FulRan=T
         wScrn=  0.000000 ICntrl=       500 IOpCl=  0 I1Cent=   200000004 NGrid=           0
         NMat0=    1 NMatS0=      1 NMatT0=    0 NMatD0=    1 NMtDS0=    0 NMtDT0=    0
 Petite list used in FoFCou.
 Keep R1 ints in memory in canonical form, NReq=134699993.
 Requested convergence on RMS density matrix=1.00D-08 within 128 cycles.
 Requested convergence on MAX density matrix=1.00D-06.
 Requested convergence on             energy=1.00D-06.
 No special actions if energy rises.
 Inv3:  Mode=1 IEnd=     3974403.
 Iteration    1 A*A^-1 deviation from unit magnitude is 3.55D-15 for    549.
 Iteration    1 A*A^-1 deviation from orthogonality  is 2.52D-15 for    541    267.
 Iteration    1 A^-1*A deviation from unit magnitude is 3.77D-15 for    549.
 Iteration    1 A^-1*A deviation from orthogonality  is 1.39D-15 for    126    120.
 Error on total polarization charges =  0.02573
 SCF Done:  E(RM062X) =  -431.096907576     A.U. after   14 cycles
            NFock= 14  Conv=0.52D-08     -V/T= 2.0085
 SMD-CDS (non-electrostatic) energy       (kcal/mol) =       7.19
 (included in total energy above)
 D1PCM: PCM CHGder 1st derivatives, ID1Alg=3 FixD1E=F DoIter=F DoCFld=F I1PDM=0.
 Calling FoFJK, ICntrl=      2127 FMM=F ISym2X=0 I1Cent= 0 IOpClX= 0 NMat=1 NMatS=1 NMatT=0.
 ***** Axes restored to original set *****
 -------------------------------------------------------------------
 Center     Atomic                   Forces (Hartrees/Bohr)
 Number     Number              X              Y              Z
 -------------------------------------------------------------------
      1        7           0.001888012    0.004716978   -0.001052457
      2        7           0.001413239   -0.001251024   -0.000574717
      3        6          -0.001686427    0.000361541   -0.000473851
      4        6           0.000174885   -0.000618551    0.001347917
      5        7           0.000487683    0.000087609   -0.001455780
      6        1           0.000055436   -0.000076774    0.000306104
      7        1           0.000080354   -0.000036870    0.000080201
      8        1           0.000103082    0.000058818    0.000107019
      9        1          -0.001854291   -0.002187273    0.001644535
     10        6          -0.000746246    0.001557867    0.000999411
     11        8          -0.000353364   -0.001627463    0.000571115
     12        8           0.000437637   -0.000984858   -0.001499496
 -------------------------------------------------------------------
 Cartesian Forces:  Max     0.004716978 RMS     0.001292830

 GradGradGradGradGradGradGradGradGradGradGradGradGradGradGradGradGradGrad
 Berny optimization.
 Using GEDIIS/GDIIS optimizer.
 FormGI is forming the generalized inverse of G from B-inverse, IUseBI=4.
 Internal  Forces:  Max     0.004073719 RMS     0.000888324
 Search for a local minimum.
 Step number   4 out of a maximum of   58
 All quantities printed in internal units (Hartrees-Bohrs-Radians)
 Mixed Optimization -- En-DIIS/RFO-DIIS
 Update second derivatives using D2CorX and points    3    4
 DE= -4.06D-04 DEPred=-1.47D-04 R= 2.77D+00
 TightC=F SS=  1.41D+00  RLast= 4.67D-01 DXNew= 8.4853D-01 1.4011D+00
 Trust test= 2.77D+00 RLast= 4.67D-01 DXMaxT set to 8.49D-01
 ITU=  1  1  0  0
 Use linear search instead of GDIIS.
     Eigenvalues ---    0.00165   0.00677   0.02009   0.02177   0.02273
     Eigenvalues ---    0.02369   0.02442   0.02541   0.02751   0.04930
     Eigenvalues ---    0.06304   0.15758   0.15999   0.16000   0.16102
     Eigenvalues ---    0.18484   0.21940   0.24612   0.32789   0.36073
     Eigenvalues ---    0.36225   0.43761   0.43997   0.51421   0.56380
     Eigenvalues ---    0.58262   0.59605   0.65602   1.25444   1.27177
 RFO step:  Lambda=-4.50684352D-04 EMin= 1.64736122D-03
 Quartic linear search produced a step of -0.22121.
 Iteration  1 RMS(Cart)=  0.05089262 RMS(Int)=  0.02513499
 Iteration  2 RMS(Cart)=  0.06401389 RMS(Int)=  0.00292027
 Iteration  3 RMS(Cart)=  0.00485571 RMS(Int)=  0.00005427
 Iteration  4 RMS(Cart)=  0.00002881 RMS(Int)=  0.00005313
 Iteration  5 RMS(Cart)=  0.00000000 RMS(Int)=  0.00005313
 Variable       Old X    -DE/DX   Delta X   Delta X   Delta X     New X
                                 (Linear)    (Quad)   (Total)
    R1        2.49903  -0.00072   0.00074  -0.00172  -0.00098   2.49804
    R2        2.44722   0.00054   0.00011   0.00066   0.00076   2.44798
    R3        1.92446   0.00407   0.00529   0.00636   0.01165   1.93610
    R4        2.51462  -0.00048  -0.00094   0.00092  -0.00002   2.51460
    R5        1.93116   0.00011  -0.00005   0.00042   0.00037   1.93153
    R6        2.63238  -0.00068   0.00031  -0.00350  -0.00319   2.62919
    R7        2.03907   0.00007   0.00005   0.00013   0.00018   2.03925
    R8        2.53151  -0.00035  -0.00072   0.00036  -0.00036   2.53115
    R9        2.03725  -0.00009  -0.00005   0.00000  -0.00005   2.03721
   R10        4.15914   0.00097  -0.04208   0.04249   0.00041   4.15955
   R11        2.20028   0.00018   0.00040   0.00032   0.00072   2.20100
[...]
    D7        3.01256   0.00000   0.00000  -0.00016  -0.00016   3.01240
    D8       -0.12522   0.00000   0.00000  -0.00027  -0.00027  -0.12550
    D9       -0.00041   0.00000   0.00000   0.00003   0.00003  -0.00038
   D10        3.14088  -0.00000   0.00000  -0.00009  -0.00009   3.14078
   D11       -3.13825  -0.00000   0.00000  -0.00005  -0.00005  -3.13831
   D12        0.00303  -0.00000   0.00000  -0.00017  -0.00017   0.00286
   D13        0.00039  -0.00000   0.00000  -0.00003  -0.00003   0.00036
   D14       -3.14108  -0.00000   0.00000   0.00001   0.00001  -3.14107
   D15       -3.14084   0.00000   0.00000   0.00011   0.00011  -3.14074
   D16        0.00087   0.00000   0.00000   0.00015   0.00015   0.00101
   D17       -0.00022   0.00000   0.00000   0.00002   0.00002  -0.00020
   D18        3.14127  -0.00000   0.00000  -0.00001  -0.00001   3.14125
   D19        0.21096   0.00000   0.00000   0.00064   0.00064   0.21161
         Item               Value     Threshold  Converged?
 Maximum Force            0.000005     0.000450     YES
 RMS     Force            0.000002     0.000300     YES
 Maximum Displacement     0.000772     0.001800     YES
 RMS     Displacement     0.000178     0.001200     YES
 Predicted change in Energy=-1.685204D-09
 Optimization completed.
    -- Stationary point found.
                           ----------------------------
                           !   Optimized Parameters   !
                           ! (Angstroms and Degrees)  !
 --------------------------                            --------------------------
 ! Name  Definition              Value          Derivative Info.                !
 --------------------------------------------------------------------------------
 ! R1    R(1,2)                  1.3207         -DE/DX =    0.0                 !
 ! R2    R(1,5)                  1.2959         -DE/DX =    0.0                 !
 ! R3    R(1,9)                  1.0219         -DE/DX =    0.0                 !
 ! R4    R(2,3)                  1.3308         -DE/DX =    0.0                 !
 ! R5    R(2,8)                  1.0226         -DE/DX =    0.0                 !
 ! R6    R(3,4)                  1.3924         -DE/DX =    0.0                 !
 ! R7    R(3,6)                  1.0792         -DE/DX =    0.0                 !
 ! R8    R(4,5)                  1.3393         -DE/DX =    0.0                 !
 ! R9    R(4,7)                  1.0781         -DE/DX =    0.0                 !
 ! R10   R(9,11)                 2.3716         -DE/DX =    0.0                 !
 ! R11   R(10,11)                1.1647         -DE/DX =    0.0                 !
 ! R12   R(10,12)                1.1617         -DE/DX =    0.0                 !
 ! A1    A(2,1,5)              112.0357         -DE/DX =    0.0                 !
 ! A2    A(2,1,9)              123.2322         -DE/DX =    0.0                 !
 ! A3    A(5,1,9)              124.7318         -DE/DX =    0.0                 !
 ! A4    A(1,2,3)              108.2315         -DE/DX =    0.0                 !
 ! A5    A(1,2,8)              121.2551         -DE/DX =    0.0                 !
 ! A6    A(3,2,8)              130.5131         -DE/DX =    0.0                 !
 ! A7    A(2,3,4)              104.86           -DE/DX =    0.0                 !
 ! A8    A(2,3,6)              122.2269         -DE/DX =    0.0                 !
 ! A9    A(4,3,6)              132.9131         -DE/DX =    0.0                 !
 ! A10   A(3,4,5)              108.9963         -DE/DX =    0.0                 !
 ! A11   A(3,4,7)              129.3217         -DE/DX =    0.0                 !
 ! A12   A(5,4,7)              121.6819         -DE/DX =    0.0                 !
 ! A13   A(1,5,4)              105.8764         -DE/DX =    0.0                 !
 ! A14   A(1,9,11)             114.6881         -DE/DX =    0.0                 !
 ! A15   A(9,11,10)            117.4493         -DE/DX =    0.0                 !
 ! A16   L(11,10,12,3,-1)      180.9376         -DE/DX =    0.0                 !
 ! A17   L(11,10,12,3,-2)      180.0194         -DE/DX =    0.0                 !
 ! D1    D(5,1,2,3)              0.0171         -DE/DX =    0.0                 !
 ! D2    D(5,1,2,8)            179.826          -DE/DX =    0.0                 !
 ! D3    D(9,1,2,3)           -179.7891         -DE/DX =    0.0                 !
 ! D4    D(9,1,2,8)              0.0198         -DE/DX =    0.0                 !
 ! D5    D(2,1,5,4)             -0.0025         -DE/DX =    0.0                 !
 ! D6    D(9,1,5,4)            179.8004         -DE/DX =    0.0                 !
 ! D7    D(2,1,9,11)           172.6067         -DE/DX =    0.0                 !
 ! D8    D(5,1,9,11)            -7.1748         -DE/DX =    0.0                 !
 ! D9    D(1,2,3,4)             -0.0234         -DE/DX =    0.0                 !
 ! D10   D(1,2,3,6)            179.9589         -DE/DX =    0.0                 !
 ! D11   D(8,2,3,4)           -179.8085         -DE/DX =    0.0                 !
 ! D12   D(8,2,3,6)              0.1738         -DE/DX =    0.0                 !
 ! D13   D(2,3,4,5)              0.0224         -DE/DX =    0.0                 !
 ! D14   D(2,3,4,7)           -179.9707         -DE/DX =    0.0                 !
 ! D15   D(6,3,4,5)           -179.9571         -DE/DX =    0.0                 !
 ! D16   D(6,3,4,7)              0.0497         -DE/DX =    0.0                 !
 ! D17   D(3,4,5,1)             -0.0125         -DE/DX =    0.0                 !
 ! D18   D(7,4,5,1)            179.9812         -DE/DX =    0.0                 !
 ! D19   D(1,9,11,10)           12.0872         -DE/DX =    0.0                 !
 --------------------------------------------------------------------------------
 GradGradGradGradGradGradGradGradGradGradGradGradGradGradGradGradGradGrad


 ----------------------------------------------------------------------

 Electric dipole moment (input orientation):
 (Debye = 10**-18 statcoulomb cm , SI units = C m)
                  (au)            (Debye)         (10**-30 SI)
   Tot        0.441067D+01      0.112108D+02      0.373952D+02
   x          0.206932D+01      0.525968D+01      0.175444D+02
   y          0.245415D+01      0.623782D+01      0.208071D+02
   z          0.302475D+01      0.768814D+01      0.256449D+02

 Dipole polarizability, Alpha (input orientation).
 (esu units = cm**3 , SI units = C**2 m**2 J**-1)
 Alpha(0;0):
               (au)            (10**-24 esu)      (10**-40 SI)
   iso        0.685905D+02      0.101641D+02      0.113091D+02
   aniso      0.444725D+02      0.659014D+01      0.733252D+01
   xx         0.475016D+02      0.703901D+01      0.783195D+01
   yx         0.100167D+02      0.148432D+01      0.165153D+01
   yy         0.707152D+02      0.104789D+02      0.116594D+02
   zx         0.100217D+02      0.148506D+01      0.165235D+01
   zy        -0.735174D+01     -0.108942D+01     -0.121214D+01
   zz         0.875548D+02      0.129743D+02      0.144358D+02

 ----------------------------------------------------------------------

 Dipole orientation:
     7          1.67509014         -2.11853176          0.49033532
     7          1.81708941         -1.35126668          2.86088551
     6          2.48603271          1.07292614          2.86448595
     6          2.73701535          1.70746518          0.32328204
     7          2.21666568         -0.32718414         -1.08918557
     1          2.72632308          2.13227043          4.59054445
     1          3.25477285          3.48953178         -0.51728390
     1          1.43713635         -2.55087556          4.32748246
     1          1.18701762         -3.91820744         -0.01216178
     6          1.28394485         -2.94034424         -5.76182252
     8          0.60351447         -4.54017824         -4.41193211
     8          1.95484926         -1.36560740         -7.13635396

 Electric dipole moment (dipole orientation):
 (Debye = 10**-18 statcoulomb cm , SI units = C m)
                  (au)            (Debye)         (10**-30 SI)
   Tot        0.441067D+01      0.112108D+02      0.373952D+02
   x          0.000000D+00      0.000000D+00      0.000000D+00
   y          0.000000D+00      0.000000D+00      0.000000D+00
   z          0.441067D+01      0.112108D+02      0.373952D+02

 Dipole polarizability, Alpha (dipole orientation).
 (esu units = cm**3 , SI units = C**2 m**2 J**-1)
 Alpha(0;0):
               (au)            (10**-24 esu)      (10**-40 SI)
   iso        0.685905D+02      0.101641D+02      0.113091D+02
   aniso      0.444725D+02      0.659014D+01      0.733252D+01
   xx         0.449333D+02      0.665843D+01      0.740850D+01
   yx         0.129332D+02      0.191650D+01      0.213239D+01
   yy         0.812452D+02      0.120393D+02      0.133955D+02
   zx        -0.429969D+01     -0.637148D+00     -0.708923D+00
   zy        -0.728583D+01     -0.107965D+01     -0.120127D+01
   zz         0.795931D+02      0.117945D+02      0.131231D+02

 ----------------------------------------------------------------------
 1\1\GINC-NODE5\Freq\RM062X\6-31+G(d,p)\C3H4N3O2(1+)\GONGKE2021\13-May-
 2023\0\\#N Geom=AllCheck Guess=TCheck SCRF=Check GenChk RM062X/6-31+G(
 d,p) Freq\\2-H-1-H-Tz\\1,1\N,1.0660164298,-0.9080823151,0.3858490282\N
 ,1.6570103439,0.1097204875,0.984951889\C,1.767024667,1.1032009523,0.10
 64006496\C,1.199596934,0.6085190155,-1.064945091\N,0.7762482334,-0.643
 6844316,-0.8492589994\H,2.2192987002,2.0493615954,0.361215531\H,1.0830
 910421,1.0884372747,-2.0232410184\H,1.9446130451,0.0544567313,1.964722
 3671\H,0.8641811325,-1.7934917142,0.8545635109\C,-0.5988204436,-3.0719
 341097,-1.5439694933\O,-0.4456406258,-3.309833354,-0.4141100244\O,-0.7
 604440386,-2.8513513921,-2.6730165594\\Version=ES64L-G16RevA.03\State=
 1-A\HF=-431.0985137\RMSD=2.407e-09\RMSF=1.688e-05\ZeroPoint=0.0857945\
 Thermal=0.0936559\Dipole=2.0693162,2.4541455,3.0247484\DipoleDeriv=0.0
 335007,-0.0416487,0.2263318,-0.1366079,-0.7799319,0.5076047,0.33374,0.
 7882179,0.0533291,-0.1383843,0.1544167,-0.2876133,0.1612763,0.3907136,
 -0.0959993,-0.2954871,-0.1192924,-0.8869027,0.1119594,0.1233031,0.0277
 023,-0.0445617,0.0309314,-0.1114988,0.2321445,0.4086401,0.2825165,-0.1
 056198,-0.201942,0.0840069,-0.1101864,-0.3199434,-0.0188704,-0.028223,
 -0.3005196,0.2361871,-0.2492679,-0.058279,-0.0332078,0.0959256,0.15230
 3,-0.149193,-0.2162925,-0.6231235,-0.1296161,0.2403337,0.0128184,-0.00
 94573,0.0209958,0.2777239,0.0176607,-0.019025,-0.0060794,0.1863368,0.2
 115889,-0.01638,-0.0211881,-0.0234892,0.1840087,-0.0227742,-0.0124904,
 0.0046088,0.1805341,0.456504,-0.0435766,0.0750537,-0.0420202,0.346473,
 -0.0028603,0.0741349,-0.006615,0.6912444,0.4411959,0.0503958,-0.036965
 8,0.0692369,0.6870772,-0.1049662,-0.0659925,-0.157802,0.4166715,0.8105
 688,0.0064759,0.4203713,-0.0133864,0.9474346,-0.5271745,0.4472708,-0.4
 647436,3.5480674,-0.4187969,-0.0017407,-0.2313814,-0.0030312,-0.491718
 2,0.2502066,-0.2188057,0.2574036,-1.8045782,-0.3935825,0.0161569,-0.21
 36525,0.0258485,-0.4250718,0.2578645,-0.230974,0.2193053,-1.7737899\Po
 lar=47.5015652,10.0167104,70.7152299,10.0216605,-7.3517406,87.5548037\
 Quadrupole=-5.236786,4.2200413,1.0167446,7.0345952,5.7572365,3.5567225
 \PG=C01 [X(C3H4N3O2)]\NImag=0\\0.24109833,0.24980873,0.91043865,0.1229
 9120,-0.21583875,0.76156622,-0.11971576,-0.09994384,-0.06895663,0.2548
 8172,-0.11274652,-0.27097782,-0.08602498,0.17604650,0.64980829,-0.0544
 5680,-0.04891580,-0.17356592,0.23464312,-0.11550273,0.99634206,-0.0009
 1053,-0.03042534,-0.01152238,-0.08421151,-0.04215788,0.00009187,0.2983
 5647,-0.04707041,-0.10815614,0.00313453,-0.03758777,-0.28007776,0.1450
 2301,0.28015257,0.84634716,0.00924255,0.05652331,-0.02527160,-0.006272
 53,0.12908428,-0.24695678,0.14892980,0.00794889,0.59814498,0.00884878,
 -0.02521604,0.01893070,0.01203817,0.03291010,-0.03709237,-0.12005779,-
 0.05241495,-0.07924311,0.24100084,-0.00478325,-0.08068875,0.09878046,0
 .00559345,0.04166292,-0.01949664,-0.03948493,-0.14646901,-0.03438543,0
 .12503349,0.61548380,-0.00634066,0.03412173,-0.04940447,-0.00309421,0.
 06583022,-0.07905364,-0.09569669,-0.07531139,-0.28095961,0.15109476,-0
 .18823528,0.84930002,-0.09634206,-0.01146578,-0.06008365,-0.00432478,-
 0.03226125,-0.04356503,0.00148512,-0.02391740,-0.02792386,-0.10969442,
 -0.09013692,-0.00335985,0.21063420,0.00822419,-0.11669405,0.08133100,-
 0.02514278,-0.04342149,0.00246198,-0.05048735,-0.03352971,-0.09276207,
 -0.08858302,-0.32643853,0.03371873,0.15421134,0.53921593,-0.08373144,0
 .02089292,-0.36223785,-0.05235840,-0.02011188,-0.11717163,0.00494507,-
 0.00924703,0.04642960,-0.00544002,0.02807574,-0.12597436,0.12504393,-0
 .04775939,0.56394127,0.00490258,0.00037235,-0.00224875,0.00031186,0.00
 258871,0.00083905,-0.09753367,-0.12896736,-0.03847508,0.00047099,-0.00
 444409,0.00181611,0.00395448,-0.00276397,-0.00220250,0.08979084,-0.000
 36194,0.00210592,0.00299786,-0.00746434,-0.01413343,-0.00728453,-0.125
 25165,-0.30144941,-0.06316480,0.00095963,0.00393033,0.00018770,-0.0009
 6298,0.00184711,0.00174411,0.13238159,0.30809090,-0.00128284,0.0054262
 7,-0.00530713,0.01326624,0.02435729,0.01073766,-0.04310542,-0.07489955
 ,-0.07694130,-0.00482635,-0.01678270,0.00710189,-0.00442526,-0.0038989
 4,-0.00330505,0.03917522,0.06597393,0.06628397,0.00528623,-0.00524936,
 -0.00035335,0.00318656,-0.00307909,-0.00391812,0.00069527,0.00717574,-
 0.00712817,-0.04185851,0.00998555,-0.04204391,-0.00356676,-0.00187340,
 0.01328958,-0.00141596,0.00046045,0.00073487,0.03508979,-0.00424167,-0
 .00472878,0.00172403,-0.00390101,-0.00096716,-0.00410475,0.00040820,0.
 01086707,-0.01194627,0.00762138,-0.11246980,0.12310491,0.00672099,-0.0
 1074771,0.02559298,0.00069999,-0.00037543,0.00041413,-0.00742509,0.116
 63916,-0.00159932,-0.00135877,0.00408377,-0.00286977,-0.00139426,-0.00
 166237,0.00125468,0.00931843,-0.00739178,-0.03911454,0.13045563,-0.316
 37315,0.00261116,-0.00154056,0.00305436,0.00044287,-0.00032822,-0.0000
 3229,0.03946676,-0.13613150,0.31755330,-0.00944723,0.00581447,-0.01286
 215,-0.05382092,-0.01163661,-0.10855647,0.00125439,0.00437334,0.005454
 34,0.00429654,-0.00222631,0.00101131,0.00434299,-0.00467763,-0.0006146
 3,-0.00219535,0.00107576,0.00045565,0.00098903,0.00011662,-0.00000756,
 0.05543470,-0.00387161,0.00933681,-0.03346443,-0.00782272,-0.06632266,
 0.03774640,0.00994083,0.00983454,0.01657293,-0.00134856,-0.00326662,0.
 00571876,-0.00554417,-0.00567215,-0.00243834,0.00072959,-0.00001649,-0
 .00110220,0.00025760,0.00111800,0.00058714,0.00722543,0.05519195,-0.00
 068140,-0.00279834,-0.00646317,-0.11350966,0.02569897,-0.40544651,-0.0
 0141376,-0.00109420,-0.00527024,-0.00011015,0.00290566,0.00099568,0.00
 053646,0.00031797,0.00746366,0.00087430,0.00000517,0.00002563,-0.00017
 556,0.00015993,0.00021184,0.11448229,-0.02394071,0.40788585,-0.0319397
 9,-0.08267668,0.01576749,-0.00871409,-0.00978667,0.01131203,0.00093589
 ,-0.00160360,-0.00450952,0.00492488,0.00061502,-0.00361997,-0.00513827
 ,0.01316406,0.00194160,0.00171963,-0.00081478,-0.00003456,0.00158618,-
 0.00000040,-0.00025915,-0.00084793,0.00038836,0.00005267,0.03724565,-0
 .08378529,-0.33978264,0.14873894,-0.00010819,-0.01603007,0.00885516,-0
 .00248566,0.00304623,-0.00783961,0.00128782,0.00850924,0.00079723,0.00
 589924,0.00087800,0.00401629,-0.00064618,0.00004097,0.00049702,-0.0003
 0202,0.00068605,0.00025942,-0.00008449,-0.00027535,-0.00120343,0.08032
 490,0.34381161,0.01774908,0.15388724,-0.14153508,-0.00083690,-0.021953
 58,0.01631691,-0.00348587,-0.00509769,-0.00168001,-0.00437234,-0.00124
 956,-0.00630037,0.01098208,0.02685425,-0.00975242,-0.00025395,-0.00009
 292,0.00135944,0.00010302,0.00119353,0.00054164,0.00064867,0.00031595,
 0.00064577,-0.02023873,-0.15368047,0.14210930,-0.00093561,-0.00093380,
 -0.00155534,0.00052729,0.00044118,0.00090858,0.00022237,0.00048861,-0.
 00018845,0.00033431,-0.00005463,0.00126508,-0.00082682,-0.00007740,-0.
 00065688,0.00001307,-0.00005659,0.00009067,0.00000412,0.00001566,0.000
 07019,-0.00001336,0.00008401,-0.00024220,-0.00034623,0.00008344,-0.000
 93216,0.17605877,-0.00084516,-0.00049211,-0.00225054,0.00097858,0.0009
 5830,0.00218064,0.00001568,0.00031752,-0.00003813,0.00028025,-0.000512
 89,0.00160425,-0.00036045,-0.00153705,-0.00101143,0.00003443,-0.000080
 65,0.00014689,0.00005373,-0.00003249,0.00008973,-0.00003416,0.00018929
 ,-0.00027005,0.00113245,0.00184851,0.00037420,-0.04817805,0.20758204,-
 0.00188420,-0.00198235,-0.00153665,-0.00013482,-0.00005135,-0.00065100
 ,0.00028963,0.00143990,-0.00055174,0.00089344,0.00076775,0.00159822,0.
 00030039,0.00042966,-0.00159851,-0.00003514,-0.00004373,0.00004751,0.0
 0007674,0.00005372,0.00005681,-0.00013443,0.00000063,-0.00036857,-0.00
 379793,-0.00400964,-0.00453327,0.22912429,-0.32905033,1.77755920,-0.00
 093109,0.00003877,-0.00017529,0.00002997,-0.00016372,0.00012320,-0.000
 17839,-0.00051552,0.00010738,-0.00021033,-0.00010914,-0.00074270,-0.00
 042268,-0.00179598,0.00045562,-0.00001899,0.00001891,-0.00002832,0.000
 00059,-0.00000042,-0.00000527,0.00001471,0.00000005,0.00012128,0.00044
 201,-0.00016511,0.00046459,-0.08653506,0.02303928,-0.10732218,0.055572
 05,-0.00010301,0.00004995,0.00074632,-0.00032827,-0.00022872,-0.000232
 11,-0.00022019,-0.00075014,0.00008809,-0.00054455,0.00010058,-0.001292
 56,-0.00158166,-0.00355470,0.00147397,0.00002649,0.00002042,-0.0001008
 0,-0.00000735,0.00001923,0.00000023,0.00006119,-0.00004301,0.00017698,
 -0.00014349,-0.00197773,-0.00010343,0.02406780,-0.10590542,0.16985787,
 -0.02462855,0.08393691,-0.00043149,-0.00035370,-0.00040298,0.00018697,
 0.00011117,0.00098322,-0.00017056,-0.00065989,0.00023142,-0.00036226,-
 0.00049937,-0.00024751,-0.00017002,0.00042034,-0.00078339,0.00004881,-
 0.00001967,0.00003881,-0.00001797,-0.00003432,-0.00001335,0.00007295,0
 .00003334,0.00014504,0.00170543,0.00173433,0.00099196,-0.10996804,0.16
 665191,-0.87352289,0.13076858,-0.19998705,0.99454503,0.00008616,-0.000
 12348,0.00006813,-0.00018851,-0.00015476,-0.00032907,-0.00005763,-0.00
 011325,0.00000666,-0.00009345,0.00001176,-0.00028928,-0.00010099,-0.00
 019806,-0.00067193,0.00000053,0.00001593,-0.00001990,0.00000346,-0.000
 01426,0.00000994,-0.00000756,-0.00003881,0.00006573,0.00013208,-0.0000
 1848,0.00017252,-0.08850285,0.02388341,-0.11737581,0.03223722,0.003401
 59,-0.02166240,0.05649154,-0.00022406,-0.00041103,0.00012557,-0.000319
 62,-0.00027040,-0.00073064,-0.00000427,0.00001966,-0.00008118,0.000014
 44,0.00015873,-0.00024430,-0.00060097,-0.00034565,-0.00122792,-0.00001
 155,0.00001978,-0.00003135,0.00000323,-0.00000812,0.00004274,-0.000007
 62,-0.00007431,0.00004207,-0.00059916,-0.00075483,-0.00044752,0.024119
 78,-0.10233505,0.16258786,0.00428141,0.02833262,0.03260291,-0.02665160
 ,0.07566860,0.00042532,0.00039622,0.00007486,-0.00006341,-0.00004317,0
 .00012799,-0.00011635,-0.00055500,0.00021707,-0.00035778,-0.00033627,-
 0.00068271,0.00005365,0.00042703,-0.00006568,0.00001904,0.00002512,-0.
 00000915,-0.00003391,-0.00002639,-0.00002879,0.00005003,-0.00002945,0.
 00017502,0.00168064,0.00183476,0.00183612,-0.11791573,0.16157287,-0.89
 649911,-0.02376689,0.02937250,-0.12196536,0.14002539,-0.19263822,1.016
 81974\\-0.00001532,0.00000893,-0.00000143,-0.00001683,-0.00000004,0.00
 002105,-0.00001441,-0.00000206,-0.00000391,0.00002809,-0.00000026,-0.0
 0000375,0.00001095,-0.00000605,-0.00000095,0.00000347,-0.00000344,0.00
 000659,0.00004154,-0.00001498,-0.00001089,-0.00004497,0.00001362,0.000
 01594,-0.00003101,0.00000997,0.00001059,0.00001325,-0.00000306,-0.0000
 1717,-0.00001138,0.00000755,-0.00000494,0.00003661,-0.00001016,-0.0000
 1113\\\@


 MOST BUREAUCRACIES FUNCTION LIKE A SEPTIC TANK.
 THE LARGE CHUNKS RISE TO THE TOP.
 Job cpu time:       0 days  0 hours 15 minutes 34.3 seconds.
 Elapsed time:       0 days  0 hours  0 minutes 39.9 seconds.
 File lengths (MBytes):  RWF=     67 Int=      0 D2E=      0 Chk=      7 Scr=      1
 Normal termination of Gaussian 16 at Sat May 13 18:25:15 2023.
