 Entering Gaussian System, Link 0=/home/gau/soft/g16/g16
 Initial command:
 /home/gau/soft/g16/l1.exe "/home/gau/soft/scratch/Gau-155902.inp" -scrdir="/home/gau/soft/scratch/"
 Entering Link 1 = /home/gau/soft/g16/l1.exe PID=    155903.
  
 Copyright (c) 1988-2019, Gaussian, Inc.  All Rights Reserved.
  
 This is part of the Gaussian(R) 16 program.  It is based on
 the Gaussian(R) 09 system (copyright 2009, Gaussian, Inc.),
 the Gaussian(R) 03 system (copyright 2003, Gaussian, Inc.),
 the Gaussian(R) 98 system (copyright 1998, Gaussian, Inc.),
 the Gaussian(R) 94 system (copyright 1995, Gaussian, Inc.),
 the Gaussian 92(TM) system (copyright 1992, Gaussian, Inc.),
 the Gaussian 90(TM) system (copyright 1990, Gaussian, Inc.),
 the Gaussian 88(TM) system (copyright 1988, Gaussian, Inc.),
 the Gaussian 86(TM) system (copyright 1986, Carnegie Mellon
 University), and the Gaussian 82(TM) system (copyright 1983,
 Carnegie Mellon University). Gaussian is a federally registered
 trademark of Gaussian, Inc.
  
 This software contains proprietary and confidential information,
 including trade secrets, belonging to Gaussian, Inc.
  
 This software is provided under written license and may be
 used, copied, transmitted, or stored only in accord with that
 written license.
  
 The following legend is applicable only to US Government
 contracts under FAR:
  
                    RESTRICTED RIGHTS LEGEND
  
 Use, reproduction and disclosure by the US Government is
 subject to restrictions as set forth in subparagraphs (a)
 and (c) of the Commercial Computer Software - Restricted
 Rights clause in FAR 52.227-19.
  
 Gaussian, Inc.
 340 Quinnipiac St., Bldg. 40, Wallingford CT 06492
  
  
 ---------------------------------------------------------------
 Warning -- This program may not be used in any manner that
 competes with the business of Gaussian, Inc. or will provide
 assistance to any competitor of Gaussian, Inc.  The licensee
 of this program is prohibited from giving any competitor of
 Gaussian, Inc. access to this program.  By using this program,
 the user acknowledges that Gaussian, Inc. is engaged in the
 business of creating and licensing software in the field of
 computational chemistry and represents and warrants to the
 licensee that it is not a competitor of Gaussian, Inc. and that
 it will not use this program in any manner prohibited above.
 ---------------------------------------------------------------
  

 Cite this work as:
 Gaussian 16, Revision C.01,
 M. J. Frisch, G. W. Trucks, H. B. Schlegel, G. E. Scuseria, 
 M. A. Robb, J. R. Cheeseman, G. Scalmani, V. Barone, 
 G. A. Petersson, H. Nakatsuji, X. Li, M. Caricato, A. V. Marenich, 
 J. Bloino, B. G. Janesko, R. Gomperts, B. Mennucci, H. P. Hratchian, 
 J. V. Ortiz, A. F. Izmaylov, J. L. Sonnenberg, D. Williams-Young, 
 F. Ding, F. Lipparini, F. Egidi, J. Goings, B. Peng, A. Petrone, 
 T. Henderson, D. Ranasinghe, V. G. Zakrzewski, J. Gao, N. Rega, 
 G. Zheng, W. Liang, M. Hada, M. Ehara, K. Toyota, R. Fukuda, 
 J. Hasegawa, M. Ishida, T. Nakajima, Y. Honda, O. Kitao, H. Nakai, 
 T. Vreven, K. Throssell, J. A. Montgomery, Jr., J. E. Peralta, 
 F. Ogliaro, M. J. Bearpark, J. J. Heyd, E. N. Brothers, K. N. Kudin, 
 V. N. Staroverov, T. A. Keith, R. Kobayashi, J. Normand, 
 K. Raghavachari, A. P. Rendell, J. C. Burant, S. S. Iyengar, 
 J. Tomasi, M. Cossi, J. M. Millam, M. Klene, C. Adamo, R. Cammi, 
 J. W. Ochterski, R. L. Martin, K. Morokuma, O. Farkas, 
 J. B. Foresman, and D. J. Fox, Gaussian, Inc., Wallingford CT, 2019.
 
 ******************************************
 Gaussian 16:  ES64L-G16RevC.01  3-Jul-2019
                 2-Dec-2023 
 ******************************************
 %mem=10GB
 %nprocshared=48
 Will use up to   48 processors via shared memory.
 -----------------------------------------------------
 # opt freq 6-31+g(d,p) scrf=(smd,solvent=water) m062x
 -----------------------------------------------------
 1/18=20,19=15,26=3,38=1/1,3;
 2/9=110,12=2,17=6,18=5,40=1/2;
 3/5=1,6=6,7=111,11=2,25=1,30=1,70=32201,71=1,72=1,74=-55/1,2,3;
 4//1;
 5/5=2,38=5,53=1/2;
 6/7=2,8=2,9=2,10=2,28=1/1;
 7//1,2,3,16;
 1/18=20,19=15,26=3/3(2);
 2/9=110/2;
 99//99;
 2/9=110/2;
 3/5=1,6=6,7=111,11=2,25=1,30=1,70=32205,71=1,72=1,74=-55/1,2,3;
 4/5=5,16=3,69=1/1;
 5/5=2,38=5,53=1/2;
 7//1,2,3,16;
 1/18=20,19=15,26=3/3(-5);
 2/9=110/2;
 6/7=2,8=2,9=2,10=2,19=2,28=1/1;
 99/9=1/99;
 -------------------
 Title Card Required
 -------------------
 Symbolic Z-matrix:
 Charge = -1 Multiplicity = 1
 N                    -0.25275  -0.36804   0.33999 
 N                    -1.11785   0.61985   0.12497 
 C                    -2.32044   0.13494  -0.2447 
 C                    -2.14947  -1.23108  -0.24268 
 N                    -0.86954  -1.49766   0.12108 
 H                    -3.15957   0.77689  -0.46443 
 H                    -2.85556  -2.01384  -0.47092 
 

 GradGradGradGradGradGradGradGradGradGradGradGradGradGradGradGradGradGrad
 Berny optimization.
 Initialization pass.
                           ----------------------------
                           !    Initial Parameters    !
                           ! (Angstroms and Degrees)  !
 --------------------------                            --------------------------
 ! Name  Definition              Value          Derivative Info.                !
 --------------------------------------------------------------------------------
 ! R1    R(1,2)                  1.3306         estimate D2E/DX2                !
 ! R2    R(1,5)                  1.3055         estimate D2E/DX2                !
 ! R3    R(2,3)                  1.3483         estimate D2E/DX2                !
 ! R4    R(3,4)                  1.3767         estimate D2E/DX2                !
 ! R5    R(3,6)                  1.0791         estimate D2E/DX2                !
 ! R6    R(4,5)                  1.3571         estimate D2E/DX2                !
 ! R7    R(4,7)                  1.0786         estimate D2E/DX2                !
 ! A1    A(2,1,5)              107.9473         estimate D2E/DX2                !
 ! A2    A(1,2,3)              110.9265         estimate D2E/DX2                !
 ! A3    A(2,3,4)              104.2219         estimate D2E/DX2                !
 ! A4    A(2,3,6)              122.3728         estimate D2E/DX2                !
 ! A5    A(4,3,6)              133.4048         estimate D2E/DX2                !
 ! A6    A(3,4,5)              108.207          estimate D2E/DX2                !
 ! A7    A(3,4,7)              129.6789         estimate D2E/DX2                !
 ! A8    A(5,4,7)              122.1132         estimate D2E/DX2                !
 ! A9    A(1,5,4)              108.697          estimate D2E/DX2                !
 ! D1    D(5,1,2,3)             -0.1878         estimate D2E/DX2                !
 ! D2    D(2,1,5,4)              0.1233         estimate D2E/DX2                !
 ! D3    D(1,2,3,4)              0.1699         estimate D2E/DX2                !
 ! D4    D(1,2,3,6)            179.9466         estimate D2E/DX2                !
 ! D5    D(2,3,4,5)             -0.0909         estimate D2E/DX2                !
 ! D6    D(2,3,4,7)            179.5801         estimate D2E/DX2                !
 ! D7    D(6,3,4,5)           -179.8312         estimate D2E/DX2                !
 ! D8    D(6,3,4,7)             -0.1602         estimate D2E/DX2                !
 ! D9    D(3,4,5,1)             -0.0184         estimate D2E/DX2                !
 ! D10   D(7,4,5,1)           -179.7194         estimate D2E/DX2                !
 --------------------------------------------------------------------------------
 Trust Radius=3.00D-01 FncErr=1.00D-07 GrdErr=1.00D-06 EigMax=2.50D+02 EigMin=1.00D-04
 Number of steps in this run=     36 maximum allowed number of steps=    100.
 GradGradGradGradGradGradGradGradGradGradGradGradGradGradGradGradGradGrad

                          Input orientation:                          
 ---------------------------------------------------------------------
 Center     Atomic      Atomic             Coordinates (Angstroms)
 Number     Number       Type             X           Y           Z
 ---------------------------------------------------------------------
      1          7           0       -0.252751   -0.368042    0.339992
      2          7           0       -1.117851    0.619847    0.124973
      3          6           0       -2.320442    0.134936   -0.244704
      4          6           0       -2.149467   -1.231081   -0.242675
      5          7           0       -0.869535   -1.497664    0.121083
      6          1           0       -3.159567    0.776888   -0.464427
      7          1           0       -2.855564   -2.013845   -0.470924
 ---------------------------------------------------------------------
                    Distance matrix (angstroms):
                    1          2          3          4          5
     1  N    0.000000
     2  N    1.330622   0.000000
     3  C    2.206853   1.348342   0.000000
     4  C    2.163763   2.150658   1.376677   0.000000
     5  N    1.305523   2.132025   2.214569   1.357060   0.000000
     6  H    3.226071   2.130882   1.079125   2.258631   3.280344
     7  H    3.184476   3.211086   2.225936   1.078606   2.135703
                    6          7
     6  H    0.000000
     7  H    2.807250   0.000000
 Stoichiometry    C2H2N3(1-)
 Framework group  C1[X(C2H2N3)]
 Deg. of freedom    15
 Full point group                 C1      NOp   1
 Largest Abelian subgroup         C1      NOp   1
 Largest concise Abelian subgroup C1      NOp   1
                         Standard orientation:                         
 ---------------------------------------------------------------------
 Center     Atomic      Atomic             Coordinates (Angstroms)
 Number     Number       Type             X           Y           Z
 ---------------------------------------------------------------------
      1          7           0       -1.131849   -0.354053   -0.000531
      2          7           0       -0.050738   -1.129780    0.001177
      3          6           0        1.074754   -0.387293   -0.001166
      4          6           0        0.622218    0.912880   -0.000516
      5          7           0       -0.734642    0.889577    0.000104
      6          1           0        2.058936   -0.829892    0.000538
      7          1           0        1.179829    1.836155    0.004306
 ---------------------------------------------------------------------
 Rotational constants (GHZ):          10.8671460          10.1798554           5.2561460
 Standard basis: 6-31+G(d,p) (6D, 7F)
 There are   105 symmetry adapted cartesian basis functions of A   symmetry.
 There are   105 symmetry adapted basis functions of A   symmetry.
   105 basis functions,   174 primitive gaussians,   105 cartesian basis functions
    18 alpha electrons       18 beta electrons
       nuclear repulsion energy       155.8961879025 Hartrees.
 NAtoms=    7 NActive=    7 NUniq=    7 SFac= 1.00D+00 NAtFMM=   60 NAOKFM=F Big=F
 Integral buffers will be    131072 words long.
 Raffenetti 2 integral format.
 Two-electron integral symmetry is turned on.
 ------------------------------------------------------------------------------
 Polarizable Continuum Model (PCM)
 =================================
 Model                : PCM.
 Atomic radii         : SMD-Coulomb.
 Polarization charges : Total charges.
 Charge compensation  : None.
 Solution method      : On-the-fly selection.
 Cavity type          : VdW (van der Waals Surface) (Alpha=1.000).
 Cavity algorithm     : GePol (No added spheres)
                        Default sphere list used, NSphG=    7.
                        Lebedev-Laikov grids with approx.  5.0 points / Ang**2.
                        Smoothing algorithm: York/Karplus (Gamma=1.0000).
                        Polarization charges: spherical gaussians, with
                                              point-specific exponents (IZeta= 3).
                        Self-potential: point-specific (ISelfS= 7).
                        Self-field    : sphere-specific E.n sum rule (ISelfD= 2).
 1st derivatives      : Analytical E(r).r(x)/FMM algorithm (CHGder, D1EAlg=3).
                        Cavity 1st derivative terms included.
 Solvent              : Water, Eps=  78.355300 Eps(inf)=   1.777849
 ------------------------------------------------------------------------------
 Spheres list:
 ISph  on   Nord     Re0    Alpha      Xe            Ye            Ze
    1   N      1    1.8900  1.000     -1.131849     -0.354053     -0.000531
    2   N      2    1.8900  1.000     -0.050738     -1.129780      0.001177
    3   C      3    1.8500  1.000      1.074754     -0.387293     -0.001166
    4   C      4    1.8500  1.000      0.622218      0.912880     -0.000516
    5   N      5    1.8900  1.000     -0.734642      0.889577      0.000104
    6   H      6    1.2000  1.000      2.058936     -0.829892      0.000538
    7   H      7    1.2000  1.000      1.179829      1.836155      0.004306
 ------------------------------------------------------------------------------
 ------------------------------------------------------------------------------
 Atomic radii for non-electrostatic terms: SMD-CDS.
 ------------------------------------------------------------------------------
 Nuclear repulsion after PCM non-electrostatic terms =      155.8966840184 Hartrees.
 One-electron integrals computed using PRISM.
 NBasis=   105 RedAO= T EigKep=  7.67D-05  NBF=   105
 NBsUse=   105 1.00D-06 EigRej= -1.00D+00 NBFU=   105
 ExpMin= 4.38D-02 ExpMax= 4.17D+03 ExpMxC= 6.27D+02 IAcc=3 IRadAn=         5 AccDes= 0.00D+00
 Harris functional with IExCor= 1009 and IRadAn=       5 diagonalized for initial guess.
 HarFok:  IExCor= 1009 AccDes= 0.00D+00 IRadAn=         5 IDoV= 1 UseB2=F ITyADJ=14
 ICtDFT=  3500011 ScaDFX=  1.000000  1.000000  1.000000  1.000000
 FoFCou: FMM=F IPFlag=           0 FMFlag=      100000 FMFlg1=           0
         NFxFlg=           0 DoJE=T BraDBF=F KetDBF=T FulRan=T
         wScrn=  0.000000 ICntrl=       500 IOpCl=  0 I1Cent=   200000004 NGrid=           0
         NMat0=    1 NMatS0=      1 NMatT0=    0 NMatD0=    1 NMtDS0=    0 NMtDT0=    0
 Petite list used in FoFCou.
 Keep R1 ints in memory in canonical form, NReq=60195709.
 Requested convergence on RMS density matrix=1.00D-08 within 128 cycles.
 Requested convergence on MAX density matrix=1.00D-06.
 Requested convergence on             energy=1.00D-06.
 No special actions if energy rises.
 Inv3:  Mode=1 IEnd=     1829883.
 Iteration    1 A*A^-1 deviation from unit magnitude is 2.66D-15 for    759.
 Iteration    1 A*A^-1 deviation from orthogonality  is 1.85D-15 for    778    408.
 Iteration    1 A^-1*A deviation from unit magnitude is 2.89D-15 for    755.
 Iteration    1 A^-1*A deviation from orthogonality  is 3.77D-14 for    253    223.
 Error on total polarization charges =  0.03869
 SCF Done:  E(RM062X) =  -241.685011890     A.U. after   13 cycles
            NFock= 13  Conv=0.59D-08     -V/T= 2.0081
 SMD-CDS (non-electrostatic) energy       (kcal/mol) =       0.31
 (included in total energy above)

 **********************************************************************

            Population analysis using the SCF Density.

 **********************************************************************

 Orbital symmetries:
       Occupied  (A) (A) (A) (A) (A) (A) (A) (A) (A) (A) (A) (A)
                 (A) (A) (A) (A) (A) (A)
       Virtual   (A) (A) (A) (A) (A) (A) (A) (A) (A) (A) (A) (A)
                 (A) (A) (A) (A) (A) (A) (A) (A) (A) (A) (A) (A)
                 (A) (A) (A) (A) (A) (A) (A) (A) (A) (A) (A) (A)
                 (A) (A) (A) (A) (A) (A) (A) (A) (A) (A) (A) (A)
                 (A) (A) (A) (A) (A) (A) (A) (A) (A) (A) (A) (A)
                 (A) (A) (A) (A) (A) (A) (A) (A) (A) (A) (A) (A)
                 (A) (A) (A) (A) (A) (A) (A) (A) (A) (A) (A) (A)
                 (A) (A) (A)
 The electronic state is 1-A.
 Alpha  occ. eigenvalues --  -14.77744 -14.75050 -14.74695 -10.53980 -10.53752
 Alpha  occ. eigenvalues --   -1.15997  -0.92629  -0.85697  -0.65708  -0.62527
 Alpha  occ. eigenvalues --   -0.55243  -0.49608  -0.47664  -0.38957  -0.31650
 Alpha  occ. eigenvalues --   -0.30850  -0.30619  -0.28386
 Alpha virt. eigenvalues --    0.03594   0.04839   0.06128   0.06772   0.08390
 Alpha virt. eigenvalues --    0.08622   0.10073   0.10107   0.11025   0.14767
 Alpha virt. eigenvalues --    0.15262   0.15489   0.18054   0.18686   0.22449
 Alpha virt. eigenvalues --    0.23754   0.24299   0.24505   0.25359   0.25485
 Alpha virt. eigenvalues --    0.28361   0.29506   0.30826   0.35407   0.37317
 Alpha virt. eigenvalues --    0.39456   0.46158   0.54790   0.60105   0.74113
 Alpha virt. eigenvalues --    0.74268   0.77879   0.89220   0.89603   0.93208
 Alpha virt. eigenvalues --    0.95675   0.97109   0.98185   0.98998   1.03303
 Alpha virt. eigenvalues --    1.04841   1.05194   1.07416   1.12328   1.13641
 Alpha virt. eigenvalues --    1.14777   1.21371   1.32670   1.34995   1.37938
 Alpha virt. eigenvalues --    1.44495   1.47808   1.57189   1.61121   1.61659
 Alpha virt. eigenvalues --    1.63827   1.66115   1.93078   1.99520   2.04332
 Alpha virt. eigenvalues --    2.10819   2.14114   2.24766   2.30624   2.34864
 Alpha virt. eigenvalues --    2.39508   2.42654   2.42714   2.54496   2.55693
 Alpha virt. eigenvalues --    2.59321   2.69778   2.71068   2.72155   2.76937
 Alpha virt. eigenvalues --    2.85526   2.88539   2.99362   3.08730   3.18458
 Alpha virt. eigenvalues --    3.34747   3.75129   3.99628   4.22298   4.23618
 Alpha virt. eigenvalues --    4.43055   4.68871
          Condensed to atoms (all electrons):
               1          2          3          4          5          6
     1  N    7.379128  -0.135498   0.009002  -0.012805  -0.122307   0.016521
     2  N   -0.135498   7.318802   0.282573  -0.127642   0.139583  -0.051021
     3  C    0.009002   0.282573   5.467837   0.158903  -0.112933   0.392613
     4  C   -0.012805  -0.127642   0.158903   5.544070   0.289086  -0.022779
     5  N   -0.122307   0.139583  -0.112933   0.289086   7.265130  -0.005821
     6  H    0.016521  -0.051021   0.392613  -0.022779  -0.005821   0.479172
     7  H    0.018985  -0.005022  -0.022460   0.387617  -0.053825   0.001216
               7
     1  N    0.018985
     2  N   -0.005022
     3  C   -0.022460
     4  C    0.387617
     5  N   -0.053825
     6  H    0.001216
     7  H    0.497892
 Mulliken charges:
               1
     1  N   -0.153025
     2  N   -0.421774
     3  C   -0.175535
     4  C   -0.216449
     5  N   -0.398913
     6  H    0.190100
     7  H    0.175596
 Sum of Mulliken charges =  -1.00000
 Mulliken charges with hydrogens summed into heavy atoms:
               1
     1  N   -0.153025
     2  N   -0.421774
     3  C    0.014566
     4  C   -0.040853
     5  N   -0.398913
 Electronic spatial extent (au):  <R**2>=            269.5783
 Charge=             -1.0000 electrons
 Dipole moment (field-independent basis, Debye):
    X=              5.3349    Y=              1.6791    Z=              0.0060  Tot=              5.5929
 Quadrupole moment (field-independent basis, Debye-Ang):
   XX=            -35.5794   YY=            -39.4570   ZZ=            -33.1768
   XY=              0.9070   XZ=              0.0096   YZ=              0.0138
 Traceless Quadrupole moment (field-independent basis, Debye-Ang):
   XX=              0.4917   YY=             -3.3860   ZZ=              2.8943
   XY=              0.9070   XZ=              0.0096   YZ=              0.0138
 Octapole moment (field-independent basis, Debye-Ang**2):
  XXX=             17.7961  YYY=              9.6664  ZZZ=              0.0161  XYY=              9.1325
  XXY=             -1.7192  XXZ=              0.0195  XZZ=             -0.5214  YZZ=             -0.1402
  YYZ=              0.0225  XYZ=              0.0117
 Hexadecapole moment (field-independent basis, Debye-Ang**3):
 XXXX=           -187.7784 YYYY=           -197.6965 ZZZZ=            -40.2634 XXXY=             -5.1107
 XXXZ=              0.0304 YYYX=              9.3050 YYYZ=              0.0654 ZZZX=              0.0174
 ZZZY=              0.0170 XXYY=            -61.0494 XXZZ=            -40.5010 YYZZ=            -39.5213
 XXYZ=              0.0114 YYXZ=              0.0313 ZZXY=              0.0389
 N-N= 1.558966840184D+02 E-N=-8.832401700809D+02  KE= 2.397362765023D+02
 D1PCM: PCM CHGder 1st derivatives, ID1Alg=3 FixD1E=F DoIter=F DoCFld=F I1PDM=0.
 Calling FoFJK, ICntrl=      2127 FMM=F ISym2X=0 I1Cent= 0 IOpClX= 0 NMat=1 NMatS=1 NMatT=0.
 ***** Axes restored to original set *****
 -------------------------------------------------------------------
 Center     Atomic                   Forces (Hartrees/Bohr)
 Number     Number              X              Y              Z
 -------------------------------------------------------------------
      1        7          -0.018651060    0.015671191   -0.004495355
      2        7           0.011320983    0.040318776    0.004149763
      3        6           0.019251003   -0.005770316    0.005863605
      4        6          -0.002315423   -0.013228941   -0.000945972
      5        7          -0.009715206   -0.033319486   -0.004201993
      6        1          -0.000359884   -0.000662503   -0.000175187
      7        1           0.000469586   -0.003008721   -0.000194861
 -------------------------------------------------------------------
 Cartesian Forces:  Max     0.040318776 RMS     0.014203162

 GradGradGradGradGradGradGradGradGradGradGradGradGradGradGradGradGradGrad
 Berny optimization.
 FormGI is forming the generalized inverse of G from B-inverse, IUseBI=4.
 Internal  Forces:  Max     0.031340620 RMS     0.012160979
 Search for a local minimum.
 Step number   1 out of a maximum of   36
 All quantities printed in internal units (Hartrees-Bohrs-Radians)
 Mixed Optimization -- RFO/linear search
 Second derivative matrix not updated -- first step.
 ITU=  0
     Eigenvalues ---    0.02337   0.02347   0.02381   0.02392   0.16000
     Eigenvalues ---    0.16000   0.22641   0.24680   0.36100   0.36163
     Eigenvalues ---    0.46343   0.49264   0.54209   0.57320   0.63254
 RFO step:  Lambda=-1.26171428D-02 EMin= 2.33707778D-02
 Linear search not attempted -- first point.
 Iteration  1 RMS(Cart)=  0.04231910 RMS(Int)=  0.00148120
 Iteration  2 RMS(Cart)=  0.00133257 RMS(Int)=  0.00028172
 Iteration  3 RMS(Cart)=  0.00000040 RMS(Int)=  0.00028172
 Variable       Old X    -DE/DX   Delta X   Delta X   Delta X     New X
                                 (Linear)    (Quad)   (Total)
    R1        2.51451  -0.00027   0.00000   0.00032   0.00068   2.51519
    R2        2.46708   0.02610   0.00000   0.04057   0.04065   2.50773
    R3        2.54800   0.00387   0.00000   0.00552   0.00568   2.55368
    R4        2.60154   0.01665   0.00000   0.03083   0.03057   2.63212
    R5        2.03925  -0.00008   0.00000  -0.00020  -0.00020   2.03905
    R6        2.56447  -0.01149   0.00000  -0.02059  -0.02091   2.54356
    R7        2.03827   0.00191   0.00000   0.00511   0.00511   2.04338
    A1        1.88404   0.02724   0.00000   0.10878   0.10924   1.99328
    A2        1.93603  -0.03134   0.00000  -0.12359  -0.12293   1.81311
    A3        1.81901   0.02251   0.00000   0.08793   0.08780   1.90681
    A4        2.13581  -0.01045   0.00000  -0.03925  -0.03920   2.09661
    A5        2.32835  -0.01207   0.00000  -0.04865  -0.04859   2.27976
    A6        1.88857  -0.00366   0.00000  -0.02064  -0.02122   1.86735
    A7        2.26332   0.00426   0.00000   0.02443   0.02472   2.28805
    A8        2.13128  -0.00061   0.00000  -0.00378  -0.00349   2.12778
    A9        1.89712  -0.01476   0.00000  -0.05245  -0.05290   1.84422
    D1       -0.00328   0.00028   0.00000   0.00742   0.00735   0.00407
    D2        0.00215  -0.00013   0.00000  -0.00438  -0.00465  -0.00250
    D3        0.00297  -0.00027   0.00000  -0.00710  -0.00693  -0.00396
    D4        3.14066  -0.00006   0.00000  -0.00095  -0.00063   3.14003
    D5       -0.00159   0.00013   0.00000   0.00402   0.00425   0.00267
    D6        3.13426   0.00025   0.00000   0.00714   0.00722   3.14148
    D7       -3.13865  -0.00014   0.00000  -0.00323  -0.00301   3.14152
    D8       -0.00280  -0.00002   0.00000  -0.00012  -0.00005  -0.00285
    D9       -0.00032   0.00001   0.00000   0.00018   0.00015  -0.00018
   D10       -3.13670  -0.00012   0.00000  -0.00277  -0.00260  -3.13930
         Item               Value     Threshold  Converged?
 Maximum Force            0.031341     0.000450     NO 
 RMS     Force            0.012161     0.000300     NO 
 Maximum Displacement     0.135697     0.001800     NO 
 RMS     Displacement     0.042496     0.001200     NO 
 Predicted change in Energy=-6.596250D-03
 GradGradGradGradGradGradGradGradGradGradGradGradGradGradGradGradGradGrad

                          Input orientation:                          
 ---------------------------------------------------------------------
 Center     Atomic      Atomic             Coordinates (Angstroms)
 Number     Number       Type             X           Y           Z
 ---------------------------------------------------------------------
      1          7           0       -0.305673   -0.353222    0.326434
      2          7           0       -1.105784    0.691655    0.127532
      3          6           0       -2.283371    0.134565   -0.231746
      4          6           0       -2.151092   -1.251951   -0.242842
      5          7           0       -0.883824   -1.529052    0.116247
      6          1           0       -3.132612    0.761048   -0.456671
      7          1           0       -2.862821   -2.032005   -0.475636
 ---------------------------------------------------------------------
                    Distance matrix (angstroms):
                    1          2          3          4          5
     1  N    0.000000
     2  N    1.330980   0.000000
     3  C    2.112059   1.351348   0.000000
     4  C    2.130108   2.237733   1.392856   0.000000
     5  N    1.327032   2.231800   2.201693   1.345993   0.000000
     6  H    3.137902   2.110482   1.079018   2.249726   3.260343
     7  H    3.162378   3.296864   2.255941   1.081312   2.125962
                    6          7
     6  H    0.000000
     7  H    2.806117   0.000000
 Stoichiometry    C2H2N3(1-)
 Framework group  C1[X(C2H2N3)]
 Deg. of freedom    15
 Full point group                 C1      NOp   1
 Largest Abelian subgroup         C1      NOp   1
 Largest concise Abelian subgroup C1      NOp   1
                         Standard orientation:                         
 ---------------------------------------------------------------------
 Center     Atomic      Atomic             Coordinates (Angstroms)
 Number     Number       Type             X           Y           Z
 ---------------------------------------------------------------------
      1          7           0        0.292191   -1.098609    0.001100
      2          7           0        1.192472   -0.118305   -0.001265
      3          6           0        0.445573    1.007873    0.000918
      4          6           0       -0.904123    0.663830   -0.000618
      5          7           0       -0.967312   -0.680679   -0.000316
      6          1           0        0.923996    1.975030    0.001169
      7          1           0       -1.794148    1.277906    0.000398
 ---------------------------------------------------------------------
 Rotational constants (GHZ):          10.8863471           9.9959235           5.2110818
 Standard basis: 6-31+G(d,p) (6D, 7F)
 There are   105 symmetry adapted cartesian basis functions of A   symmetry.
 There are   105 symmetry adapted basis functions of A   symmetry.
   105 basis functions,   174 primitive gaussians,   105 cartesian basis functions
    18 alpha electrons       18 beta electrons
       nuclear repulsion energy       155.2550776847 Hartrees.
 NAtoms=    7 NActive=    7 NUniq=    7 SFac= 1.00D+00 NAtFMM=   60 NAOKFM=F Big=F
 Integral buffers will be    131072 words long.
 Raffenetti 2 integral format.
 Two-electron integral symmetry is turned on.
 ------------------------------------------------------------------------------
 Polarizable Continuum Model (PCM)
 =================================
 Model                : PCM.
 Atomic radii         : SMD-Coulomb.
 Polarization charges : Total charges.
 Charge compensation  : None.
 Solution method      : On-the-fly selection.
 Cavity type          : VdW (van der Waals Surface) (Alpha=1.000).
 Cavity algorithm     : GePol (No added spheres)
                        Default sphere list used, NSphG=    7.
                        Lebedev-Laikov grids with approx.  5.0 points / Ang**2.
                        Smoothing algorithm: York/Karplus (Gamma=1.0000).
                        Polarization charges: spherical gaussians, with
                                              point-specific exponents (IZeta= 3).
                        Self-potential: point-specific (ISelfS= 7).
                        Self-field    : sphere-specific E.n sum rule (ISelfD= 2).
 1st derivatives      : Analytical E(r).r(x)/FMM algorithm (CHGder, D1EAlg=3).
                        Cavity 1st derivative terms included.
 Solvent              : Water, Eps=  78.355300 Eps(inf)=   1.777849
 ------------------------------------------------------------------------------
 Spheres list:
 ISph  on   Nord     Re0    Alpha      Xe            Ye            Ze
    1   N      1    1.8900  1.000      0.292191     -1.098609      0.001100
    2   N      2    1.8900  1.000      1.192472     -0.118305     -0.001265
    3   C      3    1.8500  1.000      0.445573      1.007873      0.000918
    4   C      4    1.8500  1.000     -0.904123      0.663830     -0.000618
    5   N      5    1.8900  1.000     -0.967312     -0.680679     -0.000316
    6   H      6    1.2000  1.000      0.923996      1.975030      0.001169
    7   H      7    1.2000  1.000     -1.794148      1.277906      0.000398
 ------------------------------------------------------------------------------
 ------------------------------------------------------------------------------
 Atomic radii for non-electrostatic terms: SMD-CDS.
 ------------------------------------------------------------------------------
 Nuclear repulsion after PCM non-electrostatic terms =      155.2554568550 Hartrees.
 One-electron integrals computed using PRISM.
 NBasis=   105 RedAO= T EigKep=  7.73D-05  NBF=   105
 NBsUse=   105 1.00D-06 EigRej= -1.00D+00 NBFU=   105
 Initial guess from the checkpoint file:  "/home/gau/soft/scratch/Gau-155903.chk"
 B after Tr=     0.000000    0.000000    0.000000
         Rot=    0.726419    0.000003   -0.000004   -0.687252 Ang=  86.83 deg.
 ExpMin= 4.38D-02 ExpMax= 4.17D+03 ExpMxC= 6.27D+02 IAcc=3 IRadAn=         5 AccDes= 0.00D+00
 Harris functional with IExCor= 1009 and IRadAn=       5 diagonalized for initial guess.
 HarFok:  IExCor= 1009 AccDes= 0.00D+00 IRadAn=         5 IDoV= 1 UseB2=F ITyADJ=14
 ICtDFT=  3500011 ScaDFX=  1.000000  1.000000  1.000000  1.000000
 FoFCou: FMM=F IPFlag=           0 FMFlag=      100000 FMFlg1=           0
         NFxFlg=           0 DoJE=T BraDBF=F KetDBF=T FulRan=T
         wScrn=  0.000000 ICntrl=       500 IOpCl=  0 I1Cent=   200000004 NGrid=           0
         NMat0=    1 NMatS0=      1 NMatT0=    0 NMatD0=    1 NMtDS0=    0 NMtDT0=    0
 Petite list used in FoFCou.
 Keep R1 ints in memory in canonical form, NReq=60195709.
 Requested convergence on RMS density matrix=1.00D-08 within 128 cycles.
 Requested convergence on MAX density matrix=1.00D-06.
 Requested convergence on             energy=1.00D-06.
 No special actions if energy rises.
 Inv3:  Mode=1 IEnd=     1896075.
 Iteration    1 A*A^-1 deviation from unit magnitude is 2.78D-15 for    252.
 Iteration    1 A*A^-1 deviation from orthogonality  is 1.80D-15 for    790    760.
 Iteration    1 A^-1*A deviation from unit magnitude is 2.66D-15 for    759.
 Iteration    1 A^-1*A deviation from orthogonality  is 1.96D-15 for    790    760.
 Error on total polarization charges =  0.03851
 SCF Done:  E(RM062X) =  -241.686311557     A.U. after   13 cycles
            NFock= 13  Conv=0.38D-08     -V/T= 2.0084
 SMD-CDS (non-electrostatic) energy       (kcal/mol) =       0.24
 (included in total energy above)
 D1PCM: PCM CHGder 1st derivatives, ID1Alg=3 FixD1E=F DoIter=F DoCFld=F I1PDM=0.
 Calling FoFJK, ICntrl=      2127 FMM=F ISym2X=0 I1Cent= 0 IOpClX= 0 NMat=1 NMatS=1 NMatT=0.
 ***** Axes restored to original set *****
 -------------------------------------------------------------------
 Center     Atomic                   Forces (Hartrees/Bohr)
 Number     Number              X              Y              Z
 -------------------------------------------------------------------
      1        7           0.035214956    0.003745693    0.009767211
      2        7          -0.007999218   -0.027710363   -0.002590005
      3        6          -0.012926186    0.004114329   -0.004111193
      4        6          -0.007095718    0.007270215   -0.001559132
      5        7          -0.002706139    0.012291801   -0.000128570
      6        1          -0.003497831   -0.001258734   -0.001093345
      7        1          -0.000989865    0.001547060   -0.000284967
 -------------------------------------------------------------------
 Cartesian Forces:  Max     0.035214956 RMS     0.011278996

 GradGradGradGradGradGradGradGradGradGradGradGradGradGradGradGradGradGrad
 Berny optimization.
 Using GEDIIS/GDIIS optimizer.
 FormGI is forming the generalized inverse of G from B-inverse, IUseBI=4.
 Internal  Forces:  Max     0.030365830 RMS     0.009880041
 Search for a local minimum.
 Step number   2 out of a maximum of   36
 All quantities printed in internal units (Hartrees-Bohrs-Radians)
 Mixed Optimization -- RFO/linear search
 Update second derivatives using D2CorX and points    1    2
 DE= -1.30D-03 DEPred=-6.60D-03 R= 1.97D-01
 Trust test= 1.97D-01 RLast= 2.14D-01 DXMaxT set to 3.00D-01
 ITU=  0  0
 Use linear search instead of GDIIS.
     Eigenvalues ---    0.02340   0.02351   0.02386   0.02391   0.15898
     Eigenvalues ---    0.16032   0.22403   0.36019   0.36151   0.40453
     Eigenvalues ---    0.47789   0.51503   0.56554   0.59315   0.62779
 RFO step:  Lambda=-4.97310117D-04 EMin= 2.34040573D-02
 Quartic linear search produced a step of -0.44423.
 Iteration  1 RMS(Cart)=  0.01983249 RMS(Int)=  0.00034149
 Iteration  2 RMS(Cart)=  0.00028673 RMS(Int)=  0.00005191
 Iteration  3 RMS(Cart)=  0.00000002 RMS(Int)=  0.00005191
 Variable       Old X    -DE/DX   Delta X   Delta X   Delta X     New X
                                 (Linear)    (Quad)   (Total)
    R1        2.51519   0.00311  -0.00030   0.00339   0.00307   2.51826
    R2        2.50773   0.00060  -0.01806   0.02056   0.00255   2.51028
    R3        2.55368   0.00388  -0.00252   0.00643   0.00384   2.55752
    R4        2.63212  -0.01257  -0.01358   0.00063  -0.01297   2.61915
    R5        2.03905   0.00224   0.00009   0.00335   0.00344   2.04249
    R6        2.54356   0.01283   0.00929   0.00312   0.01247   2.55603
    R7        2.04338  -0.00039  -0.00227   0.00190  -0.00037   2.04301
    A1        1.99328  -0.03037  -0.04853  -0.01161  -0.06010   1.93317
    A2        1.81311   0.02712   0.05461   0.00039   0.05487   1.86798
    A3        1.90681  -0.01275  -0.03900   0.01095  -0.02814   1.87868
    A4        2.09661   0.00953   0.01741   0.00779   0.02525   2.12186
    A5        2.27976   0.00322   0.02159  -0.01874   0.00289   2.28265
    A6        1.86735  -0.00000   0.00943  -0.01063  -0.00118   1.86617
    A7        2.28805  -0.00191  -0.01098   0.00572  -0.00528   2.28277
    A8        2.12778   0.00192   0.00155   0.00492   0.00646   2.13425
    A9        1.84422   0.01600   0.02350   0.01091   0.03455   1.87877
    D1        0.00407  -0.00033  -0.00327  -0.00331  -0.00652  -0.00245
    D2       -0.00250   0.00025   0.00206   0.00221   0.00429   0.00179
    D3       -0.00396   0.00026   0.00308   0.00296   0.00608   0.00211
    D4        3.14003   0.00011   0.00028   0.00327   0.00351  -3.13965
    D5        0.00267  -0.00021  -0.00189  -0.00182  -0.00373  -0.00106
    D6        3.14148  -0.00009  -0.00321   0.00213  -0.00110   3.14038
    D7        3.14152  -0.00004   0.00134  -0.00212  -0.00080   3.14072
    D8       -0.00285   0.00008   0.00002   0.00183   0.00183  -0.00102
    D9       -0.00018  -0.00000  -0.00006  -0.00016  -0.00024  -0.00041
   D10       -3.13930  -0.00010   0.00116  -0.00367  -0.00257   3.14131
         Item               Value     Threshold  Converged?
 Maximum Force            0.030366     0.000450     NO 
 RMS     Force            0.009880     0.000300     NO 
 Maximum Displacement     0.065852     0.001800     NO 
 RMS     Displacement     0.019804     0.001200     NO 
 Predicted change in Energy=-2.398093D-03
 GradGradGradGradGradGradGradGradGradGradGradGradGradGradGradGradGradGrad

                          Input orientation:                          
 ---------------------------------------------------------------------
 Center     Atomic      Atomic             Coordinates (Angstroms)
 Number     Number       Type             X           Y           Z
 ---------------------------------------------------------------------
      1          7           0       -0.270826   -0.353858    0.334401
      2          7           0       -1.105354    0.664661    0.129422
      3          6           0       -2.295708    0.134335   -0.235893
      4          6           0       -2.156612   -1.244640   -0.243292
      5          7           0       -0.881123   -1.513662    0.117618
      6          1           0       -3.148019    0.759218   -0.462381
      7          1           0       -2.867536   -2.025016   -0.476556
 ---------------------------------------------------------------------
                    Distance matrix (angstroms):
                    1          2          3          4          5
     1  N    0.000000
     2  N    1.332604   0.000000
     3  C    2.159563   1.353381   0.000000
     4  C    2.164118   2.211218   1.385992   0.000000
     5  N    1.328383   2.189865   2.200435   1.352590   0.000000
     6  H    3.186226   2.128767   1.080837   2.246404   3.262085
     7  H    3.192699   3.272133   2.246710   1.081117   2.135501
                    6          7
     6  H    0.000000
     7  H    2.798361   0.000000
 Stoichiometry    C2H2N3(1-)
 Framework group  C1[X(C2H2N3)]
 Deg. of freedom    15
 Full point group                 C1      NOp   1
 Largest Abelian subgroup         C1      NOp   1
 Largest concise Abelian subgroup C1      NOp   1
                         Standard orientation:                         
 ---------------------------------------------------------------------
 Center     Atomic      Atomic             Coordinates (Angstroms)
 Number     Number       Type             X           Y           Z
 ---------------------------------------------------------------------
      1          7           0        1.157508   -0.157806   -0.000703
      2          7           0        0.556961    1.031806    0.000818
      3          6           0       -0.776837    0.802413   -0.000375
      4          6           0       -0.966898   -0.570486    0.000114
      5          7           0        0.260897   -1.137953    0.000224
      6          1           0       -1.490643    1.614010   -0.001316
      7          1           0       -1.874511   -1.157897    0.000505
 ---------------------------------------------------------------------
 Rotational constants (GHZ):          10.5145355          10.3000224           5.2030890
 Standard basis: 6-31+G(d,p) (6D, 7F)
 There are   105 symmetry adapted cartesian basis functions of A   symmetry.
 There are   105 symmetry adapted basis functions of A   symmetry.
   105 basis functions,   174 primitive gaussians,   105 cartesian basis functions
    18 alpha electrons       18 beta electrons
       nuclear repulsion energy       155.0858023030 Hartrees.
 NAtoms=    7 NActive=    7 NUniq=    7 SFac= 1.00D+00 NAtFMM=   60 NAOKFM=F Big=F
 Integral buffers will be    131072 words long.
 Raffenetti 2 integral format.
 Two-electron integral symmetry is turned on.
 ------------------------------------------------------------------------------
 Polarizable Continuum Model (PCM)
 =================================
 Model                : PCM.
 Atomic radii         : SMD-Coulomb.
 Polarization charges : Total charges.
 Charge compensation  : None.
 Solution method      : On-the-fly selection.
 Cavity type          : VdW (van der Waals Surface) (Alpha=1.000).
 Cavity algorithm     : GePol (No added spheres)
                        Default sphere list used, NSphG=    7.
                        Lebedev-Laikov grids with approx.  5.0 points / Ang**2.
                        Smoothing algorithm: York/Karplus (Gamma=1.0000).
                        Polarization charges: spherical gaussians, with
                                              point-specific exponents (IZeta= 3).
                        Self-potential: point-specific (ISelfS= 7).
                        Self-field    : sphere-specific E.n sum rule (ISelfD= 2).
 1st derivatives      : Analytical E(r).r(x)/FMM algorithm (CHGder, D1EAlg=3).
                        Cavity 1st derivative terms included.
 Solvent              : Water, Eps=  78.355300 Eps(inf)=   1.777849
 ------------------------------------------------------------------------------
 Spheres list:
 ISph  on   Nord     Re0    Alpha      Xe            Ye            Ze
    1   N      1    1.8900  1.000      1.157508     -0.157806     -0.000703
    2   N      2    1.8900  1.000      0.556961      1.031806      0.000818
    3   C      3    1.8500  1.000     -0.776837      0.802413     -0.000375
    4   C      4    1.8500  1.000     -0.966898     -0.570486      0.000114
    5   N      5    1.8900  1.000      0.260897     -1.137953      0.000224
    6   H      6    1.2000  1.000     -1.490643      1.614010     -0.001316
    7   H      7    1.2000  1.000     -1.874511     -1.157897      0.000505
 ------------------------------------------------------------------------------
 ------------------------------------------------------------------------------
 Atomic radii for non-electrostatic terms: SMD-CDS.
 ------------------------------------------------------------------------------
 Nuclear repulsion after PCM non-electrostatic terms =      155.0862438598 Hartrees.
 One-electron integrals computed using PRISM.
 NBasis=   105 RedAO= T EigKep=  7.79D-05  NBF=   105
 NBsUse=   105 1.00D-06 EigRej= -1.00D+00 NBFU=   105
 Initial guess from the checkpoint file:  "/home/gau/soft/scratch/Gau-155903.chk"
 B after Tr=     0.000000    0.000000    0.000000
         Rot=    0.831727   -0.000000   -0.000002   -0.555185 Ang= -67.45 deg.
 ExpMin= 4.38D-02 ExpMax= 4.17D+03 ExpMxC= 6.27D+02 IAcc=3 IRadAn=         5 AccDes= 0.00D+00
 Harris functional with IExCor= 1009 and IRadAn=       5 diagonalized for initial guess.
 HarFok:  IExCor= 1009 AccDes= 0.00D+00 IRadAn=         5 IDoV= 1 UseB2=F ITyADJ=14
 ICtDFT=  3500011 ScaDFX=  1.000000  1.000000  1.000000  1.000000
 FoFCou: FMM=F IPFlag=           0 FMFlag=      100000 FMFlg1=           0
         NFxFlg=           0 DoJE=T BraDBF=F KetDBF=T FulRan=T
         wScrn=  0.000000 ICntrl=       500 IOpCl=  0 I1Cent=   200000004 NGrid=           0
         NMat0=    1 NMatS0=      1 NMatT0=    0 NMatD0=    1 NMtDS0=    0 NMtDT0=    0
 Petite list used in FoFCou.
 Keep R1 ints in memory in canonical form, NReq=60195709.
 Requested convergence on RMS density matrix=1.00D-08 within 128 cycles.
 Requested convergence on MAX density matrix=1.00D-06.
 Requested convergence on             energy=1.00D-06.
 No special actions if energy rises.
 Inv3:  Mode=1 IEnd=     1862832.
 Iteration    1 A*A^-1 deviation from unit magnitude is 4.22D-15 for    773.
 Iteration    1 A*A^-1 deviation from orthogonality  is 3.00D-15 for    781    561.
 Iteration    1 A^-1*A deviation from unit magnitude is 4.00D-15 for    773.
 Iteration    1 A^-1*A deviation from orthogonality  is 5.92D-15 for    266    226.
 Error on total polarization charges =  0.03850
 SCF Done:  E(RM062X) =  -241.688662969     A.U. after   12 cycles
            NFock= 12  Conv=0.36D-08     -V/T= 2.0085
 SMD-CDS (non-electrostatic) energy       (kcal/mol) =       0.28
 (included in total energy above)
 D1PCM: PCM CHGder 1st derivatives, ID1Alg=3 FixD1E=F DoIter=F DoCFld=F I1PDM=0.
 Calling FoFJK, ICntrl=      2127 FMM=F ISym2X=0 I1Cent= 0 IOpClX= 0 NMat=1 NMatS=1 NMatT=0.
 ***** Axes restored to original set *****
 -------------------------------------------------------------------
 Center     Atomic                   Forces (Hartrees/Bohr)
 Number     Number              X              Y              Z
 -------------------------------------------------------------------
      1        7          -0.001880948    0.001515601   -0.000090762
      2        7          -0.001583229   -0.001995160   -0.000956121
      3        6           0.000686212    0.002020081    0.000458523
      4        6           0.002635530    0.002625492    0.000835022
      5        7           0.000016396   -0.004008303   -0.000320491
      6        1          -0.000327593   -0.000368327   -0.000046645
      7        1           0.000453631    0.000210616    0.000120474
 -------------------------------------------------------------------
 Cartesian Forces:  Max     0.004008303 RMS     0.001530987

 GradGradGradGradGradGradGradGradGradGradGradGradGradGradGradGradGradGrad
 Berny optimization.
 Using GEDIIS/GDIIS optimizer.
 FormGI is forming the generalized inverse of G from B-inverse, IUseBI=4.
 Internal  Forces:  Max     0.003187814 RMS     0.001145841
 Search for a local minimum.
 Step number   3 out of a maximum of   36
 All quantities printed in internal units (Hartrees-Bohrs-Radians)
 Mixed Optimization -- RFO/linear search
 Update second derivatives using D2CorX and points    1    2    3
 DE= -2.35D-03 DEPred=-2.40D-03 R= 9.81D-01
 TightC=F SS=  1.41D+00  RLast= 9.91D-02 DXNew= 5.0454D-01 2.9740D-01
 Trust test= 9.81D-01 RLast= 9.91D-02 DXMaxT set to 3.00D-01
 ITU=  1  0  0
 Use linear search instead of GDIIS.
     Eigenvalues ---    0.02342   0.02352   0.02384   0.02391   0.15734
     Eigenvalues ---    0.16030   0.23513   0.36022   0.36172   0.41022
     Eigenvalues ---    0.47660   0.49964   0.56628   0.60455   0.64862
 RFO step:  Lambda=-1.05673497D-04 EMin= 2.34230664D-02
 Quartic linear search produced a step of -0.02982.
 Iteration  1 RMS(Cart)=  0.00441291 RMS(Int)=  0.00001693
 Iteration  2 RMS(Cart)=  0.00001384 RMS(Int)=  0.00001024
 Iteration  3 RMS(Cart)=  0.00000000 RMS(Int)=  0.00001024
 Variable       Old X    -DE/DX   Delta X   Delta X   Delta X     New X
                                 (Linear)    (Quad)   (Total)
    R1        2.51826  -0.00037  -0.00009  -0.00022  -0.00032   2.51794
    R2        2.51028   0.00067  -0.00008   0.00164   0.00156   2.51184
    R3        2.55752  -0.00292  -0.00011  -0.00476  -0.00488   2.55264
    R4        2.61915  -0.00014   0.00039  -0.00143  -0.00104   2.61811
    R5        2.04249   0.00005  -0.00010   0.00043   0.00033   2.04282
    R6        2.55603  -0.00083  -0.00037  -0.00044  -0.00080   2.55522
    R7        2.04301  -0.00047   0.00001  -0.00123  -0.00121   2.04180
    A1        1.93317   0.00140   0.00179   0.00137   0.00315   1.93632
    A2        1.86798   0.00035  -0.00164   0.00490   0.00324   1.87122
    A3        1.87868  -0.00108   0.00084  -0.00754  -0.00670   1.87197
    A4        2.12186   0.00099  -0.00075   0.00746   0.00670   2.12856
    A5        2.28265   0.00009  -0.00009   0.00008  -0.00000   2.28265
    A6        1.86617   0.00252   0.00004   0.01003   0.01008   1.87625
    A7        2.28277  -0.00111   0.00016  -0.00455  -0.00440   2.27837
    A8        2.13425  -0.00141  -0.00019  -0.00548  -0.00568   2.12856
    A9        1.87877  -0.00319  -0.00103  -0.00875  -0.00977   1.86900
    D1       -0.00245   0.00020   0.00019   0.00743   0.00765   0.00520
    D2        0.00179  -0.00015  -0.00013  -0.00544  -0.00555  -0.00376
    D3        0.00211  -0.00017  -0.00018  -0.00643  -0.00660  -0.00449
    D4       -3.13965  -0.00010  -0.00010  -0.00376  -0.00385   3.13968
    D5       -0.00106   0.00009   0.00011   0.00323   0.00334   0.00228
    D6        3.14038   0.00007   0.00003   0.00291   0.00293  -3.13987
    D7        3.14072   0.00001   0.00002   0.00023   0.00026   3.14098
    D8       -0.00102  -0.00001  -0.00005  -0.00010  -0.00015  -0.00117
    D9       -0.00041   0.00003   0.00001   0.00124   0.00124   0.00083
   D10        3.14131   0.00004   0.00008   0.00154   0.00161  -3.14026
         Item               Value     Threshold  Converged?
 Maximum Force            0.003188     0.000450     NO 
 RMS     Force            0.001146     0.000300     NO 
 Maximum Displacement     0.009609     0.001800     NO 
 RMS     Displacement     0.004413     0.001200     NO 
 Predicted change in Energy=-5.508133D-05
 GradGradGradGradGradGradGradGradGradGradGradGradGradGradGradGradGradGrad

                          Input orientation:                          
 ---------------------------------------------------------------------
 Center     Atomic      Atomic             Coordinates (Angstroms)
 Number     Number       Type             X           Y           Z
 ---------------------------------------------------------------------
      1          7           0       -0.273281   -0.356215    0.335984
      2          7           0       -1.106306    0.662271    0.125889
      3          6           0       -2.297059    0.136752   -0.235498
      4          6           0       -2.153062   -1.241169   -0.242410
      5          7           0       -0.879619   -1.518747    0.117651
      6          1           0       -3.151741    0.758585   -0.462274
      7          1           0       -2.864109   -2.020438   -0.476025
 ---------------------------------------------------------------------
                    Distance matrix (angstroms):
                    1          2          3          4          5
     1  N    0.000000
     2  N    1.332435   0.000000
     3  C    2.159927   1.350800   0.000000
     4  C    2.156678   2.203276   1.385443   0.000000
     5  N    1.329209   2.192782   2.207833   1.352164   0.000000
     6  H    3.188343   2.130497   1.081012   2.246045   3.268806
     7  H    3.184554   3.263296   2.243406   1.080474   2.131278
                    6          7
     6  H    0.000000
     7  H    2.793902   0.000000
 Stoichiometry    C2H2N3(1-)
 Framework group  C1[X(C2H2N3)]
 Deg. of freedom    15
 Full point group                 C1      NOp   1
 Largest Abelian subgroup         C1      NOp   1
 Largest concise Abelian subgroup C1      NOp   1
                         Standard orientation:                         
 ---------------------------------------------------------------------
 Center     Atomic      Atomic             Coordinates (Angstroms)
 Number     Number       Type             X           Y           Z
 ---------------------------------------------------------------------
      1          7           0        1.155917    0.154699    0.001424
      2          7           0        0.260231    1.141169   -0.001575
      3          6           0       -0.963755    0.569758    0.001010
      4          6           0       -0.776473   -0.802968   -0.000240
      5          7           0        0.556232   -1.031542   -0.000614
      6          1           0       -1.870191    1.158792    0.001150
      7          1           0       -1.495096   -1.609817   -0.000412
 ---------------------------------------------------------------------
 Rotational constants (GHZ):          10.5450457          10.2875323           5.2073576
 Standard basis: 6-31+G(d,p) (6D, 7F)
 There are   105 symmetry adapted cartesian basis functions of A   symmetry.
 There are   105 symmetry adapted basis functions of A   symmetry.
   105 basis functions,   174 primitive gaussians,   105 cartesian basis functions
    18 alpha electrons       18 beta electrons
       nuclear repulsion energy       155.1473224394 Hartrees.
 NAtoms=    7 NActive=    7 NUniq=    7 SFac= 1.00D+00 NAtFMM=   60 NAOKFM=F Big=F
 Integral buffers will be    131072 words long.
 Raffenetti 2 integral format.
 Two-electron integral symmetry is turned on.
 ------------------------------------------------------------------------------
 Polarizable Continuum Model (PCM)
 =================================
 Model                : PCM.
 Atomic radii         : SMD-Coulomb.
 Polarization charges : Total charges.
 Charge compensation  : None.
 Solution method      : On-the-fly selection.
 Cavity type          : VdW (van der Waals Surface) (Alpha=1.000).
 Cavity algorithm     : GePol (No added spheres)
                        Default sphere list used, NSphG=    7.
                        Lebedev-Laikov grids with approx.  5.0 points / Ang**2.
                        Smoothing algorithm: York/Karplus (Gamma=1.0000).
                        Polarization charges: spherical gaussians, with
                                              point-specific exponents (IZeta= 3).
                        Self-potential: point-specific (ISelfS= 7).
                        Self-field    : sphere-specific E.n sum rule (ISelfD= 2).
 1st derivatives      : Analytical E(r).r(x)/FMM algorithm (CHGder, D1EAlg=3).
                        Cavity 1st derivative terms included.
 Solvent              : Water, Eps=  78.355300 Eps(inf)=   1.777849
 ------------------------------------------------------------------------------
 Spheres list:
 ISph  on   Nord     Re0    Alpha      Xe            Ye            Ze
    1   N      1    1.8900  1.000      1.155917      0.154699      0.001424
    2   N      2    1.8900  1.000      0.260231      1.141169     -0.001575
    3   C      3    1.8500  1.000     -0.963755      0.569758      0.001010
    4   C      4    1.8500  1.000     -0.776473     -0.802968     -0.000240
    5   N      5    1.8900  1.000      0.556232     -1.031542     -0.000614
    6   H      6    1.2000  1.000     -1.870191      1.158792      0.001150
    7   H      7    1.2000  1.000     -1.495096     -1.609817     -0.000412
 ------------------------------------------------------------------------------
 ------------------------------------------------------------------------------
 Atomic radii for non-electrostatic terms: SMD-CDS.
 ------------------------------------------------------------------------------
 Nuclear repulsion after PCM non-electrostatic terms =      155.1477498873 Hartrees.
 One-electron integrals computed using PRISM.
 NBasis=   105 RedAO= T EigKep=  7.75D-05  NBF=   105
 NBsUse=   105 1.00D-06 EigRej= -1.00D+00 NBFU=   105
 Initial guess from the checkpoint file:  "/home/gau/soft/scratch/Gau-155903.chk"
 B after Tr=    -0.000000   -0.000000   -0.000000
         Rot=    0.990954    0.000000    0.000000   -0.134205 Ang=  15.43 deg.
 Keep R1 ints in memory in canonical form, NReq=60195709.
 Requested convergence on RMS density matrix=1.00D-08 within 128 cycles.
 Requested convergence on MAX density matrix=1.00D-06.
 Requested convergence on             energy=1.00D-06.
 No special actions if energy rises.
 Inv3:  Mode=1 IEnd=     1867563.
 Iteration    1 A*A^-1 deviation from unit magnitude is 2.78D-15 for    765.
 Iteration    1 A*A^-1 deviation from orthogonality  is 1.64D-15 for    764    741.
 Iteration    1 A^-1*A deviation from unit magnitude is 2.66D-15 for    778.
 Iteration    1 A^-1*A deviation from orthogonality  is 3.23D-15 for    124     97.
 Error on total polarization charges =  0.03847
 SCF Done:  E(RM062X) =  -241.688698069     A.U. after   10 cycles
            NFock= 10  Conv=0.88D-08     -V/T= 2.0085
 SMD-CDS (non-electrostatic) energy       (kcal/mol) =       0.27
 (included in total energy above)
 D1PCM: PCM CHGder 1st derivatives, ID1Alg=3 FixD1E=F DoIter=F DoCFld=F I1PDM=0.
 Calling FoFJK, ICntrl=      2127 FMM=F ISym2X=0 I1Cent= 0 IOpClX= 0 NMat=1 NMatS=1 NMatT=0.
 ***** Axes restored to original set *****
 -------------------------------------------------------------------
 Center     Atomic                   Forces (Hartrees/Bohr)
 Number     Number              X              Y              Z
 -------------------------------------------------------------------
      1        7           0.000574760    0.001806893   -0.000590775
      2        7           0.000856990   -0.000110174    0.001095413
      3        6           0.000962285   -0.000207820   -0.000238672
      4        6          -0.000125107   -0.001064858    0.000008899
      5        7          -0.002139697    0.000112937   -0.000182925
      6        1           0.000051393   -0.000346792   -0.000034545
      7        1          -0.000180624   -0.000190186   -0.000057394
 -------------------------------------------------------------------
 Cartesian Forces:  Max     0.002139697 RMS     0.000783376

 GradGradGradGradGradGradGradGradGradGradGradGradGradGradGradGradGradGrad
 Berny optimization.
 Using GEDIIS/GDIIS optimizer.
 FormGI is forming the generalized inverse of G from B-inverse, IUseBI=4.
 Internal  Forces:  Max     0.001399917 RMS     0.000607680
 Search for a local minimum.
 Step number   4 out of a maximum of   36
 All quantities printed in internal units (Hartrees-Bohrs-Radians)
 Mixed Optimization -- En-DIIS/RFO-DIIS
 Update second derivatives using D2CorX and points    1    2    3    4
 DE= -3.51D-05 DEPred=-5.51D-05 R= 6.37D-01
 TightC=F SS=  1.41D+00  RLast= 2.37D-02 DXNew= 5.0454D-01 7.1015D-02
 Trust test= 6.37D-01 RLast= 2.37D-02 DXMaxT set to 3.00D-01
 ITU=  1  1  0  0
 Use linear search instead of GDIIS.
     Eigenvalues ---    0.02345   0.02376   0.02390   0.02612   0.14590
     Eigenvalues ---    0.16030   0.29340   0.36062   0.36445   0.41532
     Eigenvalues ---    0.45909   0.49843   0.56633   0.63040   0.66323
 RFO step:  Lambda=-1.51169190D-05 EMin= 2.34457302D-02
 Quartic linear search produced a step of -0.26817.
 Iteration  1 RMS(Cart)=  0.00229054 RMS(Int)=  0.00001101
 Iteration  2 RMS(Cart)=  0.00000778 RMS(Int)=  0.00000558
 Iteration  3 RMS(Cart)=  0.00000000 RMS(Int)=  0.00000558
 Variable       Old X    -DE/DX   Delta X   Delta X   Delta X     New X
                                 (Linear)    (Quad)   (Total)
    R1        2.51794  -0.00112   0.00009  -0.00149  -0.00141   2.51653
    R2        2.51184   0.00140  -0.00042   0.00246   0.00204   2.51388
    R3        2.55264   0.00063   0.00131  -0.00131   0.00000   2.55264
    R4        2.61811   0.00004   0.00028  -0.00043  -0.00015   2.61796
    R5        2.04282  -0.00023  -0.00009  -0.00029  -0.00037   2.04244
    R6        2.55522  -0.00117   0.00022  -0.00192  -0.00170   2.55352
    R7        2.04180   0.00026   0.00033   0.00000   0.00033   2.04213
    A1        1.93632  -0.00038  -0.00084   0.00029  -0.00057   1.93575
    A2        1.87122  -0.00044  -0.00087   0.00015  -0.00073   1.87049
    A3        1.87197   0.00090   0.00180  -0.00010   0.00169   1.87366
    A4        2.12856  -0.00014  -0.00180   0.00313   0.00133   2.12989
    A5        2.28265  -0.00077   0.00000  -0.00302  -0.00302   2.27963
    A6        1.87625  -0.00098  -0.00270   0.00118  -0.00153   1.87472
    A7        2.27837   0.00053   0.00118  -0.00011   0.00107   2.27944
    A8        2.12856   0.00045   0.00152  -0.00107   0.00046   2.12902
    A9        1.86900   0.00090   0.00262  -0.00147   0.00114   1.87014
    D1        0.00520  -0.00041  -0.00205  -0.00878  -0.01084  -0.00563
    D2       -0.00376   0.00031   0.00149   0.00659   0.00808   0.00433
    D3       -0.00449   0.00034   0.00177   0.00733   0.00911   0.00462
    D4        3.13968   0.00016   0.00103   0.00308   0.00410  -3.13940
    D5        0.00228  -0.00017  -0.00090  -0.00345  -0.00435  -0.00207
    D6       -3.13987  -0.00015  -0.00079  -0.00298  -0.00377   3.13955
    D7        3.14098   0.00004  -0.00007   0.00132   0.00125  -3.14096
    D8       -0.00117   0.00006   0.00004   0.00180   0.00183   0.00066
    D9        0.00083  -0.00008  -0.00033  -0.00179  -0.00213  -0.00130
   D10       -3.14026  -0.00010  -0.00043  -0.00222  -0.00265   3.14027
         Item               Value     Threshold  Converged?
 Maximum Force            0.001400     0.000450     NO 
 RMS     Force            0.000608     0.000300     NO 
 Maximum Displacement     0.007589     0.001800     NO 
 RMS     Displacement     0.002290     0.001200     NO 
 Predicted change in Energy=-1.367965D-05
 GradGradGradGradGradGradGradGradGradGradGradGradGradGradGradGradGradGrad

                          Input orientation:                          
 ---------------------------------------------------------------------
 Center     Atomic      Atomic             Coordinates (Angstroms)
 Number     Number       Type             X           Y           Z
 ---------------------------------------------------------------------
      1          7           0       -0.272230   -0.355196    0.333043
      2          7           0       -1.106501    0.662707    0.129905
      3          6           0       -2.295564    0.136775   -0.236409
      4          6           0       -2.153620   -1.241284   -0.242283
      5          7           0       -0.881082   -1.518273    0.118051
      6          1           0       -3.151208    0.756893   -0.463313
      7          1           0       -2.864972   -2.020583   -0.475676
 ---------------------------------------------------------------------
                    Distance matrix (angstroms):
                    1          2          3          4          5
     1  N    0.000000
     2  N    1.331691   0.000000
     3  C    2.158748   1.350801   0.000000
     4  C    2.157726   2.204579   1.385363   0.000000
     5  N    1.330290   2.192631   2.205808   1.351264   0.000000
     6  H    3.187388   2.131104   1.080813   2.244271   3.266166
     7  H    3.185883   3.264812   2.244030   1.080649   2.130879
                    6          7
     6  H    0.000000
     7  H    2.792215   0.000000
 Stoichiometry    C2H2N3(1-)
 Framework group  C1[X(C2H2N3)]
 Deg. of freedom    15
 Full point group                 C1      NOp   1
 Largest Abelian subgroup         C1      NOp   1
 Largest concise Abelian subgroup C1      NOp   1
                         Standard orientation:                         
 ---------------------------------------------------------------------
 Center     Atomic      Atomic             Coordinates (Angstroms)
 Number     Number       Type             X           Y           Z
 ---------------------------------------------------------------------
      1          7           0        1.165406    0.048167   -0.001579
      2          7           0        0.365104    1.112549    0.001672
      3          6           0       -0.906092    0.655696   -0.000990
      4          6           0       -0.847717   -0.728437    0.000121
      5          7           0        0.457513   -1.078134    0.000762
      6          1           0       -1.755476    1.324055   -0.001233
      7          1           0       -1.637828   -1.465679    0.000463
 ---------------------------------------------------------------------
 Rotational constants (GHZ):          10.5445192          10.2915995           5.2082724
 Standard basis: 6-31+G(d,p) (6D, 7F)
 There are   105 symmetry adapted cartesian basis functions of A   symmetry.
 There are   105 symmetry adapted basis functions of A   symmetry.
   105 basis functions,   174 primitive gaussians,   105 cartesian basis functions
    18 alpha electrons       18 beta electrons
       nuclear repulsion energy       155.1597742668 Hartrees.
 NAtoms=    7 NActive=    7 NUniq=    7 SFac= 1.00D+00 NAtFMM=   60 NAOKFM=F Big=F
 Integral buffers will be    131072 words long.
 Raffenetti 2 integral format.
 Two-electron integral symmetry is turned on.
 ------------------------------------------------------------------------------
 Polarizable Continuum Model (PCM)
 =================================
 Model                : PCM.
 Atomic radii         : SMD-Coulomb.
 Polarization charges : Total charges.
 Charge compensation  : None.
 Solution method      : On-the-fly selection.
 Cavity type          : VdW (van der Waals Surface) (Alpha=1.000).
 Cavity algorithm     : GePol (No added spheres)
                        Default sphere list used, NSphG=    7.
                        Lebedev-Laikov grids with approx.  5.0 points / Ang**2.
                        Smoothing algorithm: York/Karplus (Gamma=1.0000).
                        Polarization charges: spherical gaussians, with
                                              point-specific exponents (IZeta= 3).
                        Self-potential: point-specific (ISelfS= 7).
                        Self-field    : sphere-specific E.n sum rule (ISelfD= 2).
 1st derivatives      : Analytical E(r).r(x)/FMM algorithm (CHGder, D1EAlg=3).
                        Cavity 1st derivative terms included.
 Solvent              : Water, Eps=  78.355300 Eps(inf)=   1.777849
 ------------------------------------------------------------------------------
 Spheres list:
 ISph  on   Nord     Re0    Alpha      Xe            Ye            Ze
    1   N      1    1.8900  1.000      1.165406      0.048167     -0.001579
    2   N      2    1.8900  1.000      0.365104      1.112549      0.001672
    3   C      3    1.8500  1.000     -0.906092      0.655696     -0.000990
    4   C      4    1.8500  1.000     -0.847717     -0.728437      0.000121
    5   N      5    1.8900  1.000      0.457513     -1.078134      0.000762
    6   H      6    1.2000  1.000     -1.755476      1.324055     -0.001233
    7   H      7    1.2000  1.000     -1.637828     -1.465679      0.000463
 ------------------------------------------------------------------------------
 ------------------------------------------------------------------------------
 Atomic radii for non-electrostatic terms: SMD-CDS.
 ------------------------------------------------------------------------------
 Nuclear repulsion after PCM non-electrostatic terms =      155.1602003187 Hartrees.
 One-electron integrals computed using PRISM.
 NBasis=   105 RedAO= T EigKep=  7.75D-05  NBF=   105
 NBsUse=   105 1.00D-06 EigRej= -1.00D+00 NBFU=   105
 Initial guess from the checkpoint file:  "/home/gau/soft/scratch/Gau-155903.chk"
 B after Tr=    -0.000000   -0.000000    0.000000
         Rot=    0.998932    0.000000    0.000000    0.046199 Ang=   5.30 deg.
 Keep R1 ints in memory in canonical form, NReq=60195709.
 Requested convergence on RMS density matrix=1.00D-08 within 128 cycles.
 Requested convergence on MAX density matrix=1.00D-06.
 Requested convergence on             energy=1.00D-06.
 No special actions if energy rises.
 Inv3:  Mode=1 IEnd=     1848675.
 Iteration    1 A*A^-1 deviation from unit magnitude is 3.11D-15 for    758.
 Iteration    1 A*A^-1 deviation from orthogonality  is 1.58D-15 for    758    712.
 Iteration    1 A^-1*A deviation from unit magnitude is 2.66D-15 for    750.
 Iteration    1 A^-1*A deviation from orthogonality  is 1.22D-15 for    774    728.
 Error on total polarization charges =  0.03838
 SCF Done:  E(RM062X) =  -241.688727628     A.U. after   10 cycles
            NFock= 10  Conv=0.51D-08     -V/T= 2.0085
 SMD-CDS (non-electrostatic) energy       (kcal/mol) =       0.27
 (included in total energy above)
 D1PCM: PCM CHGder 1st derivatives, ID1Alg=3 FixD1E=F DoIter=F DoCFld=F I1PDM=0.
 Calling FoFJK, ICntrl=      2127 FMM=F ISym2X=0 I1Cent= 0 IOpClX= 0 NMat=1 NMatS=1 NMatT=0.
 ***** Axes restored to original set *****
 -------------------------------------------------------------------
 Center     Atomic                   Forces (Hartrees/Bohr)
 Number     Number              X              Y              Z
 -------------------------------------------------------------------
      1        7           0.000333110    0.000809892    0.001056750
      2        7           0.000392181   -0.000216367   -0.000819178
      3        6          -0.000042839    0.000102385    0.000489498
      4        6           0.000008017   -0.000553993   -0.000035546
      5        7          -0.000524774   -0.000058330   -0.000677946
      6        1          -0.000020901   -0.000078089    0.000035563
      7        1          -0.000144793   -0.000005499   -0.000049141
 -------------------------------------------------------------------
 Cartesian Forces:  Max     0.001056750 RMS     0.000441051

 GradGradGradGradGradGradGradGradGradGradGradGradGradGradGradGradGradGrad
 Berny optimization.
 Using GEDIIS/GDIIS optimizer.
 FormGI is forming the generalized inverse of G from B-inverse, IUseBI=4.
 Internal  Forces:  Max     0.000722448 RMS     0.000264713
 Search for a local minimum.
 Step number   5 out of a maximum of   36
 All quantities printed in internal units (Hartrees-Bohrs-Radians)
 Mixed Optimization -- En-DIIS/RFO-DIIS
 Swapping is turned off.
 Update second derivatives using D2CorX and points    1    2    3    4    5
 DE= -2.96D-05 DEPred=-1.37D-05 R= 2.16D+00
 TightC=F SS=  1.41D+00  RLast= 1.90D-02 DXNew= 5.0454D-01 5.7003D-02
 Trust test= 2.16D+00 RLast= 1.90D-02 DXMaxT set to 3.00D-01
 ITU=  1  1  1  0  0
     Eigenvalues ---    0.02346   0.02373   0.02387   0.06915   0.12076
     Eigenvalues ---    0.16230   0.29559   0.35849   0.36405   0.37275
     Eigenvalues ---    0.42491   0.49686   0.57038   0.57286   0.65460
 En-DIIS/RFO-DIIS/Sim-DIIS IScMMF=       -3 using points:     5    4
 RFO step:  Lambda=-1.20476444D-05.
 DidBck=T Rises=F RFO-DIIS coefs:    0.49616    0.50384
 Iteration  1 RMS(Cart)=  0.00146496 RMS(Int)=  0.00000445
 Iteration  2 RMS(Cart)=  0.00000297 RMS(Int)=  0.00000262
 Iteration  3 RMS(Cart)=  0.00000000 RMS(Int)=  0.00000262
 Variable       Old X    -DE/DX   Delta X   Delta X   Delta X     New X
                                 (Linear)    (Quad)   (Total)
    R1        2.51653  -0.00027   0.00071  -0.00178  -0.00107   2.51546
    R2        2.51388   0.00072  -0.00103   0.00302   0.00199   2.51587
    R3        2.55264   0.00018  -0.00000  -0.00023  -0.00023   2.55241
    R4        2.61796   0.00012   0.00008  -0.00007   0.00000   2.61796
    R5        2.04244  -0.00004   0.00019  -0.00043  -0.00024   2.04220
    R6        2.55352  -0.00016   0.00086  -0.00204  -0.00118   2.55234
    R7        2.04213   0.00011  -0.00017   0.00044   0.00028   2.04241
    A1        1.93575  -0.00040   0.00029  -0.00115  -0.00086   1.93489
    A2        1.87049   0.00016   0.00037  -0.00029   0.00008   1.87057
    A3        1.87366   0.00019  -0.00085   0.00174   0.00089   1.87455
    A4        2.12989  -0.00004  -0.00067   0.00189   0.00122   2.13111
    A5        2.27963  -0.00015   0.00152  -0.00363  -0.00211   2.27753
    A6        1.87472  -0.00032   0.00077  -0.00169  -0.00091   1.87380
    A7        2.27944   0.00004  -0.00054   0.00075   0.00021   2.27965
    A8        2.12902   0.00028  -0.00023   0.00094   0.00070   2.12973
    A9        1.87014   0.00037  -0.00058   0.00139   0.00082   1.87096
    D1       -0.00563   0.00046   0.00546   0.00122   0.00667   0.00104
    D2        0.00433  -0.00036  -0.00407  -0.00133  -0.00541  -0.00108
    D3        0.00462  -0.00036  -0.00459  -0.00059  -0.00519  -0.00057
    D4       -3.13940  -0.00018  -0.00207  -0.00084  -0.00290   3.14089
    D5       -0.00207   0.00016   0.00219  -0.00020   0.00200  -0.00007
    D6        3.13955   0.00016   0.00190   0.00037   0.00226  -3.14137
    D7       -3.14096  -0.00005  -0.00063   0.00006  -0.00056  -3.14152
    D8        0.00066  -0.00005  -0.00092   0.00063  -0.00030   0.00037
    D9       -0.00130   0.00012   0.00107   0.00091   0.00199   0.00069
   D10        3.14027   0.00011   0.00133   0.00041   0.00175  -3.14117
         Item               Value     Threshold  Converged?
 Maximum Force            0.000722     0.000450     NO 
 RMS     Force            0.000265     0.000300     YES
 Maximum Displacement     0.004000     0.001800     NO 
 RMS     Displacement     0.001465     0.001200     NO 
 Predicted change in Energy=-6.024435D-06
 GradGradGradGradGradGradGradGradGradGradGradGradGradGradGradGradGradGrad

                          Input orientation:                          
 ---------------------------------------------------------------------
 Center     Atomic      Atomic             Coordinates (Angstroms)
 Number     Number       Type             X           Y           Z
 ---------------------------------------------------------------------
      1          7           0       -0.272380   -0.354470    0.335159
      2          7           0       -1.105324    0.662943    0.127858
      3          6           0       -2.294992    0.136753   -0.235661
      4          6           0       -2.153833   -1.241385   -0.242394
      5          7           0       -0.881658   -1.517971    0.117184
      6          1           0       -3.151386    0.755568   -0.462686
      7          1           0       -2.865603   -2.020399   -0.476142
 ---------------------------------------------------------------------
                    Distance matrix (angstroms):
                    1          2          3          4          5
     1  N    0.000000
     2  N    1.331126   0.000000
     3  C    2.158262   1.350678   0.000000
     4  C    2.158715   2.205203   1.385365   0.000000
     5  N    1.331341   2.192379   2.204569   1.350638   0.000000
     6  H    3.187070   2.131593   1.080686   2.243092   3.264489
     7  H    3.187214   3.265535   2.244266   1.080794   2.130846
                    6          7
     6  H    0.000000
     7  H    2.790670   0.000000
 Stoichiometry    C2H2N3(1-)
 Framework group  C1[X(C2H2N3)]
 Deg. of freedom    15
 Full point group                 C1      NOp   1
 Largest Abelian subgroup         C1      NOp   1
 Largest concise Abelian subgroup C1      NOp   1
                         Standard orientation:                         
 ---------------------------------------------------------------------
 Center     Atomic      Atomic             Coordinates (Angstroms)
 Number     Number       Type             X           Y           Z
 ---------------------------------------------------------------------
      1          7           0        1.166620   -0.020032    0.000352
      2          7           0        0.430469    1.089012   -0.000260
      3          6           0       -0.865260    0.707676    0.000033
      4          6           0       -0.889546   -0.677476    0.000094
      5          7           0        0.392298   -1.103034   -0.000260
      6          1           0       -1.674682    1.423719    0.000299
      7          1           0       -1.722192   -1.366547    0.000119
 ---------------------------------------------------------------------
 Rotational constants (GHZ):          10.5430545          10.2943132           5.2086000
 Standard basis: 6-31+G(d,p) (6D, 7F)
 There are   105 symmetry adapted cartesian basis functions of A   symmetry.
 There are   105 symmetry adapted basis functions of A   symmetry.
   105 basis functions,   174 primitive gaussians,   105 cartesian basis functions
    18 alpha electrons       18 beta electrons
       nuclear repulsion energy       155.1637493292 Hartrees.
 NAtoms=    7 NActive=    7 NUniq=    7 SFac= 1.00D+00 NAtFMM=   60 NAOKFM=F Big=F
 Integral buffers will be    131072 words long.
 Raffenetti 2 integral format.
 Two-electron integral symmetry is turned on.
 ------------------------------------------------------------------------------
 Polarizable Continuum Model (PCM)
 =================================
 Model                : PCM.
 Atomic radii         : SMD-Coulomb.
 Polarization charges : Total charges.
 Charge compensation  : None.
 Solution method      : On-the-fly selection.
 Cavity type          : VdW (van der Waals Surface) (Alpha=1.000).
 Cavity algorithm     : GePol (No added spheres)
                        Default sphere list used, NSphG=    7.
                        Lebedev-Laikov grids with approx.  5.0 points / Ang**2.
                        Smoothing algorithm: York/Karplus (Gamma=1.0000).
                        Polarization charges: spherical gaussians, with
                                              point-specific exponents (IZeta= 3).
                        Self-potential: point-specific (ISelfS= 7).
                        Self-field    : sphere-specific E.n sum rule (ISelfD= 2).
 1st derivatives      : Analytical E(r).r(x)/FMM algorithm (CHGder, D1EAlg=3).
                        Cavity 1st derivative terms included.
 Solvent              : Water, Eps=  78.355300 Eps(inf)=   1.777849
 ------------------------------------------------------------------------------
 Spheres list:
 ISph  on   Nord     Re0    Alpha      Xe            Ye            Ze
    1   N      1    1.8900  1.000      1.166620     -0.020032      0.000352
    2   N      2    1.8900  1.000      0.430469      1.089012     -0.000260
    3   C      3    1.8500  1.000     -0.865260      0.707676      0.000033
    4   C      4    1.8500  1.000     -0.889546     -0.677476      0.000094
    5   N      5    1.8900  1.000      0.392298     -1.103034     -0.000260
    6   H      6    1.2000  1.000     -1.674682      1.423719      0.000299
    7   H      7    1.2000  1.000     -1.722192     -1.366547      0.000119
 ------------------------------------------------------------------------------
 ------------------------------------------------------------------------------
 Atomic radii for non-electrostatic terms: SMD-CDS.
 ------------------------------------------------------------------------------
 Nuclear repulsion after PCM non-electrostatic terms =      155.1641750055 Hartrees.
 One-electron integrals computed using PRISM.
 NBasis=   105 RedAO= T EigKep=  7.75D-05  NBF=   105
 NBsUse=   105 1.00D-06 EigRej= -1.00D+00 NBFU=   105
 Initial guess from the checkpoint file:  "/home/gau/soft/scratch/Gau-155903.chk"
 B after Tr=     0.000000   -0.000000   -0.000000
         Rot=    0.999564   -0.000000    0.000000    0.029524 Ang=  -3.38 deg.
 Keep R1 ints in memory in canonical form, NReq=60195709.
 Requested convergence on RMS density matrix=1.00D-08 within 128 cycles.
 Requested convergence on MAX density matrix=1.00D-06.
 Requested convergence on             energy=1.00D-06.
 No special actions if energy rises.
 Inv3:  Mode=1 IEnd=     1811187.
 Iteration    1 A*A^-1 deviation from unit magnitude is 2.89D-15 for    113.
 Iteration    1 A*A^-1 deviation from orthogonality  is 1.89D-15 for    771    558.
 Iteration    1 A^-1*A deviation from unit magnitude is 2.89D-15 for    453.
 Iteration    1 A^-1*A deviation from orthogonality  is 1.75D-15 for    736    398.
 Error on total polarization charges =  0.03844
 SCF Done:  E(RM062X) =  -241.688728188     A.U. after    9 cycles
            NFock=  9  Conv=0.70D-08     -V/T= 2.0085
 SMD-CDS (non-electrostatic) energy       (kcal/mol) =       0.27
 (included in total energy above)
 D1PCM: PCM CHGder 1st derivatives, ID1Alg=3 FixD1E=F DoIter=F DoCFld=F I1PDM=0.
 Calling FoFJK, ICntrl=      2127 FMM=F ISym2X=0 I1Cent= 0 IOpClX= 0 NMat=1 NMatS=1 NMatT=0.
 ***** Axes restored to original set *****
 -------------------------------------------------------------------
 Center     Atomic                   Forces (Hartrees/Bohr)
 Number     Number              X              Y              Z
 -------------------------------------------------------------------
      1        7           0.000339148   -0.000145349   -0.000110908
      2        7          -0.000074303    0.000052426    0.000131279
      3        6          -0.000365424    0.000206998   -0.000123356
[...]
     7   1     0.39  -0.53  -0.00    -0.50   0.51   0.00    -0.18  -0.30   0.00
                     10                     11                     12
                      A                      A                      A
 Frequencies --   1232.9009              1270.8324              1467.9339
 Red. masses --      4.0632                10.2142                 3.5794
 Frc consts  --      3.6389                 9.7192                 4.5443
 IR Inten    --      8.9402                 4.0687                14.0598
  Atom  AN      X      Y      Z        X      Y      Z        X      Y      Z
     1   7     0.01   0.29   0.00    -0.21   0.00  -0.00     0.00   0.07   0.00
     2   7     0.23  -0.13   0.00     0.45   0.08  -0.00    -0.14  -0.10   0.00
     3   6    -0.09   0.02   0.00    -0.38   0.03   0.00     0.26   0.12  -0.00
     4   6     0.09   0.02  -0.00    -0.38  -0.02   0.00    -0.25   0.13   0.00
     5   7    -0.23  -0.13  -0.00     0.45  -0.09  -0.00     0.14  -0.10  -0.00
     6   1    -0.47  -0.40   0.00    -0.30   0.18  -0.00    -0.31  -0.54   0.00
     7   1     0.45  -0.43  -0.00    -0.32  -0.15  -0.00     0.29  -0.55  -0.00
                     13                     14                     15
                      A                      A                      A
 Frequencies --   1507.6557              3284.8093              3304.3407
 Red. masses --      4.1225                 1.0911                 1.1067
 Frc consts  --      5.5210                 6.9361                 7.1195
 IR Inten    --      1.7449                 2.9622                 7.2421
  Atom  AN      X      Y      Z        X      Y      Z        X      Y      Z
     1   7     0.03  -0.00   0.00     0.00   0.00  -0.00     0.00  -0.00   0.00
     2   7    -0.01   0.12  -0.00    -0.00  -0.00   0.00     0.00   0.00  -0.00
     3   6    -0.05  -0.35   0.00     0.04  -0.04  -0.00    -0.05   0.05   0.00
     4   6    -0.04   0.35   0.00    -0.05  -0.04   0.00    -0.05  -0.04   0.00
     5   7    -0.02  -0.11  -0.00     0.00  -0.00  -0.00     0.00  -0.00  -0.00
     6   1     0.54   0.25  -0.00    -0.50   0.44   0.00     0.55  -0.49  -0.00
     7   1     0.54  -0.27  -0.00     0.57   0.47  -0.00     0.51   0.43  -0.00

 -------------------
 - Thermochemistry -
 -------------------
 Temperature   298.150 Kelvin.  Pressure   1.00000 Atm.
 Atom     1 has atomic number  7 and mass  14.00307
 Atom     2 has atomic number  7 and mass  14.00307
 Atom     3 has atomic number  6 and mass  12.00000
 Atom     4 has atomic number  6 and mass  12.00000
 Atom     5 has atomic number  7 and mass  14.00307
 Atom     6 has atomic number  1 and mass   1.00783
 Atom     7 has atomic number  1 and mass   1.00783
 Molecular mass:    68.02487 amu.
 Principal axes and moments of inertia in atomic units:
                           1         2         3
     Eigenvalues --   171.17821 175.31439 346.49257
           X            0.02888   0.99958  -0.00002
           Y            0.99958  -0.02888   0.00001
           Z           -0.00000   0.00002   1.00000
 This molecule is an asymmetric top.
 Rotational symmetry number  1.
 Rotational temperatures (Kelvin)      0.50599     0.49405     0.24997
 Rotational constants (GHZ):          10.54305    10.29431     5.20860
 Zero-point vibrational energy     123209.7 (Joules/Mol)
                                   29.44783 (Kcal/Mol)
 Vibrational temperatures:    982.42  1088.09  1167.30  1259.07  1392.88
          (Kelvin)           1414.86  1600.27  1617.53  1751.18  1773.87
                             1828.44  2112.03  2169.18  4726.11  4754.21
 
 Zero-point correction=                           0.046928 (Hartree/Particle)
 Thermal correction to Energy=                    0.050288
 Thermal correction to Enthalpy=                  0.051232
 Thermal correction to Gibbs Free Energy=         0.020916
 Sum of electronic and zero-point Energies=           -241.641800
 Sum of electronic and thermal Energies=              -241.638441
 Sum of electronic and thermal Enthalpies=            -241.637496
 Sum of electronic and thermal Free Energies=         -241.667812
 
                     E (Thermal)             CV                S
                      KCal/Mol        Cal/Mol-Kelvin    Cal/Mol-Kelvin
 Total                   31.556             10.754             63.804
 Electronic               0.000              0.000              0.000
 Translational            0.889              2.981             38.570
 Rotational               0.889              2.981             23.857
 Vibrational             29.778              4.792              1.378
                       Q            Log10(Q)             Ln(Q)
 Total Bot       0.239423D-09         -9.620835        -22.152791
 Total V=0       0.921666D+12         11.964574         27.549449
 Vib (Bot)       0.297430D-21        -21.526616        -49.566865
 Vib (V=0)       0.114497D+01          0.058793          0.135375
 Electronic      0.100000D+01          0.000000          0.000000
 Translational   0.220524D+08          7.343455         16.908931
 Rotational      0.365027D+05          4.562326         10.505143
 ***** Axes restored to original set *****
 -------------------------------------------------------------------
 Center     Atomic                   Forces (Hartrees/Bohr)
 Number     Number              X              Y              Z
 -------------------------------------------------------------------
      1        7           0.000339189   -0.000145330   -0.000110895
      2        7          -0.000074276    0.000052432    0.000131287
      3        6          -0.000365463    0.000206968   -0.000123372
      4        6           0.000085931   -0.000299938   -0.000042900
      5        7           0.000078387   -0.000002269    0.000180225
      6        1          -0.000014180    0.000118824   -0.000017051
      7        1          -0.000049588    0.000069312   -0.000017294
 -------------------------------------------------------------------
 Cartesian Forces:  Max     0.000365463 RMS     0.000158201
 FormGI is forming the generalized inverse of G from B-inverse, IUseBI=4.

 GradGradGradGradGradGradGradGradGradGradGradGradGradGradGradGradGradGrad
 Berny optimization.
 Internal  Forces:  Max     0.000273585 RMS     0.000114244
 Search for a local minimum.
 Step number   1 out of a maximum of    2
 All quantities printed in internal units (Hartrees-Bohrs-Radians)
 Second derivative matrix not updated -- analytic derivatives used.
 ITU=  0
     Eigenvalues ---    0.01475   0.02815   0.07482   0.08179   0.10040
     Eigenvalues ---    0.10501   0.22237   0.29085   0.36630   0.37497
     Eigenvalues ---    0.38824   0.39262   0.49051   0.55019   0.58827
 Angle between quadratic step and forces=  44.54 degrees.
 Linear search not attempted -- first point.
 Iteration  1 RMS(Cart)=  0.00040826 RMS(Int)=  0.00000020
 Iteration  2 RMS(Cart)=  0.00000016 RMS(Int)=  0.00000008
 Variable       Old X    -DE/DX   Delta X   Delta X   Delta X     New X
                                 (Linear)    (Quad)   (Total)
    R1        2.51546   0.00025   0.00000   0.00045   0.00045   2.51591
    R2        2.51587   0.00001   0.00000  -0.00001  -0.00001   2.51585
    R3        2.55241   0.00016   0.00000   0.00030   0.00030   2.55271
    R4        2.61796   0.00027   0.00000   0.00064   0.00064   2.61861
    R5        2.04220   0.00008   0.00000   0.00019   0.00019   2.04239
    R6        2.55234   0.00019   0.00000   0.00013   0.00013   2.55247
    R7        2.04241  -0.00001   0.00000  -0.00003  -0.00003   2.04237
    A1        1.93489  -0.00009   0.00000  -0.00022  -0.00022   1.93467
    A2        1.87057   0.00016   0.00000   0.00038   0.00038   1.87094
    A3        1.87455  -0.00018   0.00000  -0.00049  -0.00049   1.87406
    A4        2.13111   0.00001   0.00000  -0.00057  -0.00057   2.13054
    A5        2.27753   0.00017   0.00000   0.00106   0.00106   2.27859
    A6        1.87380   0.00005   0.00000   0.00019   0.00019   1.87399
    A7        2.27965  -0.00011   0.00000  -0.00081  -0.00081   2.27884
    A8        2.12973   0.00005   0.00000   0.00062   0.00062   2.13035
    A9        1.87096   0.00006   0.00000   0.00015   0.00015   1.87111
    D1        0.00104  -0.00009   0.00000  -0.00103  -0.00103   0.00000
    D2       -0.00108   0.00009   0.00000   0.00108   0.00108  -0.00000
    D3       -0.00057   0.00005   0.00000   0.00057   0.00057  -0.00000
    D4        3.14089   0.00004   0.00000   0.00070   0.00070   3.14159
    D5       -0.00007   0.00000   0.00000   0.00008   0.00008   0.00000
    D6       -3.14137  -0.00002   0.00000  -0.00022  -0.00022   3.14159
    D7       -3.14152   0.00002   0.00000  -0.00007  -0.00007  -3.14159
    D8        0.00037  -0.00001   0.00000  -0.00037  -0.00037  -0.00000
    D9        0.00069  -0.00005   0.00000  -0.00069  -0.00069   0.00000
   D10       -3.14117  -0.00004   0.00000  -0.00042  -0.00042  -3.14159
         Item               Value     Threshold  Converged?
 Maximum Force            0.000274     0.000450     YES
 RMS     Force            0.000114     0.000300     YES
 Maximum Displacement     0.001128     0.001800     YES
 RMS     Displacement     0.000408     0.001200     YES
 Predicted change in Energy=-5.746469D-07
 Optimization completed.
    -- Stationary point found.
                           ----------------------------
                           !   Optimized Parameters   !
                           ! (Angstroms and Degrees)  !
 --------------------------                            --------------------------
 ! Name  Definition              Value          Derivative Info.                !
 --------------------------------------------------------------------------------
 ! R1    R(1,2)                  1.3311         -DE/DX =    0.0002              !
 ! R2    R(1,5)                  1.3313         -DE/DX =    0.0                 !
 ! R3    R(2,3)                  1.3507         -DE/DX =    0.0002              !
 ! R4    R(3,4)                  1.3854         -DE/DX =    0.0003              !
 ! R5    R(3,6)                  1.0807         -DE/DX =    0.0001              !
 ! R6    R(4,5)                  1.3506         -DE/DX =    0.0002              !
 ! R7    R(4,7)                  1.0808         -DE/DX =    0.0                 !
 ! A1    A(2,1,5)              110.8611         -DE/DX =   -0.0001              !
 ! A2    A(1,2,3)              107.1757         -DE/DX =    0.0002              !
 ! A3    A(2,3,4)              107.4038         -DE/DX =   -0.0002              !
 ! A4    A(2,3,6)              122.1036         -DE/DX =    0.0                 !
 ! A5    A(4,3,6)              130.4926         -DE/DX =    0.0002              !
 ! A6    A(3,4,5)              107.3611         -DE/DX =    0.0001              !
 ! A7    A(3,4,7)              130.6145         -DE/DX =   -0.0001              !
 ! A8    A(5,4,7)              122.0244         -DE/DX =    0.0001              !
 ! A9    A(1,5,4)              107.1983         -DE/DX =    0.0001              !
 ! D1    D(5,1,2,3)              0.0593         -DE/DX =   -0.0001              !
 ! D2    D(2,1,5,4)             -0.062          -DE/DX =    0.0001              !
 ! D3    D(1,2,3,4)             -0.0326         -DE/DX =    0.0                 !
 ! D4    D(1,2,3,6)            179.9598         -DE/DX =    0.0                 !
 ! D5    D(2,3,4,5)             -0.0043         -DE/DX =    0.0                 !
 ! D6    D(2,3,4,7)            180.0126         -DE/DX =    0.0                 !
 ! D7    D(6,3,4,5)           -179.9958         -DE/DX =    0.0                 !
 ! D8    D(6,3,4,7)              0.021          -DE/DX =    0.0                 !
 ! D9    D(3,4,5,1)              0.0395         -DE/DX =   -0.0001              !
 ! D10   D(7,4,5,1)           -179.9756         -DE/DX =    0.0                 !
 --------------------------------------------------------------------------------
 GradGradGradGradGradGradGradGradGradGradGradGradGradGradGradGradGradGrad


 ----------------------------------------------------------------------

 Electric dipole moment (input orientation):
 (Debye = 10**-18 statcoulomb cm , SI units = C m)
                  (au)            (Debye)         (10**-30 SI)
   Tot        0.221223D+01      0.562292D+01      0.187560D+02
   x         -0.211249D+01     -0.536941D+01     -0.179104D+02
   y         -0.214383D+00     -0.544908D+00     -0.181762D+01
   z         -0.620785D+00     -0.157788D+01     -0.526323D+01

 Dipole polarizability, Alpha (input orientation).
 (esu units = cm**3 , SI units = C**2 m**2 J**-1)
 Alpha(0;0):
               (au)            (10**-24 esu)      (10**-40 SI)
   iso        0.660035D+02      0.978071D+01      0.108825D+02
   aniso      0.323574D+02      0.479488D+01      0.533502D+01
   xx         0.743358D+02      0.110154D+02      0.122563D+02
   yx        -0.291192D+00     -0.431502D-01     -0.480111D-01
   yy         0.766874D+02      0.113639D+02      0.126440D+02
   zx         0.867499D+01      0.128550D+01      0.143031D+01
   zy         0.103320D+01      0.153105D+00      0.170352D+00
   zz         0.469874D+02      0.696281D+01      0.774717D+01

 ----------------------------------------------------------------------

 Dipole orientation:
     7         -0.70461378          0.68912160          0.37870202
     7         -0.92270682         -1.37111516          1.80538359
     6         -0.84222296         -0.61307935          4.24130377
     6         -0.56507103          1.99016971          4.24252737
     7         -0.48392516          2.74857862          1.80682324
     1         -0.98305475         -1.93241301          5.79375603
     1         -0.42419493          3.31149414          5.79355122

 Electric dipole moment (dipole orientation):
 (Debye = 10**-18 statcoulomb cm , SI units = C m)
                  (au)            (Debye)         (10**-30 SI)
   Tot        0.221223D+01      0.562292D+01      0.187560D+02
   x          0.000000D+00      0.000000D+00      0.000000D+00
   y          0.000000D+00      0.000000D+00      0.000000D+00
   z          0.221223D+01      0.562292D+01      0.187560D+02

 Dipole polarizability, Alpha (dipole orientation).
 (esu units = cm**3 , SI units = C**2 m**2 J**-1)
 Alpha(0;0):
               (au)            (10**-24 esu)      (10**-40 SI)
   iso        0.660035D+02      0.978071D+01      0.108825D+02
   aniso      0.323574D+02      0.479488D+01      0.533502D+01
   xx         0.447941D+02      0.663780D+01      0.738554D+01
   yx         0.339986D+01      0.503807D+00      0.560561D+00
   yy         0.763607D+02      0.113155D+02      0.125902D+02
   zx         0.212412D-02      0.314762D-03      0.350220D-03
   zy        -0.463105D-02     -0.686252D-03     -0.763558D-03
   zz         0.768558D+02      0.113888D+02      0.126718D+02

 ----------------------------------------------------------------------
 Unable to Open any file for archive entry.
 1\1\GINC-NODE01\Freq\RM062X\6-31+G(d,p)\C2H2N3(1-)\GAU\02-Dec-2023\0\\
 #N Geom=AllCheck Guess=TCheck SCRF=Check GenChk RM062X/6-31+G(d,p) Fre
 q\\Title Card Required\\-1,1\N,-0.2723802496,-0.3544698325,0.335159003
 8\N,-1.1053242304,0.6629425543,0.1278579535\C,-2.2949919564,0.13675329
 39,-0.23566127\C,-2.1538329387,-1.2413852941,-0.2423943457\N,-0.881658
 3446,-1.5179708945,0.1171839209\H,-3.1513860629,0.7555677002,-0.462685
 5525\H,-2.8656032174,-2.0203985272,-0.4761417101\\Version=ES64L-G16Rev
 C.01\State=1-A\HF=-241.6887282\RMSD=3.437e-09\RMSF=1.582e-04\ZeroPoint
 =0.0469281\Thermal=0.0502876\ETot=-241.6384406\HTot=-241.6374964\GTot=
 -241.6678119\Dipole=-2.1124905,-0.2143832,-0.6207848\DipoleDeriv=-0.70
 89922,-0.1041703,-0.109131,-0.1040242,0.3159374,-0.0072011,-0.1096364,
 -0.0073735,-0.3766347,-0.0347619,0.0642589,0.0971241,-0.1320513,-0.903
 9487,-0.0573473,0.090438,0.000044,-0.3353673,-0.1223466,0.0939395,0.03
 06241,-0.1322495,0.186961,-0.0242969,0.0227019,0.041355,-0.2090319,-0.
 1190998,-0.1580936,0.0230774,0.0681375,0.1816578,0.0334978,0.030993,-0
 .0319855,-0.2093769,-0.081453,0.1033624,0.0848499,0.2999232,-0.8546101
 ,0.0701426,0.091995,0.0127144,-0.3350303,0.0136134,0.0798741,-0.066284
 9,0.108312,0.0562833,0.0247223,-0.0651974,0.0163921,0.23314,0.0530401,
 -0.0791709,-0.0602596,-0.1080478,0.0177192,-0.0395174,-0.0612941,-0.03
 11464,0.2323011\Polar=74.3357579,-0.2911921,76.6874346,8.6749865,1.033
 2035,46.9873645\Quadrupole=0.4139878,-2.4287258,2.0147379,0.3013451,-0
 .498537,-0.0715278\PG=C01 [X(C2H2N3)]\NImag=0\\0.54491510,0.00848270,0
 .45475743,0.12053321,0.01368696,0.16698052,-0.18402826,0.12397733,-0.0
 2077683,0.47805930,0.06002103,-0.19639188,0.01406546,0.03057899,0.5370
 4399,-0.02296190,0.03266722,-0.10352117,0.10595984,0.02337010,0.148529
 08,-0.10899207,0.06190724,-0.03640123,-0.26697708,-0.08956251,-0.05874
 735,0.73534691,-0.00732071,-0.00487805,-0.00313371,-0.08883610,-0.1603
 4649,-0.02872283,-0.15630945,0.72268845,-0.03883541,0.01700862,0.01302
 329,-0.05870597,-0.02894819,-0.09330502,0.17027337,-0.02485200,0.17865
 237,-0.09357791,-0.07992667,-0.03684783,0.00079768,-0.00388003,-0.0053
 8952,-0.10573915,0.00471967,-0.01076529,0.67229869,-0.01071453,-0.0197
 7961,-0.00460199,-0.09711080,-0.04995468,-0.03059447,0.04761328,-0.359
 69853,0.00372339,0.14455904,0.78367115,-0.03447568,-0.02473974,0.01285
 269,-0.00859691,-0.00350753,0.01621718,-0.00928132,-0.00873541,-0.0710
 7097,0.16234822,0.06466995,0.17980617,-0.14901146,-0.11365385,-0.01873
 428,-0.01199576,-0.01948939,-0.01512700,-0.02140887,0.10325433,-0.0081
 2301,-0.29834982,0.06060403,-0.06261277,0.49414376,-0.04969231,-0.2322
 8897,-0.01913759,0.04605702,-0.13930195,0.00721767,0.00999353,-0.02833
 293,0.00125426,0.06141075,-0.12886371,0.01596873,-0.04081898,0.5223848
 5,-0.01647881,-0.03773714,-0.10443399,-0.01285776,-0.01178269,0.033655
 16,-0.01138283,0.02835320,0.01658678,-0.06258749,0.01571510,-0.0929552
 0,0.10803955,0.00228048,0.14873239,-0.00405835,-0.00146175,-0.00375124
 ,-0.01660330,0.01836638,-0.00199339,-0.24114935,0.13899684,-0.05710756
 ,0.00573486,-0.00354370,0.00201028,0.00094316,-0.00255594,-0.00190819,
 0.25565924,-0.00501308,-0.00130405,-0.00180433,-0.01302932,0.01464737,
 -0.00301521,0.14516133,-0.16572480,0.03734743,0.02081844,-0.00063853,0
 .00607631,0.00305107,-0.00589517,0.00043135,-0.15034861,0.15900999,-0.
 00387934,-0.00077301,0.00754301,-0.00308230,0.00609932,-0.00825123,-0.
 05688733,0.03555537,-0.04297617,0.00285719,-0.00099623,-0.00082624,-0.
 00171740,-0.00119472,0.00667814,0.06237822,-0.03890705,0.03947173,-0.0
 0524706,0.00067500,-0.00402180,0.00074742,0.00396553,-0.00174069,0.008
 91962,0.00549544,0.00326388,-0.18116434,-0.14140732,-0.04939181,-0.014
 32100,-0.02439407,-0.00282447,-0.00052626,-0.00063983,0.00033097,0.191
 59163,0.00423689,-0.00011487,0.00092518,-0.00163712,-0.00569637,-0.000
 92248,-0.01880341,-0.00370766,-0.00553350,-0.14770119,-0.22473609,-0.0
 4973231,0.00705280,0.01229787,0.00273970,0.00054678,-0.00009481,0.0002
 1632,0.15630524,0.22205194,-0.00390207,-0.00011290,0.00755564,-0.00194
 006,0.00070352,0.00667601,0.00242670,0.00153538,-0.00091029,-0.0496152
 9,-0.04791575,-0.04402364,-0.00172508,-0.00638884,-0.00826329,0.000371
 88,-0.00012850,-0.00163925,0.05438393,0.05230708,0.04060482\\-0.000339
 19,0.00014533,0.00011089,0.00007428,-0.00005243,-0.00013129,0.00036546
 ,-0.00020697,0.00012337,-0.00008593,0.00029994,0.00004290,-0.00007839,
 0.00000227,-0.00018023,0.00001418,-0.00011882,0.00001705,0.00004959,-0
 .00006931,0.00001729\\\@
 The archive entry for this job was punched.


 I DON'T EXACTLY UNDERSTAND WHAT YOU ARE SAYING,
 BUT YOU ARE ABSOLUTELY RIGHT.
     M.S.GORDON, IN A NDSU FACULTY MEETING
 Job cpu time:       0 days  0 hours  8 minutes 43.5 seconds.
 Elapsed time:       0 days  0 hours  0 minutes 11.9 seconds.
 File lengths (MBytes):  RWF=     32 Int=      0 D2E=      0 Chk=      4 Scr=      1
 Normal termination of Gaussian 16 at Sat Dec  2 05:20:35 2023.
