 Entering Gaussian System, Link 0=/opt/soft/g16/g16
 Initial command:
 /opt/soft/g16/l1.exe "/scratch/gongke2021/PC-2-N/Gau-4259.inp" -scrdir="/scratch/gongke2021/PC-2-N/"
 Entering Link 1 = /opt/soft/g16/l1.exe PID=      4260.
  
 Copyright (c) 1988,1990,1992,1993,1995,1998,2003,2009,2016,
            Gaussian, Inc.  All Rights Reserved.
  
 This is part of the Gaussian(R) 16 program.  It is based on
 the Gaussian(R) 09 system (copyright 2009, Gaussian, Inc.),
 the Gaussian(R) 03 system (copyright 2003, Gaussian, Inc.),
 the Gaussian(R) 98 system (copyright 1998, Gaussian, Inc.),
 the Gaussian(R) 94 system (copyright 1995, Gaussian, Inc.),
 the Gaussian 92(TM) system (copyright 1992, Gaussian, Inc.),
 the Gaussian 90(TM) system (copyright 1990, Gaussian, Inc.),
 the Gaussian 88(TM) system (copyright 1988, Gaussian, Inc.),
 the Gaussian 86(TM) system (copyright 1986, Carnegie Mellon
 University), and the Gaussian 82(TM) system (copyright 1983,
 Carnegie Mellon University). Gaussian is a federally registered
 trademark of Gaussian, Inc.
  
 This software contains proprietary and confidential information,
 including trade secrets, belonging to Gaussian, Inc.
  
 This software is provided under written license and may be
 used, copied, transmitted, or stored only in accord with that
 written license.
  
 The following legend is applicable only to US Government
 contracts under FAR:
  
                    RESTRICTED RIGHTS LEGEND
  
 Use, reproduction and disclosure by the US Government is
 subject to restrictions as set forth in subparagraphs (a)
 and (c) of the Commercial Computer Software - Restricted
 Rights clause in FAR 52.227-19.
  
 Gaussian, Inc.
 340 Quinnipiac St., Bldg. 40, Wallingford CT 06492
  
  
 ---------------------------------------------------------------
 Warning -- This program may not be used in any manner that
 competes with the business of Gaussian, Inc. or will provide
 assistance to any competitor of Gaussian, Inc.  The licensee
 of this program is prohibited from giving any competitor of
 Gaussian, Inc. access to this program.  By using this program,
 the user acknowledges that Gaussian, Inc. is engaged in the
 business of creating and licensing software in the field of
 computational chemistry and represents and warrants to the
 licensee that it is not a competitor of Gaussian, Inc. and that
 it will not use this program in any manner prohibited above.
 ---------------------------------------------------------------
  

 Cite this work as:
 Gaussian 16, Revision A.03,
 M. J. Frisch, G. W. Trucks, H. B. Schlegel, G. E. Scuseria, 
 M. A. Robb, J. R. Cheeseman, G. Scalmani, V. Barone, 
 G. A. Petersson, H. Nakatsuji, X. Li, M. Caricato, A. V. Marenich, 
 J. Bloino, B. G. Janesko, R. Gomperts, B. Mennucci, H. P. Hratchian, 
 J. V. Ortiz, A. F. Izmaylov, J. L. Sonnenberg, D. Williams-Young, 
 F. Ding, F. Lipparini, F. Egidi, J. Goings, B. Peng, A. Petrone, 
 T. Henderson, D. Ranasinghe, V. G. Zakrzewski, J. Gao, N. Rega, 
 G. Zheng, W. Liang, M. Hada, M. Ehara, K. Toyota, R. Fukuda, 
 J. Hasegawa, M. Ishida, T. Nakajima, Y. Honda, O. Kitao, H. Nakai, 
 T. Vreven, K. Throssell, J. A. Montgomery, Jr., J. E. Peralta, 
 F. Ogliaro, M. J. Bearpark, J. J. Heyd, E. N. Brothers, K. N. Kudin, 
 V. N. Staroverov, T. A. Keith, R. Kobayashi, J. Normand, 
 K. Raghavachari, A. P. Rendell, J. C. Burant, S. S. Iyengar, 
 J. Tomasi, M. Cossi, J. M. Millam, M. Klene, C. Adamo, R. Cammi, 
 J. W. Ochterski, R. L. Martin, K. Morokuma, O. Farkas, 
 J. B. Foresman, and D. J. Fox, Gaussian, Inc., Wallingford CT, 2016.
 
 ******************************************
 Gaussian 16:  ES64L-G16RevA.03 25-Dec-2016
                 7-Jul-2023 
 ******************************************
 %mem=10GB
 %nprocshared=24
 Will use up to   24 processors via shared memory.
 -----------------------------------------------------
 # opt freq 6-31+g(d,p) m062x scrf=(SMD,solvent=water)
 -----------------------------------------------------
 1/18=20,19=15,26=3,38=1/1,3;
 2/9=110,12=2,17=6,18=5,40=1/2;
 3/5=1,6=6,7=111,11=2,25=1,30=1,70=32201,71=1,72=1,74=-55/1,2,3;
 4//1;
 5/5=2,38=5,53=1/2;
 6/7=2,8=2,9=2,10=2,28=1/1;
 7//1,2,3,16;
 1/18=20,19=15,26=3/3(2);
 2/9=110/2;
 99//99;
 2/9=110/2;
 3/5=1,6=6,7=111,11=2,25=1,30=1,70=32205,71=1,72=1,74=-55/1,2,3;
 4/5=5,16=3,69=1/1;
 5/5=2,38=5,53=1/2;
 7//1,2,3,16;
 1/18=20,19=15,26=3/3(-5);
 2/9=110/2;
 6/7=2,8=2,9=2,10=2,19=2,28=1/1;
 99/9=1/99;
 --
 TS
 --
 Symbolic Z-matrix:
 Charge = -1 Multiplicity = 2
 N                     0.85817   0.18564  -0.12794 
 N                     0.04054  -0.90599   0.18185 
 C                     0.92806  -1.95472   0.32669 
 C                     2.199    -1.44703   0.19317 
 N                     2.19337  -0.12606  -0.06572 
 H                     0.56662  -2.95527   0.5028 
 H                     3.141    -1.9704    0.28098 
 H                    -1.32256  -1.33981  -0.47739 
 C                     0.4242    1.52417  -0.09988 
 O                    -0.86242   1.72093   0.07567 
 O                     1.22283   2.42201  -0.29075 
 O                    -2.715     0.24948   0.76236 
 H                    -2.58713  -0.18456   1.61162 
 H                    -1.35706   0.81373   0.46249 
 O                    -2.22191  -1.39033  -0.91858 
 H                    -2.40402  -1.09143  -1.81414 
 H                    -2.68062  -0.45587   0.0795 
 
 Add virtual bond connecting atoms H17        and O15        Dist= 2.73D+00.
 Add virtual bond connecting atoms N2         and H8         Dist= 2.98D+00.
 Add virtual bond connecting atoms H14        and O12        Dist= 2.84D+00.

 GradGradGradGradGradGradGradGradGradGradGradGradGradGradGradGradGradGrad
 Berny optimization.
 Initialization pass.
                           ----------------------------
                           !    Initial Parameters    !
                           ! (Angstroms and Degrees)  !
 --------------------------                            --------------------------
 ! Name  Definition              Value          Derivative Info.                !
 --------------------------------------------------------------------------------
 ! R1    R(1,2)                  1.3986         estimate D2E/DX2                !
 ! R2    R(1,5)                  1.3725         estimate D2E/DX2                !
 ! R3    R(1,9)                  1.4074         estimate D2E/DX2                !
 ! R4    R(2,3)                  1.3815         estimate D2E/DX2                !
 ! R5    R(2,8)                  1.5751         estimate D2E/DX2                !
 ! R6    R(3,4)                  1.3751         estimate D2E/DX2                !
 ! R7    R(3,6)                  1.0783         estimate D2E/DX2                !
 ! R8    R(4,5)                  1.3461         estimate D2E/DX2                !
 ! R9    R(4,7)                  1.0812         estimate D2E/DX2                !
 ! R10   R(8,15)                 1.003          estimate D2E/DX2                !
 ! R11   R(9,10)                 1.3134         estimate D2E/DX2                !
 ! R12   R(9,11)                 1.2167         estimate D2E/DX2                !
 ! R13   R(10,14)                1.1033         estimate D2E/DX2                !
 ! R14   R(12,13)                0.9623         estimate D2E/DX2                !
 ! R15   R(12,14)                1.5008         estimate D2E/DX2                !
 ! R16   R(12,17)                0.9823         estimate D2E/DX2                !
 ! R17   R(15,16)                0.9615         estimate D2E/DX2                !
 ! R18   R(15,17)                1.4421         estimate D2E/DX2                !
 ! A1    A(2,1,5)              112.4214         estimate D2E/DX2                !
 ! A2    A(2,1,9)              123.8921         estimate D2E/DX2                !
 ! A3    A(5,1,9)              121.0008         estimate D2E/DX2                !
 ! A4    A(1,2,3)              103.8958         estimate D2E/DX2                !
 ! A5    A(1,2,8)              128.9168         estimate D2E/DX2                !
 ! A6    A(3,2,8)              113.0029         estimate D2E/DX2                !
 ! A7    A(2,3,4)              107.6574         estimate D2E/DX2                !
 ! A8    A(2,3,6)              120.409          estimate D2E/DX2                !
 ! A9    A(4,3,6)              131.9317         estimate D2E/DX2                !
 ! A10   A(3,4,5)              112.1555         estimate D2E/DX2                !
 ! A11   A(3,4,7)              128.219          estimate D2E/DX2                !
 ! A12   A(5,4,7)              119.6221         estimate D2E/DX2                !
 ! A13   A(1,5,4)              103.6295         estimate D2E/DX2                !
 ! A14   A(1,9,10)             116.5654         estimate D2E/DX2                !
 ! A15   A(1,9,11)             119.7552         estimate D2E/DX2                !
 ! A16   A(10,9,11)            123.6032         estimate D2E/DX2                !
 ! A17   A(9,10,14)            111.2767         estimate D2E/DX2                !
 ! A18   A(13,12,14)           103.0436         estimate D2E/DX2                !
 ! A19   A(13,12,17)           106.5575         estimate D2E/DX2                !
 ! A20   A(14,12,17)            95.7045         estimate D2E/DX2                !
 ! A21   A(10,14,12)           141.7072         estimate D2E/DX2                !
 ! A22   A(8,15,16)            124.3222         estimate D2E/DX2                !
 ! A23   A(8,15,17)             87.0282         estimate D2E/DX2                !
 ! A24   A(16,15,17)           112.5154         estimate D2E/DX2                !
 ! A25   A(12,17,15)           163.2304         estimate D2E/DX2                !
 ! A26   L(2,8,15,12,-1)       171.0832         estimate D2E/DX2                !
 ! A27   L(2,8,15,12,-2)       170.2292         estimate D2E/DX2                !
 ! D1    D(5,1,2,3)             -5.1517         estimate D2E/DX2                !
 ! D2    D(5,1,2,8)           -140.97           estimate D2E/DX2                !
 ! D3    D(9,1,2,3)           -166.6646         estimate D2E/DX2                !
 ! D4    D(9,1,2,8)             57.5171         estimate D2E/DX2                !
 ! D5    D(2,1,5,4)              4.202          estimate D2E/DX2                !
 ! D6    D(9,1,5,4)            166.3189         estimate D2E/DX2                !
 ! D7    D(2,1,9,10)            -8.2582         estimate D2E/DX2                !
 ! D8    D(2,1,9,11)           174.8006         estimate D2E/DX2                !
 ! D9    D(5,1,9,10)          -168.2614         estimate D2E/DX2                !
 ! D10   D(5,1,9,11)            14.7973         estimate D2E/DX2                !
 ! D11   D(1,2,3,4)              3.9153         estimate D2E/DX2                !
 ! D12   D(1,2,3,6)           -175.6525         estimate D2E/DX2                !
 ! D13   D(8,2,3,4)            147.8222         estimate D2E/DX2                !
 ! D14   D(8,2,3,6)            -31.7457         estimate D2E/DX2                !
 ! D15   D(1,2,15,16)           27.6541         estimate D2E/DX2                !
 ! D16   D(1,2,15,17)          -83.8313         estimate D2E/DX2                !
 ! D17   D(3,2,15,16)         -106.5697         estimate D2E/DX2                !
 ! D18   D(3,2,15,17)          141.9449         estimate D2E/DX2                !
 ! D19   D(2,3,4,5)             -1.5842         estimate D2E/DX2                !
 ! D20   D(2,3,4,7)            177.7311         estimate D2E/DX2                !
 ! D21   D(6,3,4,5)            177.9148         estimate D2E/DX2                !
 ! D22   D(6,3,4,7)             -2.7699         estimate D2E/DX2                !
 ! D23   D(3,4,5,1)             -1.5496         estimate D2E/DX2                !
 ! D24   D(7,4,5,1)            179.0692         estimate D2E/DX2                !
 ! D25   D(1,9,10,14)           16.5186         estimate D2E/DX2                !
 ! D26   D(11,9,10,14)        -166.6698         estimate D2E/DX2                !
 ! D27   D(9,10,14,12)        -172.1167         estimate D2E/DX2                !
 ! D28   D(13,12,14,10)       -137.289          estimate D2E/DX2                !
 ! D29   D(17,12,14,10)        114.2221         estimate D2E/DX2                !
 ! D30   D(13,12,17,15)        -90.7055         estimate D2E/DX2                !
 ! D31   D(14,12,17,15)         14.7403         estimate D2E/DX2                !
 ! D32   D(8,15,17,12)          25.1093         estimate D2E/DX2                !
 ! D33   D(16,15,17,12)       -101.0245         estimate D2E/DX2                !
 --------------------------------------------------------------------------------
 Trust Radius=3.00D-01 FncErr=1.00D-07 GrdErr=1.00D-06 EigMax=2.50D+02 EigMin=1.00D-04
 Number of steps in this run=     88 maximum allowed number of steps=    102.
 GradGradGradGradGradGradGradGradGradGradGradGradGradGradGradGradGradGrad

                          Input orientation:                          
 ---------------------------------------------------------------------
 Center     Atomic      Atomic             Coordinates (Angstroms)
 Number     Number       Type             X           Y           Z
 ---------------------------------------------------------------------
      1          7           0        0.858172    0.185639   -0.127936
      2          7           0        0.040536   -0.905993    0.181849
      3          6           0        0.928058   -1.954724    0.326691
      4          6           0        2.198995   -1.447034    0.193174
      5          7           0        2.193369   -0.126057   -0.065719
      6          1           0        0.566619   -2.955267    0.502800
      7          1           0        3.141002   -1.970397    0.280982
      8          1           0       -1.322555   -1.339809   -0.477395
      9          6           0        0.424201    1.524165   -0.099875
     10          8           0       -0.862417    1.720926    0.075670
     11          8           0        1.222833    2.422010   -0.290746
     12          8           0       -2.715000    0.249478    0.762362
     13          1           0       -2.587131   -0.184555    1.611615
     14          1           0       -1.357062    0.813726    0.462490
     15          8           0       -2.221910   -1.390325   -0.918576
     16          1           0       -2.404018   -1.091426   -1.814140
     17          1           0       -2.680624   -0.455868    0.079502
 ---------------------------------------------------------------------
                    Distance matrix (angstroms):
                    1          2          3          4          5
     1  N    0.000000
     2  N    1.398626   0.000000
     3  C    2.189229   1.381489   0.000000
     4  C    2.136946   2.225264   1.375084   0.000000
     5  N    1.372507   2.303102   2.258101   1.346119   0.000000
     6  H    3.216850   2.139929   1.078304   2.243944   3.312697
     7  H    3.166547   3.279584   2.213472   1.081201   2.102332
     8  H    2.684154   1.575061   2.467779   3.586430   3.742245
     9  C    1.407398   2.476335   3.540974   3.473297   2.419577
    10  O    2.314949   2.779802   4.096244   4.407042   3.573397
    11  O    2.271748   3.563254   4.429890   4.019524   2.735914
    12  O    3.682969   3.043861   4.280209   5.229673   4.991876
    13  H    3.877266   3.077229   4.140179   5.149061   5.066562
    14  H    2.377048   2.233713   3.592288   4.222453   3.710493
    15  O    3.549039   2.562065   3.433880   4.558904   4.671234
    16  H    3.887938   3.161361   4.053538   5.034232   5.012472
    17  H    3.602449   2.760036   3.915387   4.980564   4.887297
                    6          7          8          9         10
     6  H    0.000000
     7  H    2.765252   0.000000
     8  H    2.671978   4.571228   0.000000
     9  C    4.522036   4.442750   3.375800   0.000000
    10  O    4.908296   5.449347   3.144154   1.313361   0.000000
    11  O    5.474983   4.826954   4.545890   1.216705   2.230257
    12  O    4.594212   6.281109   2.449843   3.496121   2.463487
    13  H    4.341941   6.145838   2.701430   3.862259   2.994098
    14  H    4.231723   5.293096   2.349954   1.998468   1.103320
    15  O    3.499321   5.525961   1.003011   4.020750   3.537885
    16  H    4.203189   5.992443   1.737280   4.216497   3.722531
    17  H    4.119559   6.018781   1.713428   3.686820   2.836252
                   11         12         13         14         15
    11  O    0.000000
    12  O    4.619032   0.000000
    13  H    4.992893   0.962271   0.000000
    14  H    3.132060   1.500765   1.957070   0.000000
    15  O    5.176323   2.399509   2.826506   2.741012   0.000000
    16  H    5.274373   2.921146   3.548485   3.147819   0.961529
    17  H    4.863768   0.982340   1.558757   1.873597   1.442147
                   16         17
    16  H    0.000000
    17  H    2.016513   0.000000
 Stoichiometry    C3H7N3O4(1-,2)
 Framework group  C1[X(C3H7N3O4)]
 Deg. of freedom    45
 Full point group                 C1      NOp   1
 Largest Abelian subgroup         C1      NOp   1
 Largest concise Abelian subgroup C1      NOp   1
                         Standard orientation:                         
 ---------------------------------------------------------------------
 Center     Atomic      Atomic             Coordinates (Angstroms)
 Number     Number       Type             X           Y           Z
 ---------------------------------------------------------------------
      1          7           0       -0.865092    0.176039    0.129250
      2          7           0       -0.029656   -0.901903   -0.180980
      3          6           0       -0.899898   -1.964892   -0.326737
      4          6           0       -2.178991   -1.478103   -0.193274
      5          7           0       -2.195005   -0.157374    0.066447
      6          1           0       -0.522123   -2.959290   -0.503367
      7          1           0       -3.112304   -2.016719   -0.281685
      8          1           0        1.340150   -1.313823    0.478391
      9          6           0       -0.453023    1.521489    0.102153
     10          8           0        0.830260    1.739339   -0.072893
     11          8           0       -1.266261    2.406056    0.293353
     12          8           0        2.706812    0.298765   -0.759964
     13          1           0        2.586286   -0.136762   -1.609526
     14          1           0        1.339759    0.840580   -0.460135
     15          8           0        2.240085   -1.349929    0.919803
     16          1           0        2.417037   -1.048661    1.815607
     17          1           0        2.683764   -0.407478   -0.077555
 ---------------------------------------------------------------------
 Rotational constants (GHZ):           1.5136287           1.1278001           0.7069298
 Standard basis: 6-31+G(d,p) (6D, 7F)
 There are   225 symmetry adapted cartesian basis functions of A   symmetry.
 There are   225 symmetry adapted basis functions of A   symmetry.
   225 basis functions,   369 primitive gaussians,   225 cartesian basis functions
    40 alpha electrons       39 beta electrons
       nuclear repulsion energy       565.4636387217 Hartrees.
 NAtoms=   17 NActive=   17 NUniq=   17 SFac= 1.00D+00 NAtFMM=   60 NAOKFM=F Big=F
 Integral buffers will be    131072 words long.
 Raffenetti 2 integral format.
 Two-electron integral symmetry is turned on.
 ------------------------------------------------------------------------------
 Polarizable Continuum Model (PCM)
 =================================
 Model                : PCM.
 Atomic radii         : SMD-Coulomb.
 Polarization charges : Total charges.
 Charge compensation  : None.
 Solution method      : On-the-fly selection.
 Cavity type          : VdW (van der Waals Surface) (Alpha=1.000).
 Cavity algorithm     : GePol (No added spheres)
                        Default sphere list used, NSphG=   17.
                        Lebedev-Laikov grids with approx.  5.0 points / Ang**2.
                        Smoothing algorithm: York/Karplus (Gamma=1.0000).
                        Polarization charges: spherical gaussians, with
                                              point-specific exponents (IZeta= 3).
                        Self-potential: point-specific (ISelfS= 7).
                        Self-field    : sphere-specific E.n sum rule (ISelfD= 2).
 1st derivatives      : Analytical E(r).r(x)/FMM algorithm (CHGder, D1EAlg=3).
                        Cavity 1st derivative terms included.
 Solvent              : Water, Eps=  78.355300 Eps(inf)=   1.777849
 ------------------------------------------------------------------------------
 Spheres list:
 ISph  on   Nord     Re0    Alpha      Xe            Ye            Ze
    1   N      1    1.8900  1.000     -0.865092      0.176039      0.129250
    2   N      2    1.8900  1.000     -0.029656     -0.901903     -0.180980
    3   C      3    1.8500  1.000     -0.899898     -1.964892     -0.326737
    4   C      4    1.8500  1.000     -2.178991     -1.478103     -0.193274
    5   N      5    1.8900  1.000     -2.195005     -0.157374      0.066447
    6   H      6    1.2000  1.000     -0.522123     -2.959290     -0.503367
    7   H      7    1.2000  1.000     -3.112304     -2.016719     -0.281685
    8   H      8    1.2000  1.000      1.340150     -1.313823      0.478391
    9   C      9    1.8500  1.000     -0.453023      1.521489      0.102153
   10   O     10    1.5200  1.000      0.830260      1.739339     -0.072893
   11   O     11    1.5200  1.000     -1.266261      2.406056      0.293353
   12   O     12    1.5200  1.000      2.706812      0.298765     -0.759964
   13   H     13    1.2000  1.000      2.586286     -0.136762     -1.609526
   14   H     14    1.2000  1.000      1.339759      0.840580     -0.460135
   15   O     15    1.5200  1.000      2.240085     -1.349929      0.919803
   16   H     16    1.2000  1.000      2.417037     -1.048661      1.815607
   17   H     17    1.2000  1.000      2.683764     -0.407478     -0.077555
 ------------------------------------------------------------------------------
 ------------------------------------------------------------------------------
 Atomic radii for non-electrostatic terms: SMD-CDS.
 ------------------------------------------------------------------------------
 Nuclear repulsion after PCM non-electrostatic terms =      565.4720561470 Hartrees.
 One-electron integrals computed using PRISM.
 NBasis=   225 RedAO= T EigKep=  3.47D-05  NBF=   225
 NBsUse=   225 1.00D-06 EigRej= -1.00D+00 NBFU=   225
 ExpMin= 4.38D-02 ExpMax= 5.48D+03 ExpMxC= 8.25D+02 IAcc=3 IRadAn=         5 AccDes= 0.00D+00
 Harris functional with IExCor= 1009 and IRadAn=       5 diagonalized for initial guess.
 HarFok:  IExCor= 1009 AccDes= 0.00D+00 IRadAn=         5 IDoV= 1 UseB2=F ITyADJ=14
 ICtDFT=  3500011 ScaDFX=  1.000000  1.000000  1.000000  1.000000
 FoFCou: FMM=F IPFlag=           0 FMFlag=      100000 FMFlg1=           0
         NFxFlg=           0 DoJE=T BraDBF=F KetDBF=T FulRan=T
         wScrn=  0.000000 ICntrl=       500 IOpCl=  0 I1Cent=   200000004 NGrid=           0
         NMat0=    1 NMatS0=      1 NMatT0=    0 NMatD0=    1 NMtDS0=    0 NMtDT0=    0
 Petite list used in FoFCou.
 Initial guess <Sx>= 0.0000 <Sy>= 0.0000 <Sz>= 0.5000 <S**2>= 0.7500 S= 0.5000
 Requested convergence on RMS density matrix=1.00D-08 within 128 cycles.
 Requested convergence on MAX density matrix=1.00D-06.
 Requested convergence on             energy=1.00D-06.
 No special actions if energy rises.
 Inv3:  Mode=1 IEnd=     5132592.
 Iteration    1 A*A^-1 deviation from unit magnitude is 3.11D-15 for    614.
 Iteration    1 A*A^-1 deviation from orthogonality  is 3.36D-15 for    768    542.
 Iteration    1 A^-1*A deviation from unit magnitude is 3.44D-15 for    744.
 Iteration    1 A^-1*A deviation from orthogonality  is 1.43D-12 for    800    789.
 Error on total polarization charges =  0.06129
 SCF Done:  E(UM062X) =  -583.569738959     A.U. after   17 cycles
            NFock= 17  Conv=0.52D-08     -V/T= 2.0080
 <Sx>= 0.0000 <Sy>= 0.0000 <Sz>= 0.5000 <S**2>= 0.7626 S= 0.5063
 <L.S>=  0.00000000000    
 SMD-CDS (non-electrostatic) energy       (kcal/mol) =       5.28
 (included in total energy above)
 Annihilation of the first spin contaminant:
 S**2 before annihilation     0.7626,   after     0.7501

 **********************************************************************

            Population analysis using the SCF density.

 **********************************************************************

 Orbital symmetries:
 Alpha Orbitals:
       Occupied  (A) (A) (A) (A) (A) (A) (A) (A) (A) (A) (A) (A)
                 (A) (A) (A) (A) (A) (A) (A) (A) (A) (A) (A) (A)
                 (A) (A) (A) (A) (A) (A) (A) (A) (A) (A) (A) (A)
                 (A) (A) (A) (A)
       Virtual   (A) (A) (A) (A) (A) (A) (A) (A) (A) (A) (A) (A)
                 (A) (A) (A) (A) (A) (A) (A) (A) (A) (A) (A) (A)
                 (A) (A) (A) (A) (A) (A) (A) (A) (A) (A) (A) (A)
                 (A) (A) (A) (A) (A) (A) (A) (A) (A) (A) (A) (A)
                 (A) (A) (A) (A) (A) (A) (A) (A) (A) (A) (A) (A)
                 (A) (A) (A) (A) (A) (A) (A) (A) (A) (A) (A) (A)
                 (A) (A) (A) (A) (A) (A) (A) (A) (A) (A) (A) (A)
                 (A) (A) (A) (A) (A) (A) (A) (A) (A) (A) (A) (A)
                 (A) (A) (A) (A) (A) (A) (A) (A) (A) (A) (A) (A)
                 (A) (A) (A) (A) (A) (A) (A) (A) (A) (A) (A) (A)
                 (A) (A) (A) (A) (A) (A) (A) (A) (A) (A) (A) (A)
                 (A) (A) (A) (A) (A) (A) (A) (A) (A) (A) (A) (A)
                 (A) (A) (A) (A) (A) (A) (A) (A) (A) (A) (A) (A)
                 (A) (A) (A) (A) (A) (A) (A) (A) (A) (A) (A) (A)
                 (A) (A) (A) (A) (A) (A) (A) (A) (A) (A) (A) (A)
                 (A) (A) (A) (A) (A)
 Beta  Orbitals:
       Occupied  (A) (A) (A) (A) (A) (A) (A) (A) (A) (A) (A) (A)
                 (A) (A) (A) (A) (A) (A) (A) (A) (A) (A) (A) (A)
                 (A) (A) (A) (A) (A) (A) (A) (A) (A) (A) (A) (A)
                 (A) (A) (A)
       Virtual   (A) (A) (A) (A) (A) (A) (A) (A) (A) (A) (A) (A)
                 (A) (A) (A) (A) (A) (A) (A) (A) (A) (A) (A) (A)
                 (A) (A) (A) (A) (A) (A) (A) (A) (A) (A) (A) (A)
                 (A) (A) (A) (A) (A) (A) (A) (A) (A) (A) (A) (A)
                 (A) (A) (A) (A) (A) (A) (A) (A) (A) (A) (A) (A)
                 (A) (A) (A) (A) (A) (A) (A) (A) (A) (A) (A) (A)
                 (A) (A) (A) (A) (A) (A) (A) (A) (A) (A) (A) (A)
                 (A) (A) (A) (A) (A) (A) (A) (A) (A) (A) (A) (A)
                 (A) (A) (A) (A) (A) (A) (A) (A) (A) (A) (A) (A)
                 (A) (A) (A) (A) (A) (A) (A) (A) (A) (A) (A) (A)
                 (A) (A) (A) (A) (A) (A) (A) (A) (A) (A) (A) (A)
                 (A) (A) (A) (A) (A) (A) (A) (A) (A) (A) (A) (A)
                 (A) (A) (A) (A) (A) (A) (A) (A) (A) (A) (A) (A)
                 (A) (A) (A) (A) (A) (A) (A) (A) (A) (A) (A) (A)
                 (A) (A) (A) (A) (A) (A) (A) (A) (A) (A) (A) (A)
                 (A) (A) (A) (A) (A) (A)
 The electronic state is 2-A.
 Alpha  occ. eigenvalues --  -19.66500 -19.63734 -19.63104 -19.62064 -14.84674
 Alpha  occ. eigenvalues --  -14.76959 -14.76361 -10.69656 -10.55669 -10.55500
 Alpha  occ. eigenvalues --   -1.23014  -1.16035  -1.15086  -1.12472  -1.10594
 Alpha  occ. eigenvalues --   -0.95729  -0.92090  -0.74418  -0.67792  -0.66591
 Alpha  occ. eigenvalues --   -0.65453  -0.61874  -0.59614  -0.56670  -0.54312
 Alpha  occ. eigenvalues --   -0.52385  -0.50355  -0.48632  -0.48387  -0.46391
 Alpha  occ. eigenvalues --   -0.44713  -0.40147  -0.39051  -0.38868  -0.38468
 Alpha  occ. eigenvalues --   -0.36476  -0.35205  -0.34687  -0.33290  -0.15042
 Alpha virt. eigenvalues --    0.02442   0.04213   0.04596   0.05214   0.06655
 Alpha virt. eigenvalues --    0.07064   0.07481   0.09030   0.09748   0.09895
 Alpha virt. eigenvalues --    0.10951   0.11671   0.12146   0.13796   0.15907
 Alpha virt. eigenvalues --    0.15984   0.17886   0.19362   0.19575   0.20294
 Alpha virt. eigenvalues --    0.20763   0.21425   0.22303   0.23255   0.23530
 Alpha virt. eigenvalues --    0.24424   0.25003   0.25280   0.26106   0.26576
 Alpha virt. eigenvalues --    0.27182   0.27880   0.28951   0.29062   0.29780
 Alpha virt. eigenvalues --    0.30182   0.30760   0.31608   0.31816   0.33480
 Alpha virt. eigenvalues --    0.33932   0.34288   0.36943   0.37455   0.38882
 Alpha virt. eigenvalues --    0.39202   0.40081   0.42148   0.42653   0.43612
 Alpha virt. eigenvalues --    0.45711   0.47874   0.48476   0.51887   0.53142
 Alpha virt. eigenvalues --    0.55525   0.64315   0.72242   0.76369   0.79438
 Alpha virt. eigenvalues --    0.82865   0.85476   0.87062   0.90592   0.93125
 Alpha virt. eigenvalues --    0.94802   0.97210   0.98183   1.00017   1.00839
 Alpha virt. eigenvalues --    1.02870   1.02935   1.07028   1.07807   1.09132
 Alpha virt. eigenvalues --    1.10307   1.11887   1.13626   1.15507   1.16419
 Alpha virt. eigenvalues --    1.18757   1.21014   1.22279   1.24007   1.25317
 Alpha virt. eigenvalues --    1.26414   1.26571   1.29201   1.31798   1.33294
 Alpha virt. eigenvalues --    1.35675   1.36058   1.37508   1.39048   1.39678
 Alpha virt. eigenvalues --    1.41248   1.41693   1.45489   1.45968   1.47915
 Alpha virt. eigenvalues --    1.48904   1.49867   1.51488   1.53966   1.59081
 Alpha virt. eigenvalues --    1.61139   1.62301   1.63242   1.64894   1.67393
 Alpha virt. eigenvalues --    1.69862   1.72958   1.76300   1.76537   1.81671
 Alpha virt. eigenvalues --    1.83658   1.85706   1.87165   1.89987   1.91541
 Alpha virt. eigenvalues --    1.95064   1.96318   2.01075   2.01755   2.03742
 Alpha virt. eigenvalues --    2.06188   2.11803   2.13956   2.15128   2.20870
 Alpha virt. eigenvalues --    2.26010   2.27107   2.28571   2.30752   2.31942
 Alpha virt. eigenvalues --    2.33286   2.37395   2.41379   2.45086   2.45849
 Alpha virt. eigenvalues --    2.48619   2.50355   2.56273   2.56521   2.60300
 Alpha virt. eigenvalues --    2.61433   2.62959   2.67812   2.70096   2.72115
 Alpha virt. eigenvalues --    2.73324   2.74197   2.75843   2.78305   2.80803
 Alpha virt. eigenvalues --    2.83389   2.88713   2.93138   2.96837   3.00923
 Alpha virt. eigenvalues --    3.03001   3.06038   3.12074   3.16290   3.17376
 Alpha virt. eigenvalues --    3.18647   3.26429   3.32181   3.34895   3.45570
 Alpha virt. eigenvalues --    3.54101   3.68454   3.71583   3.75575   3.86327
 Alpha virt. eigenvalues --    4.07822   4.28513   4.33251   4.36052   4.38520
 Alpha virt. eigenvalues --    4.46880   4.50218   4.59488   4.65459   4.71548
  Beta  occ. eigenvalues --  -19.66451 -19.63729 -19.63089 -19.61915 -14.84548
  Beta  occ. eigenvalues --  -14.76471 -14.75879 -10.69573 -10.55604 -10.55508
  Beta  occ. eigenvalues --   -1.22579  -1.15245  -1.14978  -1.12148  -1.10534
  Beta  occ. eigenvalues --   -0.94172  -0.91295  -0.73545  -0.67325  -0.66325
  Beta  occ. eigenvalues --   -0.65145  -0.61662  -0.58954  -0.55169  -0.53907
  Beta  occ. eigenvalues --   -0.52065  -0.49897  -0.48119  -0.47331  -0.45956
  Beta  occ. eigenvalues --   -0.44510  -0.39954  -0.38537  -0.37904  -0.37714
  Beta  occ. eigenvalues --   -0.36100  -0.33806  -0.31087  -0.30412
  Beta virt. eigenvalues --    0.00622   0.02212   0.04235   0.04333   0.04932
  Beta virt. eigenvalues --    0.06569   0.06918   0.08151   0.08608   0.08721
  Beta virt. eigenvalues --    0.10909   0.11293   0.11690   0.12711   0.13434
  Beta virt. eigenvalues --    0.15424   0.16109   0.17874   0.19305   0.19628
  Beta virt. eigenvalues --    0.20366   0.20798   0.21327   0.22376   0.23317
  Beta virt. eigenvalues --    0.23495   0.24661   0.25085   0.25403   0.26204
  Beta virt. eigenvalues --    0.26423   0.27238   0.28035   0.28903   0.28932
  Beta virt. eigenvalues --    0.29680   0.30096   0.30730   0.31582   0.31901
  Beta virt. eigenvalues --    0.33386   0.34120   0.34356   0.36730   0.37377
  Beta virt. eigenvalues --    0.39008   0.39238   0.40174   0.42017   0.42657
  Beta virt. eigenvalues --    0.43781   0.45618   0.48128   0.48691   0.52117
  Beta virt. eigenvalues --    0.53157   0.55832   0.64730   0.72495   0.76508
  Beta virt. eigenvalues --    0.80154   0.83132   0.85930   0.87337   0.90732
  Beta virt. eigenvalues --    0.93323   0.95098   0.97368   0.98765   1.01062
  Beta virt. eigenvalues --    1.01244   1.03173   1.04211   1.07286   1.08821
  Beta virt. eigenvalues --    1.09722   1.10566   1.12233   1.13720   1.15705
  Beta virt. eigenvalues --    1.16474   1.18794   1.21328   1.22373   1.24157
  Beta virt. eigenvalues --    1.25453   1.26672   1.26799   1.29417   1.32261
  Beta virt. eigenvalues --    1.33582   1.35864   1.36185   1.37660   1.39387
  Beta virt. eigenvalues --    1.39803   1.41487   1.41852   1.45769   1.46477
  Beta virt. eigenvalues --    1.48750   1.49430   1.50487   1.51848   1.54117
  Beta virt. eigenvalues --    1.59665   1.61488   1.62486   1.63398   1.65081
  Beta virt. eigenvalues --    1.67697   1.69990   1.73154   1.76394   1.76667
  Beta virt. eigenvalues --    1.81859   1.83952   1.85789   1.87208   1.90255
  Beta virt. eigenvalues --    1.91835   1.95397   1.96595   2.01333   2.02067
  Beta virt. eigenvalues --    2.04120   2.06688   2.12471   2.14298   2.15572
  Beta virt. eigenvalues --    2.21063   2.26814   2.27632   2.29134   2.31050
  Beta virt. eigenvalues --    2.32260   2.33737   2.37627   2.41556   2.45404
  Beta virt. eigenvalues --    2.46130   2.49085   2.50799   2.56822   2.56949
  Beta virt. eigenvalues --    2.60543   2.61760   2.63459   2.68279   2.70518
  Beta virt. eigenvalues --    2.72481   2.73675   2.74586   2.76070   2.78555
  Beta virt. eigenvalues --    2.81113   2.83791   2.89147   2.93573   2.97390
  Beta virt. eigenvalues --    3.01217   3.03208   3.06324   3.12107   3.16844
  Beta virt. eigenvalues --    3.17650   3.18754   3.26772   3.32664   3.35185
  Beta virt. eigenvalues --    3.45598   3.54124   3.68520   3.71621   3.75947
  Beta virt. eigenvalues --    3.86337   4.08106   4.28612   4.33297   4.36212
  Beta virt. eigenvalues --    4.38705   4.47387   4.50332   4.60028   4.65696
  Beta virt. eigenvalues --    4.72167
          Condensed to atoms (all electrons):
               1          2          3          4          5          6
     1  N    8.126847  -0.198965  -0.215758   0.195669  -0.826753   0.004937
     2  N   -0.198965   7.924232  -0.017279   0.090461  -0.269183  -0.043481
     3  C   -0.215758  -0.017279   5.943040  -0.125173   0.272784   0.398559
     4  C    0.195669   0.090461  -0.125173   5.776306  -0.150483  -0.022018
     5  N   -0.826753  -0.269183   0.272784  -0.150483   8.628248  -0.002919
     6  H    0.004937  -0.043481   0.398559  -0.022018  -0.002919   0.459296
     7  H    0.012209   0.004431  -0.034952   0.405546  -0.062968   0.000211
     8  H   -0.018843   0.104795   0.000834  -0.002861   0.004806  -0.000625
     9  C    0.246763   0.031020  -0.032378   0.020368  -0.175319   0.000363
    10  O   -0.102761  -0.039576  -0.012559   0.005075   0.010731   0.000043
    11  O   -0.117488   0.004946   0.001308  -0.008848  -0.013346   0.000009
    12  O   -0.042572   0.033930   0.015222  -0.010632   0.004656  -0.000245
    13  H    0.001678  -0.002607   0.000672  -0.000351   0.000255   0.000008
    14  H   -0.025289   0.038809   0.004236  -0.002334  -0.008173   0.000009
    15  O   -0.015593  -0.079686  -0.012272   0.003280   0.000703   0.000282
    16  H    0.000616   0.002015   0.000373   0.000463  -0.000054  -0.000008
    17  H    0.004604  -0.005826  -0.000038   0.000044  -0.000208   0.000009
               7          8          9         10         11         12
     1  N    0.012209  -0.018843   0.246763  -0.102761  -0.117488  -0.042572
     2  N    0.004431   0.104795   0.031020  -0.039576   0.004946   0.033930
     3  C   -0.034952   0.000834  -0.032378  -0.012559   0.001308   0.015222
     4  C    0.405546  -0.002861   0.020368   0.005075  -0.008848  -0.010632
     5  N   -0.062968   0.004806  -0.175319   0.010731  -0.013346   0.004656
     6  H    0.000211  -0.000625   0.000363   0.000043   0.000009  -0.000245
     7  H    0.482425  -0.000017   0.000670   0.000039  -0.000169  -0.000004
     8  H   -0.000017   0.244509  -0.003365  -0.001598   0.000193   0.003046
     9  C    0.000670  -0.003365   4.493111   0.247783   0.403982   0.002625
    10  O    0.000039  -0.001598   0.247783   8.500879  -0.083077  -0.077169
    11  O   -0.000169   0.000193   0.403982  -0.083077   8.489438  -0.003498
    12  O   -0.000004   0.003046   0.002625  -0.077169  -0.003498   8.555511
    13  H    0.000000  -0.000196   0.000105  -0.000125   0.000061   0.290302
    14  H   -0.000001  -0.000549   0.004609   0.160222   0.003816   0.061087
    15  O    0.000021   0.189670  -0.006222   0.006567  -0.000058  -0.113484
    16  H   -0.000000  -0.010198   0.000049  -0.001112   0.000026   0.004812
    17  H    0.000000  -0.001398  -0.001304   0.002400   0.000076   0.237274
              13         14         15         16         17
     1  N    0.001678  -0.025289  -0.015593   0.000616   0.004604
     2  N   -0.002607   0.038809  -0.079686   0.002015  -0.005826
     3  C    0.000672   0.004236  -0.012272   0.000373  -0.000038
     4  C   -0.000351  -0.002334   0.003280   0.000463   0.000044
     5  N    0.000255  -0.008173   0.000703  -0.000054  -0.000208
     6  H    0.000008   0.000009   0.000282  -0.000008   0.000009
     7  H    0.000000  -0.000001   0.000021  -0.000000   0.000000
     8  H   -0.000196  -0.000549   0.189670  -0.010198  -0.001398
     9  C    0.000105   0.004609  -0.006222   0.000049  -0.001304
    10  O   -0.000125   0.160222   0.006567  -0.001112   0.002400
    11  O    0.000061   0.003816  -0.000058   0.000026   0.000076
    12  O    0.290302   0.061087  -0.113484   0.004812   0.237274
    13  H    0.272454  -0.005155   0.003769   0.000028  -0.018155
    14  H   -0.005155   0.282926   0.004073  -0.000068  -0.004132
    15  O    0.003769   0.004073   8.651211   0.285291   0.029682
    16  H    0.000028  -0.000068   0.285291   0.267124  -0.004118
    17  H   -0.018155  -0.004132   0.029682  -0.004118   0.233612
          Atomic-Atomic Spin Densities.
               1          2          3          4          5          6
     1  N    0.296714  -0.151936   0.003385   0.119419  -0.316914   0.000831
     2  N   -0.151936   0.617954  -0.198336  -0.070538   0.116214  -0.000328
     3  C    0.003385  -0.198336   0.260788   0.097319  -0.001413  -0.004614
     4  C    0.119419  -0.070538   0.097319   0.038881  -0.215951   0.004443
     5  N   -0.316914   0.116214  -0.001413  -0.215951   0.808427   0.000062
     6  H    0.000831  -0.000328  -0.004614   0.004443   0.000062  -0.007112
     7  H   -0.000165   0.000399   0.001047   0.000533  -0.001049  -0.000001
     8  H   -0.004932   0.008727  -0.005082   0.002585  -0.001471   0.000054
     9  C    0.109638  -0.025948  -0.011266   0.012698  -0.047998  -0.000052
    10  O   -0.018705   0.010271  -0.003980   0.000706  -0.001742  -0.000003
    11  O   -0.033925   0.012151  -0.004902  -0.000136   0.014516   0.000002
    12  O    0.000263   0.000093   0.000316  -0.000325   0.000478   0.000024
    13  H    0.000098  -0.000672  -0.000166   0.000248  -0.000224  -0.000001
    14  H   -0.002399   0.002348   0.000699  -0.000982   0.003456   0.000001
    15  O    0.003031  -0.009907   0.012621  -0.005096   0.003714  -0.000023
    16  H   -0.000065  -0.000562  -0.000076   0.000088   0.000029   0.000001
    17  H    0.000187  -0.000366  -0.000037   0.000020   0.000013  -0.000001
               7          8          9         10         11         12
     1  N   -0.000165  -0.004932   0.109638  -0.018705  -0.033925   0.000263
     2  N    0.000399   0.008727  -0.025948   0.010271   0.012151   0.000093
     3  C    0.001047  -0.005082  -0.011266  -0.003980  -0.004902   0.000316
     4  C    0.000533   0.002585   0.012698   0.000706  -0.000136  -0.000325
     5  N   -0.001049  -0.001471  -0.047998  -0.001742   0.014516   0.000478
     6  H   -0.000001   0.000054  -0.000052  -0.000003   0.000002   0.000024
     7  H   -0.001527   0.000000  -0.000102  -0.000001   0.000009   0.000000
     8  H    0.000000  -0.002664   0.000518   0.000647  -0.000009  -0.000135
     9  C   -0.000102   0.000518   0.145870  -0.020213  -0.048614  -0.000415
    10  O   -0.000001   0.000647  -0.020213   0.041120   0.008786   0.000136
    11  O    0.000009  -0.000009  -0.048614   0.008786   0.121819   0.000042
    12  O    0.000000  -0.000135  -0.000415   0.000136   0.000042   0.000942
    13  H   -0.000000   0.000038   0.000085   0.000171   0.000001  -0.000212
    14  H    0.000000  -0.000304  -0.002105  -0.001410  -0.000392   0.000087
    15  O    0.000002   0.000596  -0.000499  -0.001749  -0.000141   0.000153
    16  H    0.000000  -0.000352  -0.000044  -0.000049  -0.000005  -0.000037
    17  H   -0.000000   0.000111  -0.000030   0.000002   0.000001   0.000310
              13         14         15         16         17
     1  N    0.000098  -0.002399   0.003031  -0.000065   0.000187
     2  N   -0.000672   0.002348  -0.009907  -0.000562  -0.000366
     3  C   -0.000166   0.000699   0.012621  -0.000076  -0.000037
     4  C    0.000248  -0.000982  -0.005096   0.000088   0.000020
     5  N   -0.000224   0.003456   0.003714   0.000029   0.000013
     6  H   -0.000001   0.000001  -0.000023   0.000001  -0.000001
     7  H   -0.000000   0.000000   0.000002   0.000000  -0.000000
     8  H    0.000038  -0.000304   0.000596  -0.000352   0.000111
     9  C    0.000085  -0.002105  -0.000499  -0.000044  -0.000030
    10  O    0.000171  -0.001410  -0.001749  -0.000049   0.000002
    11  O    0.000001  -0.000392  -0.000141  -0.000005   0.000001
    12  O   -0.000212   0.000087   0.000153  -0.000037   0.000310
    13  H    0.000413  -0.000103  -0.000037  -0.000001   0.000016
    14  H   -0.000103   0.001502   0.000591  -0.000000  -0.000045
    15  O   -0.000037   0.000591   0.004076   0.001007   0.000117
    16  H   -0.000001  -0.000000   0.001007  -0.000592  -0.000003
    17  H    0.000016  -0.000045   0.000117  -0.000003  -0.000330
 Mulliken charges and spin densities:
               1          2
     1  N   -0.029301   0.004524
     2  N   -0.578036   0.309563
     3  C   -0.186619   0.146303
     4  C   -0.174512  -0.016087
     5  N   -0.412776   0.360143
     6  H    0.205569  -0.006716
     7  H    0.192558  -0.000855
     8  H    0.491796  -0.001672
     9  C    0.767141   0.111525
    10  O   -0.615763   0.013989
    11  O   -0.677372   0.069201
    12  O   -0.960862   0.001721
    13  H    0.457258  -0.000347
    14  H    0.485914   0.000946
    15  O   -0.947234   0.008457
    16  H    0.454761  -0.000662
    17  H    0.527478  -0.000033
 Sum of Mulliken charges =  -1.00000   1.00000
 Mulliken charges and spin densities with hydrogens summed into heavy atoms:
               1          2
     1  N   -0.029301   0.004524
     2  N   -0.578036   0.309563
     3  C    0.018950   0.139587
     4  C    0.018046  -0.016943
     5  N   -0.412776   0.360143
     9  C    0.767141   0.111525
    10  O   -0.129848   0.014934
    11  O   -0.677372   0.069201
    12  O    0.023874   0.001341
    15  O   -0.000678   0.006124
 Electronic spatial extent (au):  <R**2>=           1603.3780
 Charge=             -1.0000 electrons
 Dipole moment (field-independent basis, Debye):
    X=              4.9220    Y=             -8.4181    Z=             -0.9485  Tot=              9.7975
 Quadrupole moment (field-independent basis, Debye-Ang):
   XX=            -83.0402   YY=            -83.1304   ZZ=            -56.5579
   XY=              7.6528   XZ=              3.1407   YZ=              0.1998
 Traceless Quadrupole moment (field-independent basis, Debye-Ang):
   XX=             -8.7974   YY=             -8.8875   ZZ=             17.6849
   XY=              7.6528   XZ=              3.1407   YZ=              0.1998
 Octapole moment (field-independent basis, Debye-Ang**2):
  XXX=             27.4843  YYY=            -53.7938  ZZZ=              5.5938  XYY=              8.7033
  XXY=            -27.4491  XXZ=              0.7096  XZZ=             31.3470  YZZ=              0.9563
  YYZ=            -10.1822  XYZ=              6.1751
 Hexadecapole moment (field-independent basis, Debye-Ang**3):
 XXXX=          -1241.1198 YYYY=           -933.9324 ZZZZ=           -110.7916 XXXY=             29.6609
 XXXZ=             33.6725 YYYX=             60.1522 YYYZ=              3.3568 ZZZX=              5.6820
 ZZZY=            -15.9926 XXYY=           -372.5463 XXZZ=           -170.7348 YYZZ=           -169.5762
 XXYZ=             10.2222 YYXZ=              4.6877 ZZXY=            -19.8720
 N-N= 5.654720561470D+02 E-N=-2.512726796269D+03  KE= 5.789193059736D+02
                          Isotropic Fermi Contact Couplings
        Atom                 a.u.       MegaHertz       Gauss      10(-4) cm-1
     1  N(14)              0.00199       0.64425       0.22989       0.21490
     2  N(14)              0.07893      25.50306       9.10013       8.50691
     3  C(13)              0.01224      13.76179       4.91055       4.59044
     4  C(13)             -0.01093     -12.28957      -4.38522      -4.09936
     5  N(14)              0.08561      27.66049       9.86995       9.22655
     6  H(1)              -0.00227     -10.12766      -3.61380      -3.37822
     7  H(1)              -0.00053      -2.36775      -0.84487      -0.78980
     8  H(1)              -0.00013      -0.57595      -0.20551      -0.19212
     9  C(13)              0.02226      25.02567       8.92978       8.34767
    10  O(17)              0.00404      -2.45202      -0.87494      -0.81791
    11  O(17)              0.01705     -10.33509      -3.68782      -3.44741
    12  O(17)              0.00083      -0.50277      -0.17940      -0.16771
    13  H(1)               0.00000       0.00055       0.00020       0.00019
    14  H(1)               0.00025       1.12039       0.39978       0.37372
    15  O(17)              0.00398      -2.41537      -0.86186      -0.80568
    16  H(1)              -0.00014      -0.61806      -0.22054      -0.20616
    17  H(1)              -0.00003      -0.13623      -0.04861      -0.04544
 --------------------------------------------------------
       Center         ----  Spin Dipole Couplings  ----
                      3XX-RR        3YY-RR        3ZZ-RR
 --------------------------------------------------------
     1   Atom       -0.120850     -0.117016      0.237866
     2   Atom       -0.371456     -0.331827      0.703282
     3   Atom       -0.061793     -0.053376      0.115169
     4   Atom       -0.003710      0.004515     -0.000805
     5   Atom       -0.367902     -0.333454      0.701356
     6   Atom       -0.008007      0.011869     -0.003862
     7   Atom        0.005657     -0.000339     -0.005319
     8   Atom        0.023850     -0.012001     -0.011848
     9   Atom       -0.066724     -0.056247      0.122971
    10   Atom       -0.037170     -0.046075      0.083245
    11   Atom       -0.127120     -0.143654      0.270774
    12   Atom        0.010717     -0.006169     -0.004549
    13   Atom        0.003101     -0.002210     -0.000891
    14   Atom        0.004819      0.002057     -0.006876
    15   Atom        0.028347     -0.013445     -0.014902
    16   Atom        0.002159     -0.002649      0.000490
    17   Atom        0.005422     -0.002465     -0.002957
 --------------------------------------------------------
                        XY            XZ            YZ
 --------------------------------------------------------
     1   Atom        0.001329      0.018454     -0.011393
     2   Atom       -0.012632      0.041177     -0.206868
     3   Atom        0.001162      0.011733     -0.028006
     4   Atom       -0.001282     -0.002228      0.004931
     5   Atom       -0.001293     -0.002802     -0.203220
     6   Atom       -0.008953     -0.001250      0.002917
     7   Atom        0.004316      0.000681      0.001236
     8   Atom       -0.010330      0.009960     -0.002660
     9   Atom        0.009131      0.042519      0.036284
    10   Atom       -0.008798      0.056355     -0.019435
    11   Atom        0.004784      0.089071     -0.000543
    12   Atom        0.001981      0.003706      0.000396
    13   Atom        0.000666     -0.002879      0.000231
    14   Atom        0.003477     -0.002097      0.000653
    15   Atom       -0.009037      0.003510     -0.000636
    16   Atom       -0.000696      0.003444      0.000116
    17   Atom        0.000557      0.000080     -0.000472
 --------------------------------------------------------


 ---------------------------------------------------------------------------------
              Anisotropic Spin Dipole Couplings in Principal Axis System
 ---------------------------------------------------------------------------------

       Atom             a.u.   MegaHertz   Gauss  10(-4) cm-1        Axes

              Baa    -0.1225    -4.725    -1.686    -1.576  0.9354 -0.3487 -0.0589
     1 N(14)  Bbb    -0.1167    -4.499    -1.606    -1.501  0.3499  0.9367  0.0119
              Bcc     0.2392     9.224     3.291     3.077  0.0510 -0.0317  0.9982
 
              Baa    -0.3770   -14.542    -5.189    -4.851  0.7597  0.6434  0.0942
     2 N(14)  Bbb    -0.3677   -14.181    -5.060    -4.730 -0.6491  0.7419  0.1683
              Bcc     0.7447    28.723    10.249     9.581  0.0383 -0.1890  0.9812
 
              Baa    -0.0640    -8.588    -3.064    -2.865  0.8945 -0.4291 -0.1257
     3 C(13)  Bbb    -0.0564    -7.570    -2.701    -2.525  0.4428  0.8892  0.1149
              Bcc     0.1204    16.158     5.766     5.390  0.0624 -0.1584  0.9854
 
              Baa    -0.0052    -0.697    -0.249    -0.233  0.7488 -0.2188  0.6256
     4 C(13)  Bbb    -0.0027    -0.362    -0.129    -0.121  0.6344  0.5098 -0.5810
              Bcc     0.0079     1.060     0.378     0.353 -0.1918  0.8320  0.5206
 
              Baa    -0.3726   -14.371    -5.128    -4.794  0.3557  0.9181  0.1747
     5 N(14)  Bbb    -0.3672   -14.163    -5.054    -4.724  0.9346 -0.3499 -0.0641
              Bcc     0.7398    28.534    10.182     9.518 -0.0023 -0.1860  0.9825
 
              Baa    -0.0114    -6.108    -2.179    -2.037  0.9341  0.3566  0.0168
     6 H(1)   Bbb    -0.0044    -2.332    -0.832    -0.778  0.0412 -0.1546  0.9871
              Bcc     0.0158     8.440     3.012     2.815 -0.3546  0.9214  0.1591
 
              Baa    -0.0056    -2.999    -1.070    -1.001  0.0409 -0.2592  0.9650
     7 H(1)   Bbb    -0.0024    -1.279    -0.456    -0.427 -0.4738  0.8452  0.2471
              Bcc     0.0080     4.278     1.527     1.427  0.8797  0.4673  0.0882
 
              Baa    -0.0148    -7.878    -2.811    -2.628  0.2613  0.9652 -0.0122
     8 H(1)   Bbb    -0.0144    -7.703    -2.749    -2.569 -0.2320  0.0751  0.9698
              Bcc     0.0292    15.581     5.560     5.197  0.9369 -0.2506  0.2436
 
              Baa    -0.0760   -10.193    -3.637    -3.400  0.9764 -0.1026 -0.1900
     9 C(13)  Bbb    -0.0633    -8.489    -3.029    -2.832  0.0628  0.9768 -0.2047
              Bcc     0.1392    18.682     6.666     6.232  0.2066  0.1879  0.9602
 
              Baa    -0.0595     4.308     1.537     1.437  0.9302  0.0969 -0.3540
    10 O(17)  Bbb    -0.0489     3.539     1.263     1.181 -0.0409  0.9859  0.1624
              Bcc     0.1084    -7.847    -2.800    -2.617  0.3647 -0.1366  0.9210
 
              Baa    -0.1499    10.843     3.869     3.617  0.7738 -0.6116 -0.1647
    11 O(17)  Bbb    -0.1400    10.127     3.613     3.378  0.5979  0.7912 -0.1286
              Bcc     0.2898   -20.970    -7.483    -6.995  0.2089  0.0011  0.9779
 
              Baa    -0.0064     0.463     0.165     0.154 -0.1216  0.9921  0.0313
    12 O(17)  Bbb    -0.0054     0.391     0.139     0.130 -0.2170 -0.0574  0.9745
              Bcc     0.0118    -0.854    -0.305    -0.285  0.9686  0.1117  0.2223
 
              Baa    -0.0028    -1.515    -0.541    -0.505  0.3889 -0.6510  0.6519
    13 H(1)   Bbb    -0.0018    -0.962    -0.343    -0.321  0.2522  0.7558  0.6043
              Bcc     0.0046     2.477     0.884     0.826  0.8861  0.0706 -0.4581
 
              Baa    -0.0074    -3.959    -1.413    -1.320  0.2063 -0.1424  0.9681
    14 H(1)   Bbb     0.0001     0.056     0.020     0.019 -0.5091  0.8293  0.2304
              Bcc     0.0073     3.903     1.393     1.302  0.8356  0.5404 -0.0986
 
              Baa    -0.0154     1.111     0.397     0.371  0.2155  0.8694 -0.4447
    15 O(17)  Bbb    -0.0151     1.095     0.391     0.365  0.0217  0.4511  0.8922
              Bcc     0.0305    -2.207    -0.787    -0.736  0.9763 -0.2019  0.0783
 
              Baa    -0.0030    -1.610    -0.575    -0.537  0.3771  0.8364 -0.3978
    16 H(1)   Bbb    -0.0019    -1.003    -0.358    -0.335 -0.4878  0.5445  0.6823
              Bcc     0.0049     2.614     0.933     0.872  0.7873 -0.0632  0.6134
 
              Baa    -0.0033    -1.738    -0.620    -0.580 -0.0419  0.5321  0.8456
    17 H(1)   Bbb    -0.0022    -1.176    -0.419    -0.392 -0.0560  0.8438 -0.5338
              Bcc     0.0055     2.914     1.040     0.972  0.9975  0.0698  0.0056
 

 ---------------------------------------------------------------------------------

 D1PCM: PCM CHGder 1st derivatives, ID1Alg=3 FixD1E=F DoIter=F DoCFld=F I1PDM=0.
 Calling FoFJK, ICntrl=      2127 FMM=F ISym2X=0 I1Cent= 0 IOpClX= 1 NMat=1 NMatS=1 NMatT=0.
 ***** Axes restored to original set *****
 -------------------------------------------------------------------
 Center     Atomic                   Forces (Hartrees/Bohr)
 Number     Number              X              Y              Z
 -------------------------------------------------------------------
      1        7          -0.014533630    0.007044063    0.009609358
      2        7           0.001389686   -0.006182886    0.002020928
      3        6          -0.005359105    0.021077931   -0.000870248
      4        6           0.007510905   -0.010080342    0.000324317
      5        7           0.008889359    0.007845862   -0.003265249
      6        1           0.000631228   -0.001099970    0.001388533
      7        1           0.000211969   -0.000160903   -0.000846943
      8        1           0.018913226    0.014447553   -0.019156804
      9        6           0.006200782   -0.046504643   -0.001125349
     10        8          -0.013029059   -0.036798452    0.015419834
     11        8           0.018529034    0.027808470   -0.004985815
     12        8          -0.000473478    0.024948627    0.028667544
     13        1          -0.002748832   -0.002686591    0.005325571
     14        1          -0.004384999    0.041008182   -0.014551384
     15        8          -0.033378615   -0.028268135   -0.000454566
     16        1           0.016141742    0.002777405   -0.002393017
     17        1          -0.004510213   -0.015176172   -0.015106710
 -------------------------------------------------------------------
 Cartesian Forces:  Max     0.046504643 RMS     0.016142995

 GradGradGradGradGradGradGradGradGradGradGradGradGradGradGradGradGradGrad
 Berny optimization.
 FormGI is forming the generalized inverse of G from B-inverse, IUseBI=4.
 Internal  Forces:  Max     0.040262404 RMS     0.010019018
 Search for a local minimum.
 Step number   1 out of a maximum of   88
 All quantities printed in internal units (Hartrees-Bohrs-Radians)
 Mixed Optimization -- RFO/linear search
 Second derivative matrix not updated -- first step.
 ITU=  0
     Eigenvalues ---    0.00380   0.00583   0.00897   0.01340   0.01737
     Eigenvalues ---    0.01790   0.01923   0.02113   0.02155   0.02204
     Eigenvalues ---    0.02316   0.02415   0.04509   0.07010   0.08345
     Eigenvalues ---    0.09441   0.09691   0.11091   0.11384   0.12704
     Eigenvalues ---    0.13725   0.15999   0.15999   0.16575   0.20706
     Eigenvalues ---    0.21374   0.22354   0.23496   0.23947   0.24973
     Eigenvalues ---    0.32150   0.35850   0.36200   0.39081   0.43869
     Eigenvalues ---    0.44505   0.45956   0.48183   0.49900   0.50104
     Eigenvalues ---    0.53908   0.54988   0.55146   0.62286   0.96858
 RFO step:  Lambda=-2.83300314D-02 EMin= 3.80299876D-03
 Linear search not attempted -- first point.
 Maximum step size (   0.300) exceeded in Quadratic search.
    -- Step size scaled by   0.746
 Iteration  1 RMS(Cart)=  0.05539293 RMS(Int)=  0.00270944
 Iteration  2 RMS(Cart)=  0.00396126 RMS(Int)=  0.00044689
 Iteration  3 RMS(Cart)=  0.00000902 RMS(Int)=  0.00044682
 Iteration  4 RMS(Cart)=  0.00000000 RMS(Int)=  0.00044682
 Variable       Old X    -DE/DX   Delta X   Delta X   Delta X     New X
                                 (Linear)    (Quad)   (Total)
    R1        2.64302  -0.00800   0.00000  -0.01462  -0.01471   2.62831
    R2        2.59366   0.00805   0.00000   0.01130   0.01131   2.60497
    R3        2.65960  -0.02214   0.00000  -0.03696  -0.03684   2.62276
    R4        2.61064  -0.00840   0.00000  -0.01301  -0.01307   2.59756
    R5        2.97643   0.00804   0.00000   0.04086   0.04108   3.01752
    R6        2.59853   0.00417   0.00000   0.00662   0.00667   2.60520
    R7        2.03770   0.00104   0.00000   0.00198   0.00198   2.03968
    R8        2.54380   0.00337   0.00000   0.00545   0.00555   2.54935
    R9        2.04317   0.00019   0.00000   0.00037   0.00037   2.04355
   R10        1.89542   0.01809   0.00000   0.02567   0.02581   1.92123
   R11        2.48189   0.01799   0.00000   0.01985   0.01993   2.50182
   R12        2.29924   0.03347   0.00000   0.02505   0.02505   2.32429
   R13        2.08497  -0.02921   0.00000  -0.05923  -0.05916   2.02582
   R14        1.81843   0.00556   0.00000   0.00717   0.00717   1.82560
   R15        2.83603   0.00400   0.00000   0.02242   0.02247   2.85851
   R16        1.85635   0.04026   0.00000   0.05891   0.05854   1.91489
   R17        1.81703   0.00003   0.00000   0.00004   0.00004   1.81706
   R18        2.72526   0.02018   0.00000   0.10490   0.10452   2.82979
    A1        1.96212   0.00865   0.00000   0.02744   0.02733   1.98945
    A2        2.16233  -0.00429   0.00000  -0.01889  -0.01910   2.14323
    A3        2.11186  -0.00393   0.00000   0.00042   0.00035   2.11221
    A4        1.81332  -0.00586   0.00000  -0.02322  -0.02329   1.79003
    A5        2.25002   0.00052   0.00000  -0.01289  -0.01272   2.23730
    A6        1.97227   0.00439   0.00000   0.02805   0.02788   2.00015
    A7        1.87898   0.00930   0.00000   0.02655   0.02637   1.90535
    A8        2.10153  -0.00364   0.00000  -0.00930  -0.00927   2.09226
    A9        2.30264  -0.00568   0.00000  -0.01737  -0.01735   2.28530
   A10        1.95748  -0.00538   0.00000  -0.01337  -0.01336   1.94413
   A11        2.23784   0.00282   0.00000   0.00720   0.00719   2.24504
   A12        2.08780   0.00256   0.00000   0.00618   0.00618   2.09398
   A13        1.80868  -0.00650   0.00000  -0.01502  -0.01504   1.79363
   A14        2.03445   0.00303   0.00000  -0.00209  -0.00220   2.03225
   A15        2.09012   0.00372   0.00000   0.01514   0.01516   2.10529
   A16        2.15728  -0.00671   0.00000  -0.01323  -0.01316   2.14412
   A17        1.94214   0.02313   0.00000   0.08242   0.08213   2.02427
   A18        1.79845   0.00402   0.00000   0.01381   0.01417   1.81262
   A19        1.85978   0.00106   0.00000   0.00288   0.00280   1.86257
   A20        1.67036  -0.00642   0.00000  -0.00234  -0.00397   1.66639
   A21        2.47326   0.02024   0.00000   0.05773   0.05815   2.53141
   A22        2.16983  -0.01960   0.00000  -0.11558  -0.11517   2.05466
   A23        1.51893   0.00488   0.00000   0.01796   0.01629   1.53521
   A24        1.96376  -0.00021   0.00000   0.00430   0.00342   1.96719
   A25        2.84891  -0.00251   0.00000   0.00763   0.00573   2.85464
   A26        2.98597  -0.00002   0.00000  -0.00957  -0.01046   2.97551
   A27        2.97106   0.01361   0.00000   0.19262   0.19290   3.16396
    D1       -0.08991   0.00218   0.00000   0.02525   0.02543  -0.06449
    D2       -2.46039   0.00217   0.00000   0.02429   0.02434  -2.43605
    D3       -2.90885   0.00123   0.00000  -0.00570  -0.00558  -2.91443
    D4        1.00386   0.00121   0.00000  -0.00666  -0.00666   0.99720
    D5        0.07334  -0.00123   0.00000  -0.01494  -0.01533   0.05801
    D6        2.90281  -0.00047   0.00000   0.01075   0.01087   2.91369
    D7       -0.14413   0.00397   0.00000   0.02781   0.02799  -0.11614
    D8        3.05085   0.00349   0.00000   0.03205   0.03226   3.08310
    D9       -2.93672   0.00076   0.00000  -0.00990  -0.00946  -2.94617
   D10        0.25826   0.00029   0.00000  -0.00567  -0.00519   0.25307
   D11        0.06834  -0.00214   0.00000  -0.02448  -0.02454   0.04379
   D12       -3.06571  -0.00074   0.00000  -0.00950  -0.00934  -3.07506
   D13        2.57998  -0.00319   0.00000  -0.04003  -0.04034   2.53964
   D14       -0.55407  -0.00178   0.00000  -0.02505  -0.02515  -0.57921
   D15        0.48266   0.00228   0.00000   0.03926   0.03964   0.52229
   D16       -1.46313   0.00099   0.00000   0.03452   0.03462  -1.42852
   D17       -1.85999   0.00270   0.00000   0.01159   0.01204  -1.84795
   D18        2.47741   0.00141   0.00000   0.00685   0.00702   2.48442
   D19       -0.02765   0.00139   0.00000   0.01620   0.01630  -0.01135
   D20        3.10199   0.00150   0.00000   0.01775   0.01785   3.11985
   D21        3.10520  -0.00021   0.00000  -0.00108  -0.00106   3.10414
   D22       -0.04834  -0.00010   0.00000   0.00047   0.00050  -0.04785
   D23       -0.02705   0.00015   0.00000  -0.00018  -0.00002  -0.02707
   D24        3.12535   0.00004   0.00000  -0.00160  -0.00145   3.12389
   D25        0.28830   0.00257   0.00000   0.01954   0.02018   0.30848
   D26       -2.90894   0.00343   0.00000   0.01610   0.01677  -2.89217
   D27       -3.00400   0.00018   0.00000   0.00275   0.00366  -3.00034
   D28       -2.39614   0.00020   0.00000   0.01064   0.01079  -2.38536
   D29        1.99355   0.00014   0.00000   0.00576   0.00639   1.99994
   D30       -1.58311  -0.00227   0.00000  -0.04980  -0.04945  -1.63256
   D31        0.25727   0.00004   0.00000  -0.03542  -0.03525   0.22202
   D32        0.43824  -0.01051   0.00000  -0.11598  -0.11587   0.32237
   D33       -1.76321   0.00895   0.00000   0.00257   0.00300  -1.76021
         Item               Value     Threshold  Converged?
 Maximum Force            0.040262     0.000450     NO 
 RMS     Force            0.010019     0.000300     NO 
 Maximum Displacement     0.182735     0.001800     NO 
 RMS     Displacement     0.054013     0.001200     NO 
 Predicted change in Energy=-1.494417D-02
 GradGradGradGradGradGradGradGradGradGradGradGradGradGradGradGradGradGrad

                          Input orientation:                          
 ---------------------------------------------------------------------
 Center     Atomic      Atomic             Coordinates (Angstroms)
 Number     Number       Type             X           Y           Z
 ---------------------------------------------------------------------
      1          7           0        0.893943    0.180838   -0.111658
      2          7           0        0.058940   -0.898163    0.158465
      3          6           0        0.949216   -1.934333    0.310791
      4          6           0        2.233845   -1.448832    0.190000
      5          7           0        2.237514   -0.121803   -0.052779
      6          1           0        0.584462   -2.937272    0.472246
      7          1           0        3.169010   -1.985373    0.273752
      8          1           0       -1.306226   -1.296095   -0.567995
      9          6           0        0.455249    1.497217   -0.080448
     10          8           0       -0.844806    1.681455    0.088788
     11          8           0        1.241912    2.424363   -0.265837
     12          8           0       -2.768426    0.295620    0.777567
     13          1           0       -2.668357   -0.112561    1.647427
     14          1           0       -1.391623    0.843748    0.474088
     15          8           0       -2.249915   -1.452085   -0.912572
     16          1           0       -2.445486   -1.188125   -1.816261
     17          1           0       -2.726186   -0.454107    0.097175
 ---------------------------------------------------------------------
                    Distance matrix (angstroms):
                    1          2          3          4          5
     1  N    0.000000
     2  N    1.390842   0.000000
     3  C    2.157653   1.374570   0.000000
     4  C    2.131234   2.243756   1.378613   0.000000
     5  N    1.378492   2.322400   2.253255   1.349059   0.000000
     6  H    3.187371   2.128990   1.079352   2.239549   3.306826
     7  H    3.164955   3.296643   2.220689   1.081399   2.108838
     8  H    2.688926   1.596801   2.503325   3.623533   3.768621
     9  C    1.387905   2.439669   3.488926   3.451920   2.407999
    10  O    2.305489   2.734235   4.042489   4.391700   3.573860
    11  O    2.275578   3.552272   4.406404   4.024097   2.742185
    12  O    3.770523   3.130879   4.360210   5.330203   5.091478
    13  H    3.983773   3.205047   4.265241   5.285953   5.192143
    14  H    2.450788   2.288669   3.636472   4.298913   3.792165
    15  O    3.632045   2.604758   3.458847   4.617335   4.758773
    16  H    3.991431   3.202463   4.074945   5.097959   5.116385
    17  H    3.681318   2.820969   3.968032   5.059644   4.977070
                    6          7          8          9         10
     6  H    0.000000
     7  H    2.761413   0.000000
     8  H    2.711138   4.605582   0.000000
     9  C    4.470666   4.429265   3.338126   0.000000
    10  O    4.849998   5.439720   3.083841   1.323906   0.000000
    11  O    5.451984   4.842585   4.519526   1.229962   2.243226
    12  O    4.667619   6.380431   2.546001   3.545716   2.468860
    13  H    4.465521   6.282456   2.857315   3.915846   2.995528
    14  H    4.266266   5.370609   2.381629   2.036043   1.072016
    15  O    3.486717   5.572837   1.016669   4.087631   3.577167
    16  H    4.180594   6.043701   1.693439   4.317218   3.798141
    17  H    4.155379   6.093381   1.779797   3.736408   2.846100
                   11         12         13         14         15
    11  O    0.000000
    12  O    4.658653   0.000000
    13  H    5.038528   0.966065   0.000000
    14  H    3.159326   1.512656   1.980227   0.000000
    15  O    5.257183   2.485940   2.919420   2.816086   0.000000
    16  H    5.389878   3.005617   3.633682   3.238029   0.961549
    17  H    4.915605   1.013316   1.588484   1.899355   1.497458
                   16         17
    16  H    0.000000
    17  H    2.068529   0.000000
 Stoichiometry    C3H7N3O4(1-,2)
 Framework group  C1[X(C3H7N3O4)]
 Deg. of freedom    45
 Full point group                 C1      NOp   1
 Largest Abelian subgroup         C1      NOp   1
 Largest concise Abelian subgroup C1      NOp   1
                         Standard orientation:                         
 ---------------------------------------------------------------------
 Center     Atomic      Atomic             Coordinates (Angstroms)
 Number     Number       Type             X           Y           Z
 ---------------------------------------------------------------------
      1          7           0       -0.893226    0.166418    0.120574
      2          7           0       -0.031991   -0.886965   -0.167694
      3          6           0       -0.896751   -1.941306   -0.340892
      4          6           0       -2.192916   -1.489231   -0.213779
      5          7           0       -2.229004   -0.167387    0.053405
      6          1           0       -0.507636   -2.932007   -0.520061
      7          1           0       -3.114721   -2.046522   -0.309299
      8          1           0        1.341234   -1.265220    0.554076
      9          6           0       -0.486390    1.493342    0.114516
     10          8           0        0.809104    1.711963   -0.048660
     11          8           0       -1.295499    2.397671    0.315364
     12          8           0        2.766707    0.385866   -0.758960
     13          1           0        2.677897   -0.008472   -1.636396
     14          1           0        1.376595    0.894943   -0.448223
     15          8           0        2.287867   -1.404752    0.897631
     16          1           0        2.475579   -1.152891    1.806426
     17          1           0        2.741502   -0.377102   -0.092586
 ---------------------------------------------------------------------
 Rotational constants (GHZ):           1.5180667           1.0932878           0.6937294
 Standard basis: 6-31+G(d,p) (6D, 7F)
 There are   225 symmetry adapted cartesian basis functions of A   symmetry.
 There are   225 symmetry adapted basis functions of A   symmetry.
   225 basis functions,   369 primitive gaussians,   225 cartesian basis functions
    40 alpha electrons       39 beta electrons
       nuclear repulsion energy       562.4487496314 Hartrees.
 NAtoms=   17 NActive=   17 NUniq=   17 SFac= 1.00D+00 NAtFMM=   60 NAOKFM=F Big=F
 Integral buffers will be    131072 words long.
 Raffenetti 2 integral format.
 Two-electron integral symmetry is turned on.
 ------------------------------------------------------------------------------
 Polarizable Continuum Model (PCM)
 =================================
 Model                : PCM.
 Atomic radii         : SMD-Coulomb.
 Polarization charges : Total charges.
 Charge compensation  : None.
 Solution method      : On-the-fly selection.
 Cavity type          : VdW (van der Waals Surface) (Alpha=1.000).
 Cavity algorithm     : GePol (No added spheres)
                        Default sphere list used, NSphG=   17.
                        Lebedev-Laikov grids with approx.  5.0 points / Ang**2.
                        Smoothing algorithm: York/Karplus (Gamma=1.0000).
                        Polarization charges: spherical gaussians, with
                                              point-specific exponents (IZeta= 3).
                        Self-potential: point-specific (ISelfS= 7).
                        Self-field    : sphere-specific E.n sum rule (ISelfD= 2).
 1st derivatives      : Analytical E(r).r(x)/FMM algorithm (CHGder, D1EAlg=3).
                        Cavity 1st derivative terms included.
 Solvent              : Water, Eps=  78.355300 Eps(inf)=   1.777849
 ------------------------------------------------------------------------------
 Spheres list:
 ISph  on   Nord     Re0    Alpha      Xe            Ye            Ze
    1   N      1    1.8900  1.000     -0.893226      0.166418      0.120574
    2   N      2    1.8900  1.000     -0.031991     -0.886965     -0.167694
    3   C      3    1.8500  1.000     -0.896751     -1.941306     -0.340892
    4   C      4    1.8500  1.000     -2.192916     -1.489231     -0.213779
    5   N      5    1.8900  1.000     -2.229004     -0.167387      0.053405
    6   H      6    1.2000  1.000     -0.507636     -2.932007     -0.520061
    7   H      7    1.2000  1.000     -3.114721     -2.046522     -0.309299
    8   H      8    1.2000  1.000      1.341234     -1.265220      0.554076
    9   C      9    1.8500  1.000     -0.486390      1.493342      0.114516
   10   O     10    1.5200  1.000      0.809104      1.711963     -0.048660
   11   O     11    1.5200  1.000     -1.295499      2.397671      0.315364
   12   O     12    1.5200  1.000      2.766707      0.385866     -0.758960
   13   H     13    1.2000  1.000      2.677897     -0.008472     -1.636396
   14   H     14    1.2000  1.000      1.376595      0.894943     -0.448223
   15   O     15    1.5200  1.000      2.287867     -1.404752      0.897631
   16   H     16    1.2000  1.000      2.475579     -1.152891      1.806426
   17   H     17    1.2000  1.000      2.741502     -0.377102     -0.092586
 ------------------------------------------------------------------------------
 ------------------------------------------------------------------------------
 Atomic radii for non-electrostatic terms: SMD-CDS.
 ------------------------------------------------------------------------------
 Nuclear repulsion after PCM non-electrostatic terms =      562.4571001970 Hartrees.
 One-electron integrals computed using PRISM.
 NBasis=   225 RedAO= T EigKep=  3.26D-05  NBF=   225
 NBsUse=   225 1.00D-06 EigRej= -1.00D+00 NBFU=   225
 Initial guess from the checkpoint file:  "/scratch/gongke2021/PC-2-N/Gau-4260.chk"
 B after Tr=     0.000000    0.000000    0.000000
         Rot=    0.999960   -0.007969    0.000787   -0.003917 Ang=  -1.02 deg.
 Initial guess <Sx>= 0.0000 <Sy>= 0.0000 <Sz>= 0.5000 <S**2>= 0.7626 S= 0.5063
 ExpMin= 4.38D-02 ExpMax= 5.48D+03 ExpMxC= 8.25D+02 IAcc=2 IRadAn=         4 AccDes= 0.00D+00
 Harris functional with IExCor= 1009 and IRadAn=       4 diagonalized for initial guess.
 HarFok:  IExCor= 1009 AccDes= 0.00D+00 IRadAn=         4 IDoV= 1 UseB2=F ITyADJ=14
 ICtDFT=  3500011 ScaDFX=  1.000000  1.000000  1.000000  1.000000
 FoFCou: FMM=F IPFlag=           0 FMFlag=      100000 FMFlg1=           0
         NFxFlg=           0 DoJE=T BraDBF=F KetDBF=T FulRan=T
         wScrn=  0.000000 ICntrl=       500 IOpCl=  0 I1Cent=   200000004 NGrid=           0
         NMat0=    1 NMatS0=      1 NMatT0=    0 NMatD0=    1 NMtDS0=    0 NMtDT0=    0
 Petite list used in FoFCou.
 Requested convergence on RMS density matrix=1.00D-08 within 128 cycles.
 Requested convergence on MAX density matrix=1.00D-06.
 Requested convergence on             energy=1.00D-06.
 No special actions if energy rises.
 Inv3:  Mode=1 IEnd=     5274828.
 Iteration    1 A*A^-1 deviation from unit magnitude is 2.89D-15 for   1085.
 Iteration    1 A*A^-1 deviation from orthogonality  is 2.25D-15 for    904    110.
 Iteration    1 A^-1*A deviation from unit magnitude is 3.22D-15 for    385.
 Iteration    1 A^-1*A deviation from orthogonality  is 1.04D-14 for    810    800.
 Error on total polarization charges =  0.06130
 SCF Done:  E(UM062X) =  -583.585095930     A.U. after   15 cycles
            NFock= 15  Conv=0.57D-08     -V/T= 2.0083
 <Sx>= 0.0000 <Sy>= 0.0000 <Sz>= 0.5000 <S**2>= 0.7627 S= 0.5064
 <L.S>=  0.00000000000    
 SMD-CDS (non-electrostatic) energy       (kcal/mol) =       5.24
 (included in total energy above)
 Annihilation of the first spin contaminant:
 S**2 before annihilation     0.7627,   after     0.7501
 D1PCM: PCM CHGder 1st derivatives, ID1Alg=3 FixD1E=F DoIter=F DoCFld=F I1PDM=0.
 Calling FoFJK, ICntrl=      2127 FMM=F ISym2X=0 I1Cent= 0 IOpClX= 1 NMat=1 NMatS=1 NMatT=0.
 ***** Axes restored to original set *****
 -------------------------------------------------------------------
 Center     Atomic                   Forces (Hartrees/Bohr)
 Number     Number              X              Y              Z
 -------------------------------------------------------------------
      1        7          -0.010022120    0.013328995    0.007861219
      2        7           0.006654608   -0.005820924   -0.000235545
      3        6          -0.003650243    0.007919881   -0.000561615
      4        6           0.001478531   -0.007353345    0.000927740
      5        7           0.002405086    0.004466210   -0.002905885
      6        1           0.001018002   -0.001041476    0.001184833
      7        1          -0.000450302   -0.000137648   -0.000438930
      8        1           0.003572070    0.007425946   -0.014169386
      9        6           0.005349736   -0.029721673   -0.002516058
     10        8          -0.007069453   -0.020165811    0.010144013
     11        8           0.006380556    0.015087115   -0.001864066
     12        8           0.001181465   -0.000011172    0.006867539
     13        1          -0.002715247   -0.001732696    0.001178486
     14        1           0.001831380    0.028525456   -0.012280137
     15        8          -0.012784308   -0.015450025    0.007991694
     16        1           0.010154243    0.003241676   -0.003345788
     17        1          -0.003334005    0.001439490    0.002161884
 -------------------------------------------------------------------
 Cartesian Forces:  Max     0.029721673 RMS     0.009123268

 GradGradGradGradGradGradGradGradGradGradGradGradGradGradGradGradGradGrad
 Berny optimization.
 Using GEDIIS/GDIIS optimizer.
 FormGI is forming the generalized inverse of G from B-inverse, IUseBI=4.
 Internal  Forces:  Max     0.019460905 RMS     0.004841027
 Search for a local minimum.
 Step number   2 out of a maximum of   88
 All quantities printed in internal units (Hartrees-Bohrs-Radians)
 Mixed Optimization -- RFO/linear search
 Update second derivatives using D2CorX and points    1    2
 DE= -1.54D-02 DEPred=-1.49D-02 R= 1.03D+00
 TightC=F SS=  1.41D+00  RLast= 3.43D-01 DXNew= 5.0454D-01 1.0290D+00
 Trust test= 1.03D+00 RLast= 3.43D-01 DXMaxT set to 5.05D-01
 ITU=  1  0
 Use linear search instead of GDIIS.
     Eigenvalues ---    0.00388   0.00568   0.00918   0.01416   0.01740
     Eigenvalues ---    0.01773   0.01911   0.02141   0.02166   0.02208
     Eigenvalues ---    0.02317   0.02415   0.04551   0.06991   0.07412
     Eigenvalues ---    0.08928   0.09583   0.10894   0.11156   0.12870
     Eigenvalues ---    0.13161   0.15953   0.16000   0.16933   0.20109
     Eigenvalues ---    0.21644   0.21989   0.23701   0.23875   0.25018
     Eigenvalues ---    0.30510   0.35851   0.36196   0.38738   0.42606
     Eigenvalues ---    0.44433   0.46184   0.48247   0.50101   0.53319
     Eigenvalues ---    0.54728   0.55024   0.56201   0.62180   0.95155
 RFO step:  Lambda=-6.33008050D-03 EMin= 3.87599040D-03
 Quartic linear search produced a step of  0.95006.
 Iteration  1 RMS(Cart)=  0.04732265 RMS(Int)=  0.00402832
 Iteration  2 RMS(Cart)=  0.00572665 RMS(Int)=  0.00103830
 Iteration  3 RMS(Cart)=  0.00003280 RMS(Int)=  0.00103784
 Iteration  4 RMS(Cart)=  0.00000003 RMS(Int)=  0.00103784
 Variable       Old X    -DE/DX   Delta X   Delta X   Delta X     New X
                                 (Linear)    (Quad)   (Total)
    R1        2.62831  -0.00246  -0.01398   0.00382  -0.00981   2.61850
    R2        2.60497   0.00273   0.01074  -0.00095   0.01011   2.61509
    R3        2.62276  -0.01435  -0.03500  -0.02319  -0.05780   2.56496
    R4        2.59756  -0.00433  -0.01242  -0.00570  -0.01836   2.57920
    R5        3.01752   0.00323   0.03903   0.00986   0.04927   3.06678
    R6        2.60520  -0.00043   0.00633  -0.00707  -0.00101   2.60419
    R7        2.03968   0.00080   0.00188   0.00213   0.00401   2.04369
    R8        2.54935   0.00472   0.00528   0.01325   0.01858   2.56793
    R9        2.04355  -0.00035   0.00036  -0.00227  -0.00191   2.04164
   R10        1.92123   0.00264   0.02452  -0.01558   0.00911   1.93033
   R11        2.50182   0.00730   0.01893   0.00056   0.01966   2.52148
   R12        2.32429   0.01573   0.02380   0.00580   0.02960   2.35389
   R13        2.02582  -0.01946  -0.05620  -0.05100  -0.10725   1.91857
   R14        1.82560   0.00152   0.00681  -0.00211   0.00470   1.83030
   R15        2.85851   0.00510   0.02135   0.04948   0.07085   2.92936
   R16        1.91489   0.00630   0.05561  -0.03542   0.01949   1.93438
   R17        1.81706   0.00197   0.00004   0.00678   0.00682   1.82388
   R18        2.82979   0.00937   0.09930   0.02097   0.11958   2.94937
    A1        1.98945   0.00050   0.02596  -0.02158   0.00214   1.99160
    A2        2.14323  -0.00041  -0.01814   0.02817   0.00752   2.15075
    A3        2.11221   0.00031   0.00033   0.01807   0.01581   2.12802
    A4        1.79003   0.00093  -0.02213   0.02641   0.00411   1.79414
    A5        2.23730  -0.00154  -0.01209  -0.01198  -0.02395   2.21335
[...]
   yx        -0.270359D+02     -0.400631D+01     -0.445762D+01
   yy         0.958749D+02      0.142072D+02      0.158076D+02
   zx         0.167254D+02      0.247845D+01      0.275765D+01
   zy        -0.551229D+01     -0.816837D+00     -0.908853D+00
   zz         0.162105D+03      0.240215D+02      0.267275D+02

 ----------------------------------------------------------------------
 1\1\GINC-NODE4\Freq\UM062X\6-31+G(d,p)\C3H7N3O4(1-,2)\GONGKE2021\07-Ju
 l-2023\0\\#N Geom=AllCheck Guess=TCheck SCRF=Check GenChk UM062X/6-31+
 G(d,p) Freq\\TS\\-1,2\N,0.9421245397,0.1903410804,-0.0032339783\N,0.10
 01138055,-0.8631077373,0.3091302133\C,0.9696092702,-1.9076998884,0.414
 1080026\C,2.2570007301,-1.4753491291,0.1707547061\N,2.276775705,-0.144
 9553053,-0.0978771677\H,0.6081898724,-2.8991452236,0.6468950065\H,3.17
 5477175,-2.0441291833,0.1721726612\H,-1.337372945,-1.2395496095,-0.722
 6273968\C,0.5036959703,1.4584280711,-0.1652673092\O,-0.8155950832,1.66
 74667608,0.0293492513\O,1.2388514328,2.4061469148,-0.4921366522\O,-2.9
 441422769,0.2064047046,0.9800603448\H,-2.8621611284,-0.2703691934,1.81
 6105172\H,-1.3044445254,0.9082125052,0.4223404428\O,-2.2085234901,-1.4
 688716084,-1.1335473441\H,-2.2583949465,-0.9501915069,-1.9471590034\H,
 -2.9181364454,-0.4791418716,0.2836807813\\Version=ES64L-G16RevA.03\Sta
 te=2-A\HF=-583.5974293\S2=0.763335\S2-1=0.\S2A=0.750097\RMSD=2.162e-09
 \RMSF=2.205e-05\ZeroPoint=0.1203139\Thermal=0.1325516\Dipole=-1.669868
 2,-3.2296371,0.6263703\DipoleDeriv=-0.1395492,0.3399293,-0.041185,0.26
 53542,-0.9175588,0.1648189,-0.0558277,0.1147793,-0.0777269,-1.2702107,
 -0.8460426,0.1079109,0.4343369,-0.373094,-0.1014877,-0.2256442,-0.0002
 993,-0.4305285,0.400974,0.4061916,-0.1465993,-0.4588255,-0.2273353,0.0
 277768,0.0114936,-0.0602374,-0.2375657,0.1997787,-0.1734542,-0.0314954
 ,0.5998045,0.0984787,-0.1350735,-0.1747206,-0.0471198,-0.1822879,-0.71
 03116,0.4095401,-0.0295795,-0.7242234,-0.4454197,0.0947629,0.1920068,-
 0.0283946,-0.3573524,0.13251,-0.0473902,0.0234346,-0.0219265,0.0061627
 ,0.0511148,0.0169882,0.0504843,0.2397596,0.031043,0.1002722,0.0046393,
 0.0698958,0.0880235,0.0222107,0.0143035,0.0249602,0.2363683,1.1846295,
 0.2767403,0.3051827,0.1735794,0.4558183,0.1091787,0.5239504,0.2340448,
 0.5870667,2.5199714,0.2747972,-0.4396685,-0.2424132,4.1122388,-0.63450
 62,-0.3084601,-0.7614678,0.7114542,-2.1399814,0.7393911,0.1812342,-0.1
 052628,-0.852581,0.0565767,0.3162235,-0.0452357,-0.6347649,-0.97623,-1
 .3954181,0.3260913,-0.1054447,-2.9053866,0.4450468,0.0935107,0.6934128
 ,-0.8256199,-1.176599,-0.0733379,0.1306298,-0.0617813,-0.7687132,-0.15
 36489,0.1659762,-0.1244289,-0.9892988,0.4499979,0.0191894,-0.0187479,0
 .0177288,0.3372183,0.0603753,-0.0213795,0.0265634,0.3950618,0.9180775,
 0.1216733,-0.1666463,0.2789154,0.4499321,-0.0543386,-0.192382,-0.04156
 01,0.517384,-1.3347281,-0.0518775,-0.142623,-0.0178517,-0.9066948,-0.2
 284964,-0.2562377,-0.3109364,-1.0510769,0.393351,-0.0566459,0.0392989,
 -0.0379412,0.3731428,0.0725202,0.0114027,0.0600519,0.3816231,0.5172771
 ,-0.0435583,-0.1018768,-0.063945,0.4757683,0.2031696,-0.1112035,0.2153
 834,0.7175043\Polar=137.0803981,-5.8063815,170.6952924,-4.3942305,-15.
 7528982,85.3334766\Quadrupole=-6.4068299,-7.0202684,13.4270982,-7.2186
 703,1.6942845,-0.3884005\PG=C01 [X(C3H7N3O4)]\NImag=0\\0.59835333,-0.1
 1221294,0.83986684,-0.04754943,-0.12823967,0.11352552,-0.15986012,-0.0
 1324754,0.01632832,0.45900370,-0.09077734,-0.15196630,0.03281940,-0.08
 254950,0.44781483,0.03122465,0.02511765,-0.04910361,-0.01983139,-0.064
 96662,0.08294065,-0.00261914,0.01395672,-0.00178448,-0.19856946,0.1341
 8173,-0.00986841,0.66791664,-0.00167368,-0.10134014,0.02125320,0.08881
 020,-0.21716585,0.02106771,0.11054530,0.78824311,0.00215491,0.01961262
 ,-0.00083569,-0.00060760,0.01694154,-0.04862379,-0.08617851,-0.1466351
 6,0.14811519,-0.03676006,0.04273020,-0.00350384,-0.07339610,0.06065678
 ,-0.00147478,-0.34868417,-0.09243094,0.05274580,0.85172777,0.06138171,
 -0.07048594,0.00690784,0.02729053,-0.01103854,0.00497165,-0.08306900,-
 0.09698204,0.01518512,-0.11889200,0.62013209,-0.00733437,0.00954098,0.
 00231503,0.00593121,-0.00008609,0.02078315,0.05183524,0.01730020,-0.07
 355187,-0.06612564,-0.08626547,0.14034674,-0.21140009,-0.02603777,0.02
 651735,-0.04487455,-0.01619428,0.00776652,-0.00398002,-0.02155993,0.00
 701266,-0.10043748,0.00657708,0.00447839,0.37337590,0.04768239,-0.1022
 8711,0.00563855,-0.01521845,-0.00204569,0.00086056,-0.06265811,-0.0748
 9688,0.02822067,-0.02844596,-0.30915177,0.05511800,0.00806069,0.513760
 29,0.01089266,0.01519956,-0.04468328,0.00855165,0.00248026,0.00008032,
 0.01544493,0.02233717,0.01697492,0.01181738,0.05163406,-0.05994983,-0.
 03936579,-0.08921554,0.08645758,-0.00386495,0.00644398,-0.00015831,0.0
 1232944,0.01860742,-0.00553165,-0.09614228,-0.10071867,0.02751697,0.00
 349394,-0.02384416,0.00425184,-0.00478122,-0.00141303,0.00163307,0.087
 20743,0.00277731,-0.00276056,0.00118002,-0.00929736,-0.01526504,0.0030
 5869,-0.09511303,-0.31180546,0.06609941,0.00209350,0.00068102,-0.00031
 570,0.00116258,0.00144319,0.00080242,0.09979675,0.32852136,0.00027370,
 0.00091670,0.00499572,-0.00016656,-0.00055075,-0.00493229,0.02594506,0
 .06683416,-0.04172339,-0.00052608,0.00300798,-0.00019152,0.00138413,0.
 00110025,0.00610217,-0.02702525,-0.07097868,0.03725968,0.00130093,-0.0
 0288194,0.00115553,-0.00305924,-0.00122837,0.00122735,-0.00875141,0.01
 692059,-0.00224052,-0.28697761,0.13800249,0.00410855,0.00610552,-0.001
 67974,-0.00104794,0.00007138,-0.00047073,-0.00023683,0.29073159,0.0011
 2661,-0.00742526,0.00244833,-0.00395285,-0.00048147,0.00184192,-0.0094
 0662,0.01187781,-0.00109271,0.13262674,-0.13752644,0.00575581,0.025939
 33,-0.00985444,-0.00218307,0.00066849,-0.00037484,-0.00051314,-0.14879
 484,0.14319930,0.00009491,0.00296532,0.00538825,0.00214290,0.00180263,
 0.00621424,0.00305620,-0.00421792,0.00094393,0.00512391,0.00503912,-0.
 03039767,-0.00641616,0.00096708,-0.00468987,-0.00044409,-0.00034546,-0
 .00237354,-0.00308599,-0.00612272,0.02410929,-0.00197248,-0.00455134,0
 .00386544,0.01391400,0.00468752,0.01204070,-0.00755998,0.00757713,-0.0
 0154350,0.00330646,-0.00152959,-0.00096750,0.00169862,0.00208879,-0.00
 081056,0.00006412,-0.00006990,0.00059610,0.00029259,0.00002395,-0.0002
 6334,0.31276101,-0.00280640,-0.00209404,-0.00053814,0.00557385,-0.0059
 7909,0.00602750,0.00114209,0.00321713,0.00118327,0.00176207,-0.0012169
 2,-0.00029381,0.00062231,0.00032676,-0.00007652,0.00000550,-0.00016932
 ,0.00023355,0.00014868,0.00004779,-0.00027065,0.07217723,0.05148746,0.
 00231850,-0.00340333,0.00349056,0.00726309,0.00587348,0.00116810,-0.00
 266967,0.00456705,-0.00084216,0.00228168,-0.00099072,-0.00044639,0.001
 92401,0.00171320,-0.00078988,-0.00000315,-0.00010530,0.00031586,0.0003
 0184,0.00005526,-0.00017056,0.12741952,0.01242979,0.10456778,-0.147138
 15,0.08169127,-0.00102000,0.02204191,-0.01229097,-0.00018311,-0.006066
 44,-0.00637458,0.00181872,-0.00977947,-0.00322792,0.00191966,-0.019665
 10,0.03967380,-0.00331727,0.00148196,-0.00123300,0.00017531,0.00034949
 ,0.00127648,-0.00030921,0.00045952,-0.00079616,-0.00007256,0.66507374,
 0.07295450,-0.32356164,0.04315826,0.01972572,-0.03356533,0.00559078,-0
 .01882180,0.00884279,0.00047783,0.00423951,0.01471720,-0.00378490,0.00
 957731,-0.01810333,0.00142090,-0.00022171,0.00120211,-0.00006149,-0.00
 052796,0.00202318,-0.00032098,-0.00934055,-0.00242875,-0.00586725,0.08
 219350,0.80217429,0.00139811,0.04044904,-0.05174189,-0.00846107,0.0065
 0844,-0.00217820,0.00474347,-0.00078021,-0.00214155,-0.00003020,-0.002
 95164,0.00025182,0.00201312,-0.00054806,-0.00119118,-0.00013175,0.0001
 6766,0.00084489,0.00014545,-0.00035183,0.00090562,0.00147060,0.0001698
 5,0.00128815,-0.10900796,-0.14980661,0.20277594,-0.04282850,0.01263654
 ,0.00772330,0.01893574,-0.00037074,-0.00224048,-0.00758349,0.00515013,
 -0.00004101,0.00132007,0.00326714,-0.00056852,-0.01300925,0.00386656,0
 .00135948,-0.00011931,0.00047248,-0.00009770,-0.00014664,0.00094312,-0
 .00028304,-0.00479941,-0.00072934,-0.00233295,-0.23954582,0.05865772,0
 .02187723,0.48508942,0.05091439,-0.01462902,-0.00413486,0.00483256,-0.
 00218799,-0.00071518,0.00116496,0.00099179,-0.00092588,0.00397178,-0.0
 0040760,-0.00012673,-0.00544219,-0.00552671,0.00235529,-0.00003647,-0.
 00016132,0.00001916,0.00014388,-0.00059872,0.00019308,0.00115067,0.000
 85856,0.00116451,0.02142673,-0.11790194,0.01881488,0.10515137,0.427984
 17,0.00064299,0.00142735,0.00814888,-0.00375109,-0.00001413,-0.0023400
 0,0.00093110,-0.00092684,0.00037811,-0.00040636,0.00006154,0.00164960,
 0.00248981,0.00071866,0.00379073,0.00001431,-0.00006129,-0.00008547,0.
 00000477,-0.00009481,-0.00007541,0.00073307,0.00032760,0.00017423,0.03
 337533,0.01091714,-0.04862109,-0.13899532,-0.16230425,0.11183134,0.007
 57685,-0.00142962,0.00043360,-0.02044838,-0.00782211,0.00351476,0.0082
 2044,-0.00168198,-0.00041906,-0.00235237,-0.00596383,0.00153021,0.0183
 4111,0.01011329,-0.00521141,0.00020395,-0.00023755,0.00003573,0.000189
 01,-0.00031855,0.00010400,0.00417378,0.00110325,0.00249877,-0.24287524
 ,-0.19323467,0.07265030,-0.06562409,-0.05446642,0.02844649,0.29912161,
 -0.03502324,-0.06449918,0.02043223,-0.01453310,-0.01103930,0.00305812,
 0.00710856,-0.00690646,0.00067589,-0.00649296,-0.00945340,0.00288872,0
 .01630063,0.00731195,-0.00447711,0.00070872,-0.00127740,0.00011420,0.0
 0053320,-0.00068172,0.00013801,0.00680699,0.00154417,0.00414882,-0.197
 30342,-0.34721272,0.09434013,-0.02404779,0.00823202,0.00553585,0.24852
 686,0.42315951,0.00797870,0.01383895,0.00951410,0.00758481,0.00472564,
 0.00256872,-0.00257452,0.00187965,0.00157155,0.00174819,0.00279820,-0.
 00113013,-0.00715087,-0.00412640,-0.00177339,-0.00013733,0.00029246,0.
 00001716,-0.00014005,0.00019566,-0.00003745,-0.00206651,-0.00038465,-0
 .00141704,0.07206302,0.09453365,-0.09210603,0.01972437,0.00946763,0.00
 345453,-0.09973411,-0.12391636,0.07387347,-0.00066401,0.00053608,-0.00
 011409,-0.00285670,0.00213965,0.00134971,-0.00037231,-0.00076593,0.000
 50743,-0.00042621,0.00055275,-0.00014232,-0.00092056,-0.00010760,0.000
 18055,0.00001094,0.00010028,-0.00000216,-0.00010371,-0.00000053,-0.000
 02696,0.00016042,-0.00074275,-0.00117544,0.00749296,-0.00299921,-0.000
 30719,-0.01705988,-0.00717118,0.00712804,-0.00343818,-0.00114538,0.000
 91892,0.02000590,-0.00027416,-0.00025553,0.00004497,0.00189325,-0.0000
 7865,-0.00020293,-0.00029974,0.00041029,-0.00008518,0.00019083,0.00012
 731,-0.00004663,-0.00016800,0.00013674,-0.00001248,-0.00002545,-0.0000
 0156,0.00000457,0.00001371,0.00003492,-0.00000804,-0.00195751,0.000078
 87,-0.00018754,0.00391229,-0.00260775,0.00025974,-0.01164708,-0.002480
 19,0.00413120,-0.00155049,-0.00008927,0.00027108,-0.03471951,0.4370289
 7,0.00024431,-0.00021859,-0.00000955,0.00068558,-0.00019242,0.00053153
 ,0.00004303,0.00020661,-0.00004786,0.00009659,-0.00016835,0.00001322,0
 .00029643,-0.00000078,-0.00005707,-0.00000055,-0.00001721,0.00000589,0
 .00002636,-0.00001205,-0.00001240,-0.00278798,0.00047114,-0.00041815,-
 0.00279259,0.00164722,0.00039608,0.00867046,0.00305399,-0.00097212,0.0
 0149521,0.00047012,-0.00042061,0.02697269,0.00729834,0.66945719,-0.000
 04575,-0.00004075,0.00005200,0.00040500,-0.00013717,-0.00028825,-0.000
 05881,0.00010128,-0.00005357,0.00003557,-0.00000097,0.00001009,-0.0000
 0957,0.00003286,-0.00001965,0.00000835,0.00001314,0.00000049,0.0000062
 3,0.00000672,0.00000388,0.00006389,-0.00001474,0.00011288,0.00037701,-
 0.00047650,0.00000635,-0.00186112,-0.00063303,0.00019323,-0.00020489,0
 .00002566,0.00002961,-0.00626722,0.02249352,-0.04080860,0.00624468,-0.
 00005061,-0.00001172,0.00001912,0.00006338,-0.00006714,0.00003292,0.00
 000313,0.00003535,-0.00001481,0.00001869,-0.00001270,0.00000416,0.0000
 1636,0.00002019,-0.00000380,-0.00000129,-0.00001014,0.00000078,0.00000
 290,0.00000185,-0.00000067,-0.00026850,0.00006664,-0.00005703,0.000079
 61,-0.00011642,-0.00000205,-0.00054489,0.00012786,0.00002573,-0.000083
 13,-0.00002456,0.00001412,0.02408546,-0.16496020,0.23645023,-0.0217174
 9,0.15390724,-0.00003845,0.00005731,0.00001261,-0.00032391,0.00020270,
 0.00014676,-0.00001753,-0.00007906,0.00004512,-0.00004142,0.00004743,-
 0.00001713,-0.00008999,-0.00002566,0.00001808,0.00000126,0.00000434,0.
 00000390,-0.00001016,-0.00000094,-0.00000083,0.00005308,-0.00011407,-0
 .00027688,0.00042004,-0.00005197,-0.00004426,-0.00104474,-0.00073291,0
 .00048609,-0.00021747,-0.00011181,0.00005601,-0.03574044,0.18659775,-0
 .40330762,0.03813334,-0.20765078,0.42921489,-0.00029532,-0.00034925,0.
 00093604,-0.00030470,-0.00203606,-0.00042030,0.00072354,0.00065494,-0.
 00067029,0.00100084,-0.00127915,0.00015661,0.00056525,-0.00078722,-0.0
 0028369,0.00005022,-0.00018321,0.00000290,0.00017713,-0.00012561,0.000
 08620,0.00217138,0.00020500,0.00090577,-0.03097303,-0.02764398,0.01389
 317,-0.11673426,-0.12075452,0.06967895,-0.00072295,0.00252517,0.000716
 00,0.01002981,0.00590517,-0.00595083,0.00188716,0.00039071,0.00192999,
 0.13737223,0.00511417,0.00046042,-0.00093529,-0.00217817,0.00066025,0.
 00020069,0.00108342,-0.00275795,0.00078379,-0.00113330,0.00004668,0.00
 010242,0.00146553,-0.00074904,-0.00030081,0.00007399,-0.00000268,0.000
 01731,-0.00010976,-0.00021973,0.00004407,0.00040766,-0.00144966,-0.001
 60862,-0.00856208,0.01459389,-0.00655640,-0.15454990,-0.29430604,0.140
 88701,0.00748828,0.00198665,0.00027214,0.00877354,-0.00028949,-0.00280
 777,-0.00010937,-0.00072310,0.00149958,0.14742948,0.28577995,-0.001124
 82,0.00078373,0.00124557,0.00021482,0.00045054,0.00004964,-0.00051106,
 0.00001879,-0.00045582,-0.00035365,0.00022945,-0.00003814,0.00014473,0
 .00052905,-0.00065642,-0.00002293,0.00006582,-0.00002732,-0.00004964,0
 .00009627,0.00006035,-0.00063220,-0.00113298,-0.00069069,0.00760460,-0
 .00160752,-0.00780084,0.08357222,0.13393756,-0.07699161,-0.00380362,-0
 .00080269,0.00505617,-0.00741383,-0.00242497,-0.00244675,0.00141172,0.
 00075075,-0.00118047,-0.07844997,-0.13102758,0.08197270,0.00061310,0.0
 0301661,-0.00259476,-0.02319290,-0.00537902,-0.01748001,0.00343158,-0.
 00498168,0.00004926,-0.00228808,0.00092206,0.00091264,-0.00115161,-0.0
 0125244,0.00018256,-0.00002224,0.00019107,-0.00038539,-0.00021781,-0.0
 0002413,0.00023770,-0.31804404,-0.10263094,-0.11085491,-0.00039455,0.0
 0604863,-0.00031076,0.00324671,-0.00089759,-0.00083666,-0.00255848,-0.
 00427094,0.00115064,0.00087685,0.00365620,0.00714658,-0.00003602,0.001
 00410,0.00035932,-0.00140174,-0.00022890,0.00058220,0.37733738,0.00093
 475,0.00070841,0.00012122,-0.00564058,0.00348385,-0.00487058,-0.000187
 95,-0.00151691,-0.00045088,-0.00079905,0.00061851,0.00013372,-0.000254
 17,-0.00025593,-0.00004608,-0.00005771,-0.00000802,-0.00012969,-0.0000
 6613,-0.00001907,0.00012380,-0.07894552,-0.04838198,-0.00880776,0.0006
 6565,0.00108860,0.00022926,-0.00016632,-0.00078546,-0.00032384,-0.0006
 6404,-0.00082780,0.00013823,0.00228252,-0.00251101,-0.01007699,0.00047
 190,-0.00155124,-0.00066637,0.00075978,0.00082089,0.00027406,0.0949545
 3,0.21264274,-0.00108933,0.00183009,-0.00205009,-0.01457296,-0.0049832
 7,-0.00658805,0.00137323,-0.00270580,0.00022198,-0.00129343,0.00056116
 ,0.00029923,-0.00102011,-0.00089837,0.00036836,0.00004381,0.00014221,-
 0.00020143,-0.00015735,-0.00002136,0.00012206,-0.14731336,-0.02833644,
 -0.09235707,0.00020342,0.00323399,-0.00064347,0.00079142,-0.00093744,0
 .00003620,-0.00157535,-0.00242505,0.00081371,0.00411816,-0.01023944,-0
 .01343008,0.00026470,-0.00116567,0.00005991,0.00079083,0.00117705,-0.0
 0010337,0.17208422,-0.20861979,0.48224001,-0.00038809,0.00014466,-0.00
 028107,-0.00133962,-0.00142088,-0.00017823,0.00018744,-0.00012085,0.00
 010800,-0.00003931,-0.00002957,0.00000249,-0.00013284,-0.00009075,0.00
 005144,0.00001466,0.00001606,0.00000466,-0.00001379,-0.00000020,-0.000
 00534,0.00015590,0.02191847,-0.03149131,-0.00004827,0.00024010,-0.0001
 8833,0.00014314,0.00003608,0.00006728,-0.00010155,-0.00019166,0.000094
 97,-0.00015200,0.00108066,0.00058367,-0.00001023,-0.00005581,-0.000078
 85,-0.00009871,-0.00001300,-0.00000494,-0.03449043,-0.01161664,-0.0079
 6759,0.03583747,-0.00010052,0.00020225,-0.00004669,-0.00095840,-0.0005
 2603,-0.00046570,0.00014295,-0.00014973,0.00005873,-0.00006734,-0.0000
 0276,0.00002417,-0.00009485,-0.00006329,0.00004969,0.00000721,0.000001
 62,-0.00000867,-0.00000928,-0.00000142,0.00000358,-0.00245625,0.004071
 34,-0.00888339,-0.00006532,0.00024130,-0.00007832,0.00016101,0.0000364
 9,0.00013598,-0.00007961,-0.00016404,0.00006507,0.00047579,-0.00143094
 ,-0.00090486,-0.00004471,0.00006672,0.00007361,0.00004282,0.00009243,-
 0.00008109,0.01209503,-0.16140184,0.24724776,-0.00812311,0.15721761,-0
 .00020614,-0.00004373,-0.00006892,-0.00015394,-0.00042168,0.00040562,-
 0.00001984,0.00013061,0.00003986,0.00003089,-0.00007174,-0.00000512,0.
 00002750,0.00001924,-0.00003999,-0.00000896,0.00000882,-0.00000087,0.0
 0000303,0.00000016,-0.00000827,0.00381440,0.01160469,-0.01433901,-0.00
 014776,-0.00008392,0.00000908,0.00007199,0.00011896,0.00006488,0.00007
 678,0.00007716,-0.00002417,0.00014269,-0.00022981,0.00052686,-0.000035
 17,0.00012433,0.00006326,-0.00005458,-0.00011185,-0.00013211,-0.043233
 47,0.22617774,-0.37648135,0.03948417,-0.23760271,0.39228029,-0.0000075
 7,-0.00040491,-0.00000560,0.00127199,-0.00006668,0.00037291,-0.0000921
 5,0.00054867,-0.00015968,0.00025620,-0.00015757,0.00000142,0.00027590,
 0.00013492,-0.00005740,-0.00000640,-0.00001838,0.00002190,0.00004634,0
 .00001191,-0.00001558,-0.00684579,0.00306190,0.00357394,-0.00079054,-0
 .00037059,0.00023945,0.00057671,0.00060899,0.00028407,0.00049939,0.000
 47269,-0.00020584,-0.00631611,0.01149631,0.00607965,-0.00053428,-0.002
 94261,-0.00329406,-0.00344685,-0.00495161,-0.00116365,-0.00170774,-0.0
 0167101,-0.00468032,0.00047624,-0.00092543,0.00020841,0.01634465,0.000
 03303,0.00007852,-0.00012850,-0.00061353,-0.00055254,-0.00060720,0.000
 22737,-0.00009684,-0.00003423,-0.00002854,-0.00004470,0.00005115,0.000
 02936,-0.00006494,0.00003608,0.00000643,-0.00001296,-0.00000622,0.0000
 0330,-0.00000173,0.00000973,0.00419923,0.00002104,-0.00004116,-0.00106
 587,0.00061451,0.00013613,0.00175001,0.00075409,-0.00044292,0.00030033
 ,-0.00005846,-0.00006506,0.00870603,-0.26311252,-0.23519862,0.00002966
 ,0.01325136,0.02095085,-0.00475407,-0.00394347,-0.00005921,-0.00222258
 ,-0.00210374,0.00614037,-0.00177355,0.00181029,0.00030372,-0.00482659,
 0.25346211,0.00011909,0.00016603,-0.00014322,-0.00083386,-0.00058967,-
 0.00112281,0.00025174,-0.00025017,-0.00006855,-0.00008904,0.00000435,0
 .00006900,-0.00001172,-0.00007046,0.00003874,0.00000272,0.00000178,-0.
 00000942,-0.00000439,-0.00000079,0.00002227,0.00639203,-0.00130012,0.0
 0074314,-0.00072963,0.00060487,-0.00000310,0.00181328,0.00075220,-0.00
 092890,0.00017518,-0.00014623,-0.00001661,0.00360423,-0.18517063,-0.24
 980858,0.00098695,-0.02852733,-0.02527948,-0.00326679,-0.00163573,0.00
 213911,-0.00700915,0.00679395,0.00769344,-0.00020103,0.00041286,-0.002
 29004,-0.00119962,0.20895509,0.26896500\\-0.00001913,0.00001846,-0.000
 00771,0.00000941,-0.00004601,-0.00000252,-0.00000819,0.00000586,0.0000
 0752,-0.00001619,-0.00002702,-0.00000258,0.00001478,0.00000390,0.00000
 608,-0.00001245,-0.00000957,-0.00001685,-0.00000724,-0.00001329,-0.000
 00420,0.00000856,0.00005211,0.00003182,-0.00000384,-0.00005091,0.00003
 614,0.00001904,0.00001631,0.00002392,0.00003716,0.00002545,0.00000299,
 -0.00002573,-0.00000131,0.00000229,0.00000254,0.00000086,-0.00000205,0
 .00000865,0.00000848,-0.00000397,-0.00005463,-0.00001221,-0.00004627,0
 .00001109,0.00001391,-0.00002616,0.00003617,0.00001497,0.00000154\\\@


 IT IS NOT EASY TO DESCRIBE
     THE SEA WITH THE MOUTH

                   -- KOKYU
 Job cpu time:       0 days  0 hours 54 minutes  1.2 seconds.
 Elapsed time:       0 days  0 hours  2 minutes 15.8 seconds.
 File lengths (MBytes):  RWF=    222 Int=      0 D2E=      0 Chk=     12 Scr=      1
 Normal termination of Gaussian 16 at Fri Jul  7 01:07:10 2023.
