 Entering Gaussian System, Link 0=/opt/soft/g16b/g16/g16
 Initial command:
 /opt/soft/g16b/g16/l1.exe "/scratch/gongke2021/1-H-Tz-opt/Gau-26006.inp" -scrdir="/scratch/gongke2021/1-H-Tz-opt/"
 Entering Link 1 = /opt/soft/g16b/g16/l1.exe PID=     26007.
  
 Copyright (c) 1988,1990,1992,1993,1995,1998,2003,2009,2016,
            Gaussian, Inc.  All Rights Reserved.
  
 This is part of the Gaussian(R) 16 program.  It is based on
 the Gaussian(R) 09 system (copyright 2009, Gaussian, Inc.),
 the Gaussian(R) 03 system (copyright 2003, Gaussian, Inc.),
 the Gaussian(R) 98 system (copyright 1998, Gaussian, Inc.),
 the Gaussian(R) 94 system (copyright 1995, Gaussian, Inc.),
 the Gaussian 92(TM) system (copyright 1992, Gaussian, Inc.),
 the Gaussian 90(TM) system (copyright 1990, Gaussian, Inc.),
 the Gaussian 88(TM) system (copyright 1988, Gaussian, Inc.),
 the Gaussian 86(TM) system (copyright 1986, Carnegie Mellon
 University), and the Gaussian 82(TM) system (copyright 1983,
 Carnegie Mellon University). Gaussian is a federally registered
 trademark of Gaussian, Inc.
  
 This software contains proprietary and confidential information,
 including trade secrets, belonging to Gaussian, Inc.
  
 This software is provided under written license and may be
 used, copied, transmitted, or stored only in accord with that
 written license.
  
 The following legend is applicable only to US Government
 contracts under FAR:
  
                    RESTRICTED RIGHTS LEGEND
  
 Use, reproduction and disclosure by the US Government is
 subject to restrictions as set forth in subparagraphs (a)
 and (c) of the Commercial Computer Software - Restricted
 Rights clause in FAR 52.227-19.
  
 Gaussian, Inc.
 340 Quinnipiac St., Bldg. 40, Wallingford CT 06492
  
  
 ---------------------------------------------------------------
 Warning -- This program may not be used in any manner that
 competes with the business of Gaussian, Inc. or will provide
 assistance to any competitor of Gaussian, Inc.  The licensee
 of this program is prohibited from giving any competitor of
 Gaussian, Inc. access to this program.  By using this program,
 the user acknowledges that Gaussian, Inc. is engaged in the
 business of creating and licensing software in the field of
 computational chemistry and represents and warrants to the
 licensee that it is not a competitor of Gaussian, Inc. and that
 it will not use this program in any manner prohibited above.
 ---------------------------------------------------------------
  

 Cite this work as:
 Gaussian 16, Revision A.03,
 M. J. Frisch, G. W. Trucks, H. B. Schlegel, G. E. Scuseria, 
 M. A. Robb, J. R. Cheeseman, G. Scalmani, V. Barone, 
 G. A. Petersson, H. Nakatsuji, X. Li, M. Caricato, A. V. Marenich, 
 J. Bloino, B. G. Janesko, R. Gomperts, B. Mennucci, H. P. Hratchian, 
 J. V. Ortiz, A. F. Izmaylov, J. L. Sonnenberg, D. Williams-Young, 
 F. Ding, F. Lipparini, F. Egidi, J. Goings, B. Peng, A. Petrone, 
 T. Henderson, D. Ranasinghe, V. G. Zakrzewski, J. Gao, N. Rega, 
 G. Zheng, W. Liang, M. Hada, M. Ehara, K. Toyota, R. Fukuda, 
 J. Hasegawa, M. Ishida, T. Nakajima, Y. Honda, O. Kitao, H. Nakai, 
 T. Vreven, K. Throssell, J. A. Montgomery, Jr., J. E. Peralta, 
 F. Ogliaro, M. J. Bearpark, J. J. Heyd, E. N. Brothers, K. N. Kudin, 
 V. N. Staroverov, T. A. Keith, R. Kobayashi, J. Normand, 
 K. Raghavachari, A. P. Rendell, J. C. Burant, S. S. Iyengar, 
 J. Tomasi, M. Cossi, J. M. Millam, M. Klene, C. Adamo, R. Cammi, 
 J. W. Ochterski, R. L. Martin, K. Morokuma, O. Farkas, 
 J. B. Foresman, and D. J. Fox, Gaussian, Inc., Wallingford CT, 2016.
 
 ******************************************
 Gaussian 16:  ES64L-G16RevA.03 25-Dec-2016
                 1-Jul-2023 
 ******************************************
 %mem=10GB
 %nprocshared=20
 Will use up to   20 processors via shared memory.
 -----------------------------------------------------
 # opt freq 6-31+g(d,p) m062x scrf=(SMD,solvent=water)
 -----------------------------------------------------
 1/18=20,19=15,26=3,38=1/1,3;
 2/9=110,12=2,17=6,18=5,40=1/2;
 3/5=1,6=6,7=111,11=2,25=1,30=1,70=32201,71=1,72=1,74=-55/1,2,3;
 4//1;
 5/5=2,38=5,53=1/2;
 6/7=2,8=2,9=2,10=2,28=1/1;
 7//1,2,3,16;
 1/18=20,19=15,26=3/3(2);
 2/9=110/2;
 99//99;
 2/9=110/2;
 3/5=1,6=6,7=111,11=2,25=1,30=1,70=32205,71=1,72=1,74=-55/1,2,3;
 4/5=5,16=3,69=1/1;
 5/5=2,38=5,53=1/2;
 7//1,2,3,16;
 1/18=20,19=15,26=3/3(-5);
 2/9=110/2;
 6/7=2,8=2,9=2,10=2,19=2,28=1/1;
 99/9=1/99;
 ----
 test
 ----
 Symbolic Z-matrix:
 Charge =  0 Multiplicity = 1
 N                    -3.27597   0.57796  -0.00019 
 N                    -2.44747  -0.66051   0.00016 
 C                    -1.01452  -0.19638   0.00039 
 C                    -1.00746   1.33133   0.0004 
 N                    -2.436     1.80882   0.00043 
 H                    -0.09409  -0.86904   0.00068 
 H                    -0.08081   1.99529   0.00088 
 H                    -2.93444  -1.65799   0.00016 
 

 GradGradGradGradGradGradGradGradGradGradGradGradGradGradGradGradGradGrad
 Berny optimization.
 Initialization pass.
                           ----------------------------
                           !    Initial Parameters    !
                           ! (Angstroms and Degrees)  !
 --------------------------                            --------------------------
 ! Name  Definition              Value          Derivative Info.                !
 --------------------------------------------------------------------------------
 ! R1    R(1,2)                  1.49           estimate D2E/DX2                !
 ! R2    R(1,5)                  1.4902         estimate D2E/DX2                !
 ! R3    R(2,3)                  1.5062         estimate D2E/DX2                !
 ! R4    R(2,8)                  1.11           estimate D2E/DX2                !
 ! R5    R(3,4)                  1.5277         estimate D2E/DX2                !
 ! R6    R(3,6)                  1.14           estimate D2E/DX2                !
 ! R7    R(4,5)                  1.5062         estimate D2E/DX2                !
 ! R8    R(4,7)                  1.14           estimate D2E/DX2                !
 ! A1    A(2,1,5)              111.9081         estimate D2E/DX2                !
 ! A2    A(1,2,3)              105.8343         estimate D2E/DX2                !
 ! A3    A(1,2,8)              120.197          estimate D2E/DX2                !
 ! A4    A(3,2,8)              133.9687         estimate D2E/DX2                !
 ! A5    A(2,3,4)              108.2118         estimate D2E/DX2                !
 ! A6    A(2,3,6)              125.8934         estimate D2E/DX2                !
 ! A7    A(4,3,6)              125.8948         estimate D2E/DX2                !
 ! A8    A(3,4,5)              108.2174         estimate D2E/DX2                !
 ! A9    A(3,4,7)              125.8871         estimate D2E/DX2                !
 ! A10   A(5,4,7)              125.8955         estimate D2E/DX2                !
 ! A11   A(1,5,4)              105.8284         estimate D2E/DX2                !
 ! D1    D(5,1,2,3)             -0.0261         estimate D2E/DX2                !
 ! D2    D(5,1,2,8)            179.9764         estimate D2E/DX2                !
 ! D3    D(2,1,5,4)              0.0328         estimate D2E/DX2                !
 ! D4    D(1,2,3,4)              0.0088         estimate D2E/DX2                !
 ! D5    D(1,2,3,6)           -179.9996         estimate D2E/DX2                !
 ! D6    D(8,2,3,4)           -179.9942         estimate D2E/DX2                !
 ! D7    D(8,2,3,6)             -0.0026         estimate D2E/DX2                !
 ! D8    D(2,3,4,5)              0.0108         estimate D2E/DX2                !
 ! D9    D(2,3,4,7)            179.9791         estimate D2E/DX2                !
 ! D10   D(6,3,4,5)           -179.9808         estimate D2E/DX2                !
 ! D11   D(6,3,4,7)             -0.0125         estimate D2E/DX2                !
 ! D12   D(3,4,5,1)             -0.0259         estimate D2E/DX2                !
 ! D13   D(7,4,5,1)           -179.9942         estimate D2E/DX2                !
 --------------------------------------------------------------------------------
 Trust Radius=3.00D-01 FncErr=1.00D-07 GrdErr=1.00D-06 EigMax=2.50D+02 EigMin=1.00D-04
 Number of steps in this run=     42 maximum allowed number of steps=    100.
 GradGradGradGradGradGradGradGradGradGradGradGradGradGradGradGradGradGrad

                          Input orientation:                          
 ---------------------------------------------------------------------
 Center     Atomic      Atomic             Coordinates (Angstroms)
 Number     Number       Type             X           Y           Z
 ---------------------------------------------------------------------
      1          7           0       -3.275970    0.577959   -0.000194
      2          7           0       -2.447470   -0.660512    0.000159
      3          6           0       -1.014520   -0.196383    0.000393
      4          6           0       -1.007460    1.331330    0.000395
      5          7           0       -2.436000    1.808820    0.000435
      6          1           0       -0.094095   -0.869036    0.000677
      7          1           0       -0.080812    1.995290    0.000883
      8          1           0       -2.934440   -1.657990    0.000159
 ---------------------------------------------------------------------
                    Distance matrix (angstroms):
                    1          2          3          4          5
     1  N    0.000000
     2  N    1.490041   0.000000
     3  C    2.390348   1.506241   0.000000
     4  C    2.390336   2.457857   1.527729   0.000000
     5  N    1.490157   2.469359   2.457935   1.506228   0.000000
     6  H    3.495444   2.362596   1.140020   2.382404   3.557448
     7  H    3.495406   3.557296   2.382276   1.139964   2.362558
     8  H    2.261882   1.110001   2.412962   3.556583   3.502458
                    6          7          8
     6  H    0.000000
     7  H    2.864357   0.000000
     8  H    2.947883   4.635693   0.000000
 Stoichiometry    C2H3N3
 Framework group  C1[X(C2H3N3)]
 Deg. of freedom    18
 Full point group                 C1      NOp   1
 Largest Abelian subgroup         C1      NOp   1
 Largest concise Abelian subgroup C1      NOp   1
                         Standard orientation:                         
 ---------------------------------------------------------------------
 Center     Atomic      Atomic             Coordinates (Angstroms)
 Number     Number       Type             X           Y           Z
 ---------------------------------------------------------------------
      1          7           0        0.492818   -1.168166   -0.000181
      2          7           0        1.244018    0.118660    0.000073
      3          6           0        0.199761    1.204149   -0.000034
      4          6           0       -1.177083    0.542138   -0.000132
      5          7           0       -0.981480   -0.951336    0.000186
      6          1           0        0.401948    2.326096    0.000094
      7          1           0       -2.179530    1.084924    0.000112
      8          1           0        2.354018    0.117152    0.000244
 ---------------------------------------------------------------------
 Rotational constants (GHZ):           8.5364586           7.6139844           4.0244385
 Standard basis: 6-31+G(d,p) (6D, 7F)
 There are   110 symmetry adapted cartesian basis functions of A   symmetry.
 There are   110 symmetry adapted basis functions of A   symmetry.
   110 basis functions,   181 primitive gaussians,   110 cartesian basis functions
    18 alpha electrons       18 beta electrons
       nuclear repulsion energy       148.2582244787 Hartrees.
 NAtoms=    8 NActive=    8 NUniq=    8 SFac= 1.00D+00 NAtFMM=   60 NAOKFM=F Big=F
 Integral buffers will be    131072 words long.
 Raffenetti 2 integral format.
 Two-electron integral symmetry is turned on.
 ------------------------------------------------------------------------------
 Polarizable Continuum Model (PCM)
 =================================
 Model                : PCM.
 Atomic radii         : SMD-Coulomb.
 Polarization charges : Total charges.
 Charge compensation  : None.
 Solution method      : On-the-fly selection.
 Cavity type          : VdW (van der Waals Surface) (Alpha=1.000).
 Cavity algorithm     : GePol (No added spheres)
                        Default sphere list used, NSphG=    8.
                        Lebedev-Laikov grids with approx.  5.0 points / Ang**2.
                        Smoothing algorithm: York/Karplus (Gamma=1.0000).
                        Polarization charges: spherical gaussians, with
                                              point-specific exponents (IZeta= 3).
                        Self-potential: point-specific (ISelfS= 7).
                        Self-field    : sphere-specific E.n sum rule (ISelfD= 2).
 1st derivatives      : Analytical E(r).r(x)/FMM algorithm (CHGder, D1EAlg=3).
                        Cavity 1st derivative terms included.
 Solvent              : Water, Eps=  78.355300 Eps(inf)=   1.777849
 ------------------------------------------------------------------------------
 Spheres list:
 ISph  on   Nord     Re0    Alpha      Xe            Ye            Ze
    1   N      1    1.8900  1.000      0.492818     -1.168166     -0.000181
    2   N      2    1.8900  1.000      1.244018      0.118660      0.000073
    3   C      3    1.8500  1.000      0.199761      1.204149     -0.000034
    4   C      4    1.8500  1.000     -1.177083      0.542138     -0.000132
    5   N      5    1.8900  1.000     -0.981480     -0.951336      0.000186
    6   H      6    1.2000  1.000      0.401948      2.326096      0.000094
    7   H      7    1.2000  1.000     -2.179530      1.084924      0.000112
    8   H      8    1.2000  1.000      2.354018      0.117152      0.000244
 ------------------------------------------------------------------------------
 ------------------------------------------------------------------------------
 Atomic radii for non-electrostatic terms: SMD-CDS.
 ------------------------------------------------------------------------------
 Nuclear repulsion after PCM non-electrostatic terms =      148.2617319178 Hartrees.
 One-electron integrals computed using PRISM.
 NBasis=   110 RedAO= T EigKep=  1.44D-04  NBF=   110
 NBsUse=   110 1.00D-06 EigRej= -1.00D+00 NBFU=   110
 ExpMin= 4.38D-02 ExpMax= 4.17D+03 ExpMxC= 6.27D+02 IAcc=3 IRadAn=         5 AccDes= 0.00D+00
 Harris functional with IExCor= 1009 and IRadAn=       5 diagonalized for initial guess.
 HarFok:  IExCor= 1009 AccDes= 0.00D+00 IRadAn=         5 IDoV= 1 UseB2=F ITyADJ=14
 ICtDFT=  3500011 ScaDFX=  1.000000  1.000000  1.000000  1.000000
 FoFCou: FMM=F IPFlag=           0 FMFlag=      100000 FMFlg1=           0
         NFxFlg=           0 DoJE=T BraDBF=F KetDBF=T FulRan=T
         wScrn=  0.000000 ICntrl=       500 IOpCl=  0 I1Cent=   200000004 NGrid=           0
         NMat0=    1 NMatS0=      1 NMatT0=    0 NMatD0=    1 NMtDS0=    0 NMtDT0=    0
 Petite list used in FoFCou.
 Keep R1 ints in memory in canonical form, NReq=37326157.
 Requested convergence on RMS density matrix=1.00D-08 within 128 cycles.
 Requested convergence on MAX density matrix=1.00D-06.
 Requested convergence on             energy=1.00D-06.
 No special actions if energy rises.
 Inv3:  Mode=1 IEnd=     2126892.
 Iteration    1 A*A^-1 deviation from unit magnitude is 2.66D-15 for    831.
 Iteration    1 A*A^-1 deviation from orthogonality  is 1.39D-15 for    579    206.
 Iteration    1 A^-1*A deviation from unit magnitude is 2.66D-15 for    831.
 Iteration    1 A^-1*A deviation from orthogonality  is 2.23D-15 for    504    365.
 Error on total polarization charges =  0.02665
 SCF Done:  E(RM062X) =  -242.039412378     A.U. after   13 cycles
            NFock= 13  Conv=0.63D-08     -V/T= 2.0161
 SMD-CDS (non-electrostatic) energy       (kcal/mol) =       2.20
 (included in total energy above)

 **********************************************************************

            Population analysis using the SCF density.

 **********************************************************************

 Orbital symmetries:
       Occupied  (A) (A) (A) (A) (A) (A) (A) (A) (A) (A) (A) (A)
                 (A) (A) (A) (A) (A) (A)
       Virtual   (A) (A) (A) (A) (A) (A) (A) (A) (A) (A) (A) (A)
                 (A) (A) (A) (A) (A) (A) (A) (A) (A) (A) (A) (A)
                 (A) (A) (A) (A) (A) (A) (A) (A) (A) (A) (A) (A)
                 (A) (A) (A) (A) (A) (A) (A) (A) (A) (A) (A) (A)
                 (A) (A) (A) (A) (A) (A) (A) (A) (A) (A) (A) (A)
                 (A) (A) (A) (A) (A) (A) (A) (A) (A) (A) (A) (A)
                 (A) (A) (A) (A) (A) (A) (A) (A) (A) (A) (A) (A)
                 (A) (A) (A) (A) (A) (A) (A) (A)
 The electronic state is 1-A.
 Alpha  occ. eigenvalues --  -14.88051 -14.86353 -14.84071 -10.64389 -10.62435
 Alpha  occ. eigenvalues --   -1.10704  -0.95930  -0.85437  -0.71427  -0.66639
 Alpha  occ. eigenvalues --   -0.59814  -0.50377  -0.49648  -0.48672  -0.39573
 Alpha  occ. eigenvalues --   -0.38401  -0.35366  -0.30737
 Alpha virt. eigenvalues --   -0.02636   0.02759   0.02762   0.04167   0.05023
 Alpha virt. eigenvalues --    0.06538   0.07761   0.07886   0.10016   0.11520
 Alpha virt. eigenvalues --    0.12471   0.14210   0.14639   0.16006   0.16693
 Alpha virt. eigenvalues --    0.18553   0.19384   0.19975   0.21436   0.21571
 Alpha virt. eigenvalues --    0.23344   0.23920   0.25042   0.26781   0.29785
 Alpha virt. eigenvalues --    0.31786   0.33601   0.33796   0.36197   0.42717
 Alpha virt. eigenvalues --    0.67224   0.71074   0.74560   0.77204   0.81172
 Alpha virt. eigenvalues --    0.87008   0.91882   0.92533   0.94447   0.96740
 Alpha virt. eigenvalues --    0.97436   1.00475   1.00805   1.02447   1.03373
 Alpha virt. eigenvalues --    1.06988   1.12263   1.13219   1.28172   1.28823
 Alpha virt. eigenvalues --    1.33909   1.35659   1.38404   1.39254   1.49410
 Alpha virt. eigenvalues --    1.52606   1.54048   1.56163   1.69759   1.74988
 Alpha virt. eigenvalues --    1.77571   1.81552   1.90007   1.97009   1.98906
 Alpha virt. eigenvalues --    2.02631   2.07114   2.08962   2.15890   2.24063
 Alpha virt. eigenvalues --    2.33792   2.35816   2.38763   2.43251   2.47569
 Alpha virt. eigenvalues --    2.48831   2.49298   2.58939   2.59982   2.67743
 Alpha virt. eigenvalues --    2.71559   2.80102   2.80604   2.98727   3.11163
 Alpha virt. eigenvalues --    3.28205   3.48722   3.84828   4.11627   4.17208
 Alpha virt. eigenvalues --    4.29429   4.52607
          Condensed to atoms (all electrons):
               1          2          3          4          5          6
     1  N    6.658081   0.252426  -0.079387   0.042509   0.264015   0.004906
     2  N    0.252426   6.526251   0.355566  -0.150788   0.020183  -0.021857
     3  C   -0.079387   0.355566   5.283345   0.333818  -0.075546   0.344283
     4  C    0.042509  -0.150788   0.333818   5.345920   0.287374   0.001668
     5  N    0.264015   0.020183  -0.075546   0.287374   6.728136  -0.000574
     6  H    0.004906  -0.021857   0.344283   0.001668  -0.000574   0.403589
     7  H    0.005462   0.000699  -0.013305   0.360246  -0.023010   0.000725
     8  H   -0.001882   0.280551   0.002970  -0.002202   0.000039   0.000271
               7          8
     1  N    0.005462  -0.001882
     2  N    0.000699   0.280551
     3  C   -0.013305   0.002970
     4  C    0.360246  -0.002202
     5  N   -0.023010   0.000039
     6  H    0.000725   0.000271
     7  H    0.412365  -0.000010
     8  H   -0.000010   0.264012
 Mulliken charges:
               1
     1  N   -0.146130
     2  N   -0.263032
     3  C   -0.151744
     4  C   -0.218545
     5  N   -0.200617
     6  H    0.266988
     7  H    0.256829
     8  H    0.456251
 Sum of Mulliken charges =  -0.00000
 Mulliken charges with hydrogens summed into heavy atoms:
               1
     1  N   -0.146130
     2  N    0.193219
     3  C    0.115244
     4  C    0.038284
     5  N   -0.200617
 Electronic spatial extent (au):  <R**2>=            316.9573
 Charge=             -0.0000 electrons
 Dipole moment (field-independent basis, Debye):
    X=              3.0087    Y=              6.1461    Z=              0.0008  Tot=              6.8430
 Quadrupole moment (field-independent basis, Debye-Ang):
   XX=            -19.7348   YY=            -30.9012   ZZ=            -33.0548
   XY=             -1.5724   XZ=              0.0011   YZ=              0.0006
 Traceless Quadrupole moment (field-independent basis, Debye-Ang):
   XX=              8.1621   YY=             -3.0042   ZZ=             -5.1579
   XY=             -1.5724   XZ=              0.0011   YZ=              0.0006
 Octapole moment (field-independent basis, Debye-Ang**2):
  XXX=             22.6622  YYY=             24.3782  ZZZ=              0.0013  XYY=              2.2499
  XXY=             11.1165  XXZ=              0.0048  XZZ=              1.9953  YZZ=             -0.4321
  YYZ=              0.0016  XYZ=             -0.0003
 Hexadecapole moment (field-independent basis, Debye-Ang**3):
 XXXX=           -122.3370 YYYY=           -182.5521 ZZZZ=            -38.2440 XXXY=            -13.4012
 XXXZ=              0.0057 YYYX=              2.8255 YYYZ=              0.0023 ZZZX=              0.0001
 ZZZY=              0.0009 XXYY=            -68.5910 XXZZ=            -44.2845 YYZZ=            -43.2723
 XXYZ=              0.0022 YYXZ=              0.0012 ZZXY=              0.2699
 N-N= 1.482617319178D+02 E-N=-8.587335545762D+02  KE= 2.381942442061D+02
 D1PCM: PCM CHGder 1st derivatives, ID1Alg=3 FixD1E=F DoIter=F DoCFld=F I1PDM=0.
 Calling FoFJK, ICntrl=      2127 FMM=F ISym2X=0 I1Cent= 0 IOpClX= 0 NMat=1 NMatS=1 NMatT=0.
 ***** Axes restored to original set *****
 -------------------------------------------------------------------
 Center     Atomic                   Forces (Hartrees/Bohr)
 Number     Number              X              Y              Z
 -------------------------------------------------------------------
      1        7           0.085858594    0.015402811    0.000111244
      2        7           0.043240781    0.101031616   -0.000021682
      3        6          -0.051694964    0.046689201    0.000002427
      4        6          -0.072898412   -0.072290690    0.000051228
      5        7           0.035079590   -0.141459197   -0.000102495
      6        1          -0.034427901    0.015486862   -0.000013220
      7        1          -0.033157205   -0.018510772   -0.000020413
      8        1           0.027999515    0.053650168   -0.000007088
 -------------------------------------------------------------------
 Cartesian Forces:  Max     0.141459197 RMS     0.051173424

 GradGradGradGradGradGradGradGradGradGradGradGradGradGradGradGradGradGrad
 Berny optimization.
 FormGI is forming the generalized inverse of G from B-inverse, IUseBI=4.
 Internal  Forces:  Max     0.122461017 RMS     0.047277391
 Search for a local minimum.
 Step number   1 out of a maximum of   42
 All quantities printed in internal units (Hartrees-Bohrs-Radians)
 Mixed Optimization -- RFO/linear search
 Second derivative matrix not updated -- first step.
 ITU=  0
     Eigenvalues ---    0.00250   0.00273   0.00330   0.00338   0.00367
     Eigenvalues ---    0.16000   0.16000   0.16000   0.22156   0.23876
     Eigenvalues ---    0.29012   0.29618   0.29623   0.30478   0.31562
     Eigenvalues ---    0.32600   0.32651   0.33181
 RFO step:  Lambda=-1.53546601D-01 EMin= 2.49521428D-03
 Linear search not attempted -- first point.
 Maximum step size (   0.300) exceeded in Quadratic search.
    -- Step size scaled by   0.522
 Iteration  1 RMS(Cart)=  0.06636374 RMS(Int)=  0.00065656
 Iteration  2 RMS(Cart)=  0.00069779 RMS(Int)=  0.00001669
 Iteration  3 RMS(Cart)=  0.00000040 RMS(Int)=  0.00001669
 Variable       Old X    -DE/DX   Delta X   Delta X   Delta X     New X
                                 (Linear)    (Quad)   (Total)
    R1        2.81577  -0.09575   0.00000  -0.10334  -0.10331   2.71246
    R2        2.81599  -0.12246   0.00000  -0.13162  -0.13162   2.68437
    R3        2.84638  -0.11500   0.00000  -0.12731  -0.12730   2.71909
    R4        2.09760  -0.06050   0.00000  -0.06579  -0.06579   2.03180
    R5        2.88699  -0.12199   0.00000  -0.14030  -0.14032   2.74667
    R6        2.15433  -0.03693   0.00000  -0.04283  -0.04283   2.11149
    R7        2.84636  -0.09584   0.00000  -0.10555  -0.10558   2.74078
    R8        2.15422  -0.03773   0.00000  -0.04376  -0.04376   2.11046
    A1        1.95316  -0.03123   0.00000  -0.04349  -0.04345   1.90971
    A2        1.84716   0.03215   0.00000   0.04351   0.04354   1.89070
    A3        2.09783  -0.01437   0.00000  -0.01892  -0.01894   2.07890
    A4        2.33819  -0.01778   0.00000  -0.02459  -0.02461   2.31359
    A5        1.88865  -0.02081   0.00000  -0.02778  -0.02779   1.86086
    A6        2.19725   0.00199   0.00000  -0.00010  -0.00009   2.19716
    A7        2.19728   0.01881   0.00000   0.02788   0.02789   2.22517
    A8        1.88875   0.00522   0.00000   0.00923   0.00919   1.89794
    A9        2.19714   0.00198   0.00000   0.00303   0.00305   2.20019
   A10        2.19729  -0.00721   0.00000  -0.01226  -0.01224   2.18505
   A11        1.84705   0.01466   0.00000   0.01854   0.01851   1.86556
    D1       -0.00046   0.00002   0.00000   0.00007   0.00007  -0.00038
    D2        3.14118   0.00002   0.00000   0.00006   0.00006   3.14124
    D3        0.00057  -0.00003   0.00000  -0.00010  -0.00010   0.00047
    D4        0.00015  -0.00000   0.00000  -0.00002  -0.00002   0.00013
    D5       -3.14159  -0.00000   0.00000  -0.00001  -0.00001   3.14159
    D6       -3.14149   0.00000   0.00000   0.00000   0.00000  -3.14149
    D7       -0.00005   0.00000   0.00000   0.00001   0.00001  -0.00004
    D8        0.00019  -0.00001   0.00000  -0.00003  -0.00003   0.00016
    D9        3.14123   0.00000   0.00000   0.00002   0.00002   3.14125
   D10       -3.14126  -0.00001   0.00000  -0.00004  -0.00004  -3.14129
   D11       -0.00022   0.00000   0.00000   0.00002   0.00002  -0.00020
   D12       -0.00045   0.00001   0.00000   0.00006   0.00006  -0.00039
   D13       -3.14149  -0.00000   0.00000   0.00001   0.00001  -3.14149
         Item               Value     Threshold  Converged?
 Maximum Force            0.122461     0.000450     NO 
 RMS     Force            0.047277     0.000300     NO 
 Maximum Displacement     0.172604     0.001800     NO 
 RMS     Displacement     0.066293     0.001200     NO 
 Predicted change in Energy=-6.610832D-02
 GradGradGradGradGradGradGradGradGradGradGradGradGradGradGradGradGradGrad

                          Input orientation:                          
 ---------------------------------------------------------------------
 Center     Atomic      Atomic             Coordinates (Angstroms)
 Number     Number       Type             X           Y           Z
 ---------------------------------------------------------------------
      1          7           0       -3.237412    0.574659   -0.000146
      2          7           0       -2.408348   -0.597067    0.000164
      3          6           0       -1.031992   -0.177523    0.000396
      4          6           0       -1.040442    1.275928    0.000404
      5          7           0       -2.416566    1.733993    0.000395
      6          1           0       -0.141510   -0.852445    0.000665
      7          1           0       -0.141470    1.938584    0.000867
      8          1           0       -2.873026   -1.566652    0.000161
 ---------------------------------------------------------------------
                    Distance matrix (angstroms):
                    1          2          3          4          5
     1  N    0.000000
     2  N    1.435371   0.000000
     3  C    2.330162   1.438878   0.000000
     4  C    2.306178   2.319326   1.453475   0.000000
     5  N    1.420509   2.331074   2.360283   1.450359   0.000000
     6  H    3.408994   2.281178   1.117354   2.310422   3.444640
     7  H    3.383068   3.401214   2.295852   1.116810   2.284276
     8  H    2.172094   1.075185   2.306314   3.382103   3.332059
                    6          7          8
     6  H    0.000000
     7  H    2.791029   0.000000
     8  H    2.823344   4.443881   0.000000
 Stoichiometry    C2H3N3
 Framework group  C1[X(C2H3N3)]
 Deg. of freedom    18
 Full point group                 C1      NOp   1
 Largest Abelian subgroup         C1      NOp   1
 Largest concise Abelian subgroup C1      NOp   1
                         Standard orientation:                         
 ---------------------------------------------------------------------
 Center     Atomic      Atomic             Coordinates (Angstroms)
 Number     Number       Type             X           Y           Z
 ---------------------------------------------------------------------
      1          7           0        0.535340   -1.117119   -0.000144
      2          7           0        1.159513    0.175435    0.000058
      3          6           0        0.126305    1.176861   -0.000033
      4          6           0       -1.141528    0.466096   -0.000111
      5          7           0       -0.876434   -0.959830    0.000150
      6          1           0        0.286001    2.282744    0.000085
      7          1           0       -2.156464    0.932111    0.000118
      8          1           0        2.232875    0.238006    0.000214
 ---------------------------------------------------------------------
 Rotational constants (GHZ):           9.0479180           8.5068528           4.3845237
 Standard basis: 6-31+G(d,p) (6D, 7F)
 There are   110 symmetry adapted cartesian basis functions of A   symmetry.
 There are   110 symmetry adapted basis functions of A   symmetry.
   110 basis functions,   181 primitive gaussians,   110 cartesian basis functions
    18 alpha electrons       18 beta electrons
       nuclear repulsion energy       154.6010701646 Hartrees.
 NAtoms=    8 NActive=    8 NUniq=    8 SFac= 1.00D+00 NAtFMM=   60 NAOKFM=F Big=F
 Integral buffers will be    131072 words long.
 Raffenetti 2 integral format.
 Two-electron integral symmetry is turned on.
 ------------------------------------------------------------------------------
 Polarizable Continuum Model (PCM)
 =================================
 Model                : PCM.
 Atomic radii         : SMD-Coulomb.
 Polarization charges : Total charges.
 Charge compensation  : None.
 Solution method      : On-the-fly selection.
 Cavity type          : VdW (van der Waals Surface) (Alpha=1.000).
 Cavity algorithm     : GePol (No added spheres)
                        Default sphere list used, NSphG=    8.
                        Lebedev-Laikov grids with approx.  5.0 points / Ang**2.
                        Smoothing algorithm: York/Karplus (Gamma=1.0000).
                        Polarization charges: spherical gaussians, with
                                              point-specific exponents (IZeta= 3).
                        Self-potential: point-specific (ISelfS= 7).
                        Self-field    : sphere-specific E.n sum rule (ISelfD= 2).
 1st derivatives      : Analytical E(r).r(x)/FMM algorithm (CHGder, D1EAlg=3).
                        Cavity 1st derivative terms included.
 Solvent              : Water, Eps=  78.355300 Eps(inf)=   1.777849
 ------------------------------------------------------------------------------
 Spheres list:
 ISph  on   Nord     Re0    Alpha      Xe            Ye            Ze
    1   N      1    1.8900  1.000      0.535340     -1.117119     -0.000144
    2   N      2    1.8900  1.000      1.159513      0.175435      0.000058
    3   C      3    1.8500  1.000      0.126305      1.176861     -0.000033
    4   C      4    1.8500  1.000     -1.141528      0.466096     -0.000111
    5   N      5    1.8900  1.000     -0.876434     -0.959830      0.000150
    6   H      6    1.2000  1.000      0.286001      2.282744      0.000085
    7   H      7    1.2000  1.000     -2.156464      0.932111      0.000118
    8   H      8    1.2000  1.000      2.232875      0.238006      0.000214
 ------------------------------------------------------------------------------
 ------------------------------------------------------------------------------
 Atomic radii for non-electrostatic terms: SMD-CDS.
 ------------------------------------------------------------------------------
 Nuclear repulsion after PCM non-electrostatic terms =      154.6040782067 Hartrees.
 One-electron integrals computed using PRISM.
 NBasis=   110 RedAO= T EigKep=  1.08D-04  NBF=   110
 NBsUse=   110 1.00D-06 EigRej= -1.00D+00 NBFU=   110
 Initial guess from the checkpoint file:  "/scratch/gongke2021/1-H-Tz-opt/Gau-26007.chk"
 B after Tr=    -0.000000    0.000000   -0.000000
         Rot=    0.999649    0.000001    0.000000   -0.026511 Ang=   3.04 deg.
 ExpMin= 4.38D-02 ExpMax= 4.17D+03 ExpMxC= 6.27D+02 IAcc=2 IRadAn=         4 AccDes= 0.00D+00
 Harris functional with IExCor= 1009 and IRadAn=       4 diagonalized for initial guess.
 HarFok:  IExCor= 1009 AccDes= 0.00D+00 IRadAn=         4 IDoV= 1 UseB2=F ITyADJ=14
 ICtDFT=  3500011 ScaDFX=  1.000000  1.000000  1.000000  1.000000
 FoFCou: FMM=F IPFlag=           0 FMFlag=      100000 FMFlg1=           0
         NFxFlg=           0 DoJE=T BraDBF=F KetDBF=T FulRan=T
         wScrn=  0.000000 ICntrl=       500 IOpCl=  0 I1Cent=   200000004 NGrid=           0
         NMat0=    1 NMatS0=      1 NMatT0=    0 NMatD0=    1 NMtDS0=    0 NMtDT0=    0
 Petite list used in FoFCou.
 Keep R1 ints in memory in canonical form, NReq=37326157.
 Requested convergence on RMS density matrix=1.00D-08 within 128 cycles.
 Requested convergence on MAX density matrix=1.00D-06.
 Requested convergence on             energy=1.00D-06.
 No special actions if energy rises.
 Inv3:  Mode=1 IEnd=     2041875.
 Iteration    1 A*A^-1 deviation from unit magnitude is 2.89D-15 for    809.
 Iteration    1 A*A^-1 deviation from orthogonality  is 1.62D-15 for    206      8.
 Iteration    1 A^-1*A deviation from unit magnitude is 2.66D-15 for    809.
 Iteration    1 A^-1*A deviation from orthogonality  is 1.28D-15 for    654    241.
 Error on total polarization charges =  0.02551
 SCF Done:  E(RM062X) =  -242.108873159     A.U. after   13 cycles
            NFock= 13  Conv=0.23D-08     -V/T= 2.0137
 SMD-CDS (non-electrostatic) energy       (kcal/mol) =       1.89
 (included in total energy above)
 D1PCM: PCM CHGder 1st derivatives, ID1Alg=3 FixD1E=F DoIter=F DoCFld=F I1PDM=0.
 Calling FoFJK, ICntrl=      2127 FMM=F ISym2X=0 I1Cent= 0 IOpClX= 0 NMat=1 NMatS=1 NMatT=0.
 ***** Axes restored to original set *****
 -------------------------------------------------------------------
 Center     Atomic                   Forces (Hartrees/Bohr)
 Number     Number              X              Y              Z
 -------------------------------------------------------------------
      1        7           0.076503759    0.014413283    0.000096487
      2        7           0.022570053    0.071437828   -0.000023749
      3        6          -0.039729569    0.029139198    0.000002212
      4        6          -0.051551974   -0.044798666    0.000046630
      5        7           0.018583093   -0.106728986   -0.000087861
      6        1          -0.024114717    0.009490753   -0.000010038
      7        1          -0.023254645   -0.010951164   -0.000016739
      8        1           0.020994001    0.037997754   -0.000006943
 -------------------------------------------------------------------
 Cartesian Forces:  Max     0.106728986 RMS     0.037482608

 GradGradGradGradGradGradGradGradGradGradGradGradGradGradGradGradGradGrad
 Berny optimization.
 Using GEDIIS/GDIIS optimizer.
 FormGI is forming the generalized inverse of G from B-inverse, IUseBI=4.
 Internal  Forces:  Max     0.095277339 RMS     0.033917492
 Search for a local minimum.
 Step number   2 out of a maximum of   42
 All quantities printed in internal units (Hartrees-Bohrs-Radians)
 Mixed Optimization -- RFO/linear search
 Update second derivatives using D2CorX and points    1    2
 DE= -6.95D-02 DEPred=-6.61D-02 R= 1.05D+00
 TightC=F SS=  1.41D+00  RLast= 3.00D-01 DXNew= 5.0454D-01 9.0000D-01
 Trust test= 1.05D+00 RLast= 3.00D-01 DXMaxT set to 5.05D-01
 ITU=  1  0
 Use linear search instead of GDIIS.
     Eigenvalues ---    0.00250   0.00273   0.00330   0.00338   0.00368
     Eigenvalues ---    0.15793   0.16000   0.16006   0.22339   0.23603
     Eigenvalues ---    0.24179   0.29597   0.29620   0.30280   0.31251
     Eigenvalues ---    0.32400   0.33049   0.33387
 RFO step:  Lambda=-6.15683829D-03 EMin= 2.50341595D-03
 Quartic linear search produced a step of  1.49646.
 Iteration  1 RMS(Cart)=  0.09652592 RMS(Int)=  0.01304044
 Iteration  2 RMS(Cart)=  0.01065710 RMS(Int)=  0.00043918
 Iteration  3 RMS(Cart)=  0.00004011 RMS(Int)=  0.00043741
 Iteration  4 RMS(Cart)=  0.00000001 RMS(Int)=  0.00043741
 Variable       Old X    -DE/DX   Delta X   Delta X   Delta X     New X
                                 (Linear)    (Quad)   (Total)
    R1        2.71246  -0.07325  -0.15460  -0.05264  -0.20666   2.50580
    R2        2.68437  -0.09528  -0.19696  -0.07949  -0.27585   2.40853
    R3        2.71909  -0.08156  -0.19049  -0.01050  -0.20120   2.51789
    R4        2.03180  -0.04334  -0.09846  -0.01034  -0.10879   1.92301
    R5        2.74667  -0.07906  -0.20998   0.05580  -0.15491   2.59175
    R6        2.11149  -0.02495  -0.06410   0.00790  -0.05620   2.05529
    R7        2.74078  -0.06973  -0.15799  -0.02356  -0.18175   2.55903
    R8        2.11046  -0.02521  -0.06548   0.01036  -0.05511   2.05535
    A1        1.90971  -0.01578  -0.06502   0.06147  -0.00220   1.90752
    A2        1.89070   0.01980   0.06516  -0.03646   0.02889   1.91960
    A3        2.07890  -0.00737  -0.02834   0.03684   0.00841   2.08731
    A4        2.31359  -0.01243  -0.03683  -0.00038  -0.03730   2.27628
    A5        1.86086  -0.01515  -0.04159   0.00637  -0.03620   1.82466
    A6        2.19716   0.00016  -0.00014  -0.01905  -0.01870   2.17846
    A7        2.22517   0.01499   0.04173   0.01268   0.05490   2.28006
    A8        1.89794   0.00083   0.01375  -0.02842  -0.01561   1.88233
    A9        2.20019   0.00482   0.00456   0.04067   0.04571   2.24590
   A10        2.18505  -0.00565  -0.01832  -0.01226  -0.03010   2.15495
   A11        1.86556   0.01030   0.02770  -0.00296   0.02511   1.89067
    D1       -0.00038   0.00002   0.00011   0.00042   0.00053   0.00014
    D2        3.14124   0.00002   0.00008   0.00033   0.00041  -3.14154
    D3        0.00047  -0.00003  -0.00015  -0.00047  -0.00061  -0.00014
    D4        0.00013  -0.00001  -0.00003  -0.00019  -0.00022  -0.00009
    D5        3.14159  -0.00000  -0.00002  -0.00004  -0.00005   3.14153
    D6       -3.14149  -0.00000   0.00000  -0.00009  -0.00009  -3.14158
    D7       -0.00004   0.00000   0.00001   0.00007   0.00008   0.00004
    D8        0.00016  -0.00001  -0.00005  -0.00012  -0.00016   0.00000
    D9        3.14125   0.00001   0.00003   0.00036   0.00041  -3.14153
   D10       -3.14129  -0.00001  -0.00005  -0.00027  -0.00033   3.14157
   D11       -0.00020   0.00000   0.00002   0.00021   0.00024   0.00004
   D12       -0.00039   0.00002   0.00009   0.00038   0.00047   0.00008
   D13       -3.14149  -0.00000   0.00001  -0.00012  -0.00008  -3.14157
         Item               Value     Threshold  Converged?
 Maximum Force            0.095277     0.000450     NO 
 RMS     Force            0.033917     0.000300     NO 
 Maximum Displacement     0.252590     0.001800     NO 
 RMS     Displacement     0.103122     0.001200     NO 
 Predicted change in Energy=-6.458867D-02
 GradGradGradGradGradGradGradGradGradGradGradGradGradGradGradGradGradGrad

                          Input orientation:                          
 ---------------------------------------------------------------------
 Center     Atomic      Atomic             Coordinates (Angstroms)
 Number     Number       Type             X           Y           Z
 ---------------------------------------------------------------------
      1          7           0       -3.121487    0.570864    0.000099
      2          7           0       -2.355789   -0.511733    0.000153
      3          6           0       -1.070521   -0.160454    0.000494
      4          6           0       -1.088261    1.210929    0.000537
      5          7           0       -2.382515    1.609309    0.000222
      6          1           0       -0.236105   -0.858059    0.000661
      7          1           0       -0.248064    1.901610    0.000719
      8          1           0       -2.788025   -1.432987    0.000021
 ---------------------------------------------------------------------
                    Distance matrix (angstroms):
                    1          2          3          4          5
     1  N    0.000000
     2  N    1.326013   0.000000
     3  C    2.177450   1.332408   0.000000
     4  C    2.131594   2.138735   1.371498   0.000000
     5  N    1.274538   2.121210   2.203041   1.354179   0.000000
     6  H    3.219822   2.147790   1.087613   2.237606   3.270318
     7  H    3.166614   3.204173   2.220032   1.087645   2.154372
     8  H    2.031408   1.017614   2.137560   3.143166   3.069202
                    6          7          8
     6  H    0.000000
     7  H    2.759695   0.000000
     8  H    2.615882   4.191771   0.000000
 Stoichiometry    C2H3N3
 Framework group  C1[X(C2H3N3)]
 Deg. of freedom    18
 Full point group                 C1      NOp   1
 Largest Abelian subgroup         C1      NOp   1
 Largest concise Abelian subgroup C1      NOp   1
                         Standard orientation:                         
 ---------------------------------------------------------------------
 Center     Atomic      Atomic             Coordinates (Angstroms)
 Number     Number       Type             X           Y           Z
 ---------------------------------------------------------------------
      1          7           0        0.407126   -1.070662    0.000045
      2          7           0        1.066020    0.080064   -0.000031
      3          6           0        0.205647    1.097447    0.000015
      4          6           0       -1.030436    0.503221    0.000012
      5          7           0       -0.846061   -0.838348   -0.000032
      6          1           0        0.486463    2.148182    0.000023
      7          1           0       -2.010947    0.973933   -0.000015
      8          1           0        2.083627    0.076491   -0.000034
 ---------------------------------------------------------------------
 Rotational constants (GHZ):          10.3966204          10.0029189           5.0979853
 Standard basis: 6-31+G(d,p) (6D, 7F)
 There are   110 symmetry adapted cartesian basis functions of A   symmetry.
 There are   110 symmetry adapted basis functions of A   symmetry.
   110 basis functions,   181 primitive gaussians,   110 cartesian basis functions
    18 alpha electrons       18 beta electrons
       nuclear repulsion energy       166.6475584201 Hartrees.
 NAtoms=    8 NActive=    8 NUniq=    8 SFac= 1.00D+00 NAtFMM=   60 NAOKFM=F Big=F
 Integral buffers will be    131072 words long.
 Raffenetti 2 integral format.
 Two-electron integral symmetry is turned on.
 ------------------------------------------------------------------------------
 Polarizable Continuum Model (PCM)
 =================================
 Model                : PCM.
 Atomic radii         : SMD-Coulomb.
 Polarization charges : Total charges.
 Charge compensation  : None.
 Solution method      : On-the-fly selection.
 Cavity type          : VdW (van der Waals Surface) (Alpha=1.000).
 Cavity algorithm     : GePol (No added spheres)
                        Default sphere list used, NSphG=    8.
                        Lebedev-Laikov grids with approx.  5.0 points / Ang**2.
                        Smoothing algorithm: York/Karplus (Gamma=1.0000).
                        Polarization charges: spherical gaussians, with
                                              point-specific exponents (IZeta= 3).
                        Self-potential: point-specific (ISelfS= 7).
                        Self-field    : sphere-specific E.n sum rule (ISelfD= 2).
 1st derivatives      : Analytical E(r).r(x)/FMM algorithm (CHGder, D1EAlg=3).
                        Cavity 1st derivative terms included.
 Solvent              : Water, Eps=  78.355300 Eps(inf)=   1.777849
 ------------------------------------------------------------------------------
 Spheres list:
 ISph  on   Nord     Re0    Alpha      Xe            Ye            Ze
    1   N      1    1.8900  1.000      0.407126     -1.070662      0.000045
    2   N      2    1.8900  1.000      1.066020      0.080064     -0.000031
    3   C      3    1.8500  1.000      0.205647      1.097447      0.000015
    4   C      4    1.8500  1.000     -1.030436      0.503221      0.000012
    5   N      5    1.8900  1.000     -0.846061     -0.838348     -0.000032
    6   H      6    1.2000  1.000      0.486463      2.148182      0.000023
    7   H      7    1.2000  1.000     -2.010947      0.973933     -0.000015
    8   H      8    1.2000  1.000      2.083627      0.076491     -0.000034
 ------------------------------------------------------------------------------
 ------------------------------------------------------------------------------
 Atomic radii for non-electrostatic terms: SMD-CDS.
 ------------------------------------------------------------------------------
 Nuclear repulsion after PCM non-electrostatic terms =      166.6500782475 Hartrees.
 One-electron integrals computed using PRISM.
 NBasis=   110 RedAO= T EigKep=  7.33D-05  NBF=   110
 NBsUse=   110 1.00D-06 EigRej= -1.00D+00 NBFU=   110
 Initial guess from the checkpoint file:  "/scratch/gongke2021/1-H-Tz-opt/Gau-26007.chk"
 B after Tr=     0.000000    0.000000   -0.000000
         Rot=    0.999388   -0.000000   -0.000000    0.034980 Ang=  -4.01 deg.
 ExpMin= 4.38D-02 ExpMax= 4.17D+03 ExpMxC= 6.27D+02 IAcc=2 IRadAn=         4 AccDes= 0.00D+00
 Harris functional with IExCor= 1009 and IRadAn=       4 diagonalized for initial guess.
 HarFok:  IExCor= 1009 AccDes= 0.00D+00 IRadAn=         4 IDoV= 1 UseB2=F ITyADJ=14
 ICtDFT=  3500011 ScaDFX=  1.000000  1.000000  1.000000  1.000000
 FoFCou: FMM=F IPFlag=           0 FMFlag=      100000 FMFlg1=           0
         NFxFlg=           0 DoJE=T BraDBF=F KetDBF=T FulRan=T
         wScrn=  0.000000 ICntrl=       500 IOpCl=  0 I1Cent=   200000004 NGrid=           0
         NMat0=    1 NMatS0=      1 NMatT0=    0 NMatD0=    1 NMtDS0=    0 NMtDT0=    0
 Petite list used in FoFCou.
 Keep R1 ints in memory in canonical form, NReq=37326157.
 Requested convergence on RMS density matrix=1.00D-08 within 128 cycles.
 Requested convergence on MAX density matrix=1.00D-06.
 Requested convergence on             energy=1.00D-06.
 No special actions if energy rises.
 Inv3:  Mode=1 IEnd=     1958592.
 Iteration    1 A*A^-1 deviation from unit magnitude is 4.00D-15 for    792.
 Iteration    1 A*A^-1 deviation from orthogonality  is 1.53D-15 for    806    583.
 Iteration    1 A^-1*A deviation from unit magnitude is 4.00D-15 for    792.
 Iteration    1 A^-1*A deviation from orthogonality  is 1.49D-15 for    716    621.
 Error on total polarization charges =  0.02453
 SCF Done:  E(RM062X) =  -242.155469864     A.U. after   13 cycles
            NFock= 13  Conv=0.70D-08     -V/T= 2.0079
 SMD-CDS (non-electrostatic) energy       (kcal/mol) =       1.58
 (included in total energy above)
 D1PCM: PCM CHGder 1st derivatives, ID1Alg=3 FixD1E=F DoIter=F DoCFld=F I1PDM=0.
 Calling FoFJK, ICntrl=      2127 FMM=F ISym2X=0 I1Cent= 0 IOpClX= 0 NMat=1 NMatS=1 NMatT=0.
 ***** Axes restored to original set *****
 -------------------------------------------------------------------
 Center     Atomic                   Forces (Hartrees/Bohr)
 Number     Number              X              Y              Z
 -------------------------------------------------------------------
      1        7          -0.038255395   -0.016374327   -0.000030592
      2        7          -0.006821019   -0.001867177    0.000013651
      3        6           0.027631533   -0.005607901    0.000000608
      4        6           0.015012865    0.004109129   -0.000004386
      5        7           0.012751119    0.018728509    0.000020903
      6        1          -0.006989153    0.001788552   -0.000002302
      7        1          -0.006079470   -0.003051412   -0.000000586
      8        1           0.002749520    0.002274627    0.000002705
 -------------------------------------------------------------------
 Cartesian Forces:  Max     0.038255395 RMS     0.011977808

 GradGradGradGradGradGradGradGradGradGradGradGradGradGradGradGradGradGrad
 Berny optimization.
 Using GEDIIS/GDIIS optimizer.
 FormGI is forming the generalized inverse of G from B-inverse, IUseBI=4.
 Internal  Forces:  Max     0.027685030 RMS     0.007605964
 Search for a local minimum.
 Step number   3 out of a maximum of   42
 All quantities printed in internal units (Hartrees-Bohrs-Radians)
 Mixed Optimization -- RFO/linear search
 Update second derivatives using D2CorX and points    2    3
 DE= -4.66D-02 DEPred=-6.46D-02 R= 7.21D-01
 TightC=F SS=  1.41D+00  RLast= 4.95D-01 DXNew= 8.4853D-01 1.4855D+00
 Trust test= 7.21D-01 RLast= 4.95D-01 DXMaxT set to 8.49D-01
 ITU=  1  1  0
 Use linear search instead of GDIIS.
     Eigenvalues ---    0.00250   0.00272   0.00329   0.00340   0.00371
     Eigenvalues ---    0.15868   0.16001   0.16007   0.22457   0.23936
     Eigenvalues ---    0.29172   0.29620   0.29995   0.30981   0.31752
     Eigenvalues ---    0.32764   0.33108   0.46376
 RFO step:  Lambda=-3.73652661D-03 EMin= 2.50312634D-03
 Quartic linear search produced a step of -0.09191.
 Iteration  1 RMS(Cart)=  0.01893629 RMS(Int)=  0.00036942
 Iteration  2 RMS(Cart)=  0.00038373 RMS(Int)=  0.00010526
 Iteration  3 RMS(Cart)=  0.00000007 RMS(Int)=  0.00010526
 Variable       Old X    -DE/DX   Delta X   Delta X   Delta X     New X
                                 (Linear)    (Quad)   (Total)
    R1        2.50580   0.00914   0.01899  -0.00695   0.01222   2.51802
    R2        2.40853   0.02769   0.02535   0.03349   0.05888   2.46740
    R3        2.51789   0.01775   0.01849   0.01661   0.03519   2.55307
    R4        1.92301  -0.00323   0.01000  -0.02610  -0.01611   1.90691
    R5        2.59175   0.00262   0.01424  -0.02064  -0.00653   2.58522
    R6        2.05529  -0.00651   0.00517  -0.02945  -0.02429   2.03100
    R7        2.55903   0.01081   0.01671   0.00218   0.01873   2.57776
    R8        2.05535  -0.00663   0.00507  -0.02971  -0.02465   2.03071
    A1        1.90752  -0.01553   0.00020  -0.05755  -0.05708   1.85044
    A2        1.91960   0.00984  -0.00266   0.04524   0.04280   1.96239
    A3        2.08731  -0.00345  -0.00077  -0.01006  -0.01094   2.07637
    A4        2.27628  -0.00638   0.00343  -0.03519  -0.03186   2.24442
    A5        1.82466  -0.00160   0.00333  -0.01751  -0.01424   1.81041
    A6        2.17846  -0.00240   0.00172  -0.01714  -0.01539   2.16308
    A7        2.28006   0.00399  -0.00505   0.03465   0.02963   2.30970
    A8        1.88233   0.00054   0.00143  -0.00082   0.00035   1.88268
    A9        2.24590   0.00128  -0.00420   0.01666   0.01259   2.25849
   A10        2.15495  -0.00181   0.00277  -0.01584  -0.01294   2.14201
   A11        1.89067   0.00675  -0.00231   0.03064   0.02817   1.91884
    D1        0.00014  -0.00001  -0.00005   0.00004  -0.00002   0.00013
    D2       -3.14154  -0.00001  -0.00004   0.00041   0.00038  -3.14116
    D3       -0.00014   0.00001   0.00006  -0.00029  -0.00023  -0.00037
    D4       -0.00009   0.00001   0.00002   0.00023   0.00025   0.00016
    D5        3.14153   0.00000   0.00000   0.00037   0.00038  -3.14127
    D6       -3.14158  -0.00000   0.00001  -0.00020  -0.00019   3.14141
    D7        0.00004  -0.00000  -0.00001  -0.00006  -0.00006  -0.00002
    D8        0.00000  -0.00000   0.00001  -0.00040  -0.00038  -0.00038
    D9       -3.14153  -0.00000  -0.00004   0.00057   0.00054  -3.14099
   D10        3.14157   0.00000   0.00003  -0.00056  -0.00053   3.14104
   D11        0.00004  -0.00000  -0.00002   0.00041   0.00039   0.00043
   D12        0.00008  -0.00001  -0.00004   0.00044   0.00040   0.00048
   D13       -3.14157  -0.00000   0.00001  -0.00047  -0.00044   3.14117
         Item               Value     Threshold  Converged?
 Maximum Force            0.027685     0.000450     NO 
 RMS     Force            0.007606     0.000300     NO 
 Maximum Displacement     0.076153     0.001800     NO 
 RMS     Displacement     0.018976     0.001200     NO 
 Predicted change in Energy=-2.588451D-03
 GradGradGradGradGradGradGradGradGradGradGradGradGradGradGradGradGradGrad

                          Input orientation:                          
 ---------------------------------------------------------------------
 Center     Atomic      Atomic             Coordinates (Angstroms)
 Number     Number       Type             X           Y           Z
 ---------------------------------------------------------------------
      1          7           0       -3.161786    0.563348    0.000068
      2          7           0       -2.359027   -0.500173    0.000285
      3          6           0       -1.051680   -0.159412    0.000612
      4          6           0       -1.072690    1.208468    0.000806
      5          7           0       -2.377245    1.607060    0.000096
      6          1           0       -0.246183   -0.870949    0.000540
      7          1           0       -0.252908    1.903255    0.000577
      8          1           0       -2.769249   -1.422118   -0.000077
 ---------------------------------------------------------------------
                    Distance matrix (angstroms):
                    1          2          3          4          5
     1  N    0.000000
     2  N    1.332478   0.000000
     3  C    2.230455   1.351027   0.000000
     4  C    2.186436   2.138718   1.368042   0.000000
     5  N    1.305694   2.107311   2.208517   1.364090   0.000000
     6  H    3.249300   2.145131   1.074761   2.237653   3.268327
     7  H    3.202642   3.195654   2.211930   1.074603   2.144887
     8  H    2.023898   1.009092   2.131776   3.130223   3.054437
                    6          7          8
     6  H    0.000000
     7  H    2.774213   0.000000
     8  H    2.582567   4.170141   0.000000
 Stoichiometry    C2H3N3
 Framework group  C1[X(C2H3N3)]
 Deg. of freedom    18
 Full point group                 C1      NOp   1
 Largest Abelian subgroup         C1      NOp   1
 Largest concise Abelian subgroup C1      NOp   1
                         Standard orientation:                         
 ---------------------------------------------------------------------
 Center     Atomic      Atomic             Coordinates (Angstroms)
 Number     Number       Type             X           Y           Z
 ---------------------------------------------------------------------
      1          7           0        0.737123   -0.925987    0.000055
      2          7           0        0.987278    0.382799    0.000038
      3          6           0       -0.142470    1.123708   -0.000009
      4          6           0       -1.142775    0.190473    0.000195
      5          7           0       -0.563194   -1.044365   -0.000139
      6          1           0       -0.155178    2.198393   -0.000315
      7          1           0       -2.207977    0.332308   -0.000267
      8          1           0        1.946180    0.697079   -0.000209
 ---------------------------------------------------------------------
 Rotational constants (GHZ):          10.0999083           9.9934339           5.0231946
 Standard basis: 6-31+G(d,p) (6D, 7F)
 There are   110 symmetry adapted cartesian basis functions of A   symmetry.
 There are   110 symmetry adapted basis functions of A   symmetry.
   110 basis functions,   181 primitive gaussians,   110 cartesian basis functions
    18 alpha electrons       18 beta electrons
       nuclear repulsion energy       165.4240482237 Hartrees.
 NAtoms=    8 NActive=    8 NUniq=    8 SFac= 1.00D+00 NAtFMM=   60 NAOKFM=F Big=F
 Integral buffers will be    131072 words long.
 Raffenetti 2 integral format.
 Two-electron integral symmetry is turned on.
 ------------------------------------------------------------------------------
 Polarizable Continuum Model (PCM)
 =================================
 Model                : PCM.
 Atomic radii         : SMD-Coulomb.
 Polarization charges : Total charges.
 Charge compensation  : None.
 Solution method      : On-the-fly selection.
 Cavity type          : VdW (van der Waals Surface) (Alpha=1.000).
 Cavity algorithm     : GePol (No added spheres)
                        Default sphere list used, NSphG=    8.
                        Lebedev-Laikov grids with approx.  5.0 points / Ang**2.
                        Smoothing algorithm: York/Karplus (Gamma=1.0000).
                        Polarization charges: spherical gaussians, with
                                              point-specific exponents (IZeta= 3).
                        Self-potential: point-specific (ISelfS= 7).
                        Self-field    : sphere-specific E.n sum rule (ISelfD= 2).
 1st derivatives      : Analytical E(r).r(x)/FMM algorithm (CHGder, D1EAlg=3).
                        Cavity 1st derivative terms included.
 Solvent              : Water, Eps=  78.355300 Eps(inf)=   1.777849
 ------------------------------------------------------------------------------
 Spheres list:
 ISph  on   Nord     Re0    Alpha      Xe            Ye            Ze
    1   N      1    1.8900  1.000      0.737123     -0.925987      0.000055
    2   N      2    1.8900  1.000      0.987278      0.382799      0.000038
    3   C      3    1.8500  1.000     -0.142470      1.123708     -0.000009
    4   C      4    1.8500  1.000     -1.142775      0.190473      0.000195
    5   N      5    1.8900  1.000     -0.563194     -1.044365     -0.000139
    6   H      6    1.2000  1.000     -0.155178      2.198393     -0.000315
    7   H      7    1.2000  1.000     -2.207977      0.332308     -0.000267
    8   H      8    1.2000  1.000      1.946180      0.697079     -0.000209
 ------------------------------------------------------------------------------
 ------------------------------------------------------------------------------
 Atomic radii for non-electrostatic terms: SMD-CDS.
 ------------------------------------------------------------------------------
 Nuclear repulsion after PCM non-electrostatic terms =      165.4265736631 Hartrees.
 One-electron integrals computed using PRISM.
 NBasis=   110 RedAO= T EigKep=  7.50D-05  NBF=   110
 NBsUse=   110 1.00D-06 EigRej= -1.00D+00 NBFU=   110
 Initial guess from the checkpoint file:  "/scratch/gongke2021/1-H-Tz-opt/Gau-26007.chk"
 B after Tr=     0.000000   -0.000000    0.000000
         Rot=    0.988764   -0.000000   -0.000000   -0.149482 Ang= -17.19 deg.
 ExpMin= 4.38D-02 ExpMax= 4.17D+03 ExpMxC= 6.27D+02 IAcc=2 IRadAn=         4 AccDes= 0.00D+00
 Harris functional with IExCor= 1009 and IRadAn=       4 diagonalized for initial guess.
 HarFok:  IExCor= 1009 AccDes= 0.00D+00 IRadAn=         4 IDoV= 1 UseB2=F ITyADJ=14
 ICtDFT=  3500011 ScaDFX=  1.000000  1.000000  1.000000  1.000000
 FoFCou: FMM=F IPFlag=           0 FMFlag=      100000 FMFlg1=           0
         NFxFlg=           0 DoJE=T BraDBF=F KetDBF=T FulRan=T
         wScrn=  0.000000 ICntrl=       500 IOpCl=  0 I1Cent=   200000004 NGrid=           0
         NMat0=    1 NMatS0=      1 NMatT0=    0 NMatD0=    1 NMtDS0=    0 NMtDT0=    0
 Petite list used in FoFCou.
 Keep R1 ints in memory in canonical form, NReq=37326157.
 Requested convergence on RMS density matrix=1.00D-08 within 128 cycles.
 Requested convergence on MAX density matrix=1.00D-06.
 Requested convergence on             energy=1.00D-06.
 No special actions if energy rises.
 Inv3:  Mode=1 IEnd=     1939248.
 Iteration    1 A*A^-1 deviation from unit magnitude is 4.44D-15 for    802.
 Iteration    1 A*A^-1 deviation from orthogonality  is 1.60D-15 for    338    118.
 Iteration    1 A^-1*A deviation from unit magnitude is 4.22D-15 for    802.
 Iteration    1 A^-1*A deviation from orthogonality  is 1.24D-15 for    354    234.
 Error on total polarization charges =  0.02414
 SCF Done:  E(RM062X) =  -242.156931669     A.U. after   11 cycles
            NFock= 11  Conv=0.71D-08     -V/T= 2.0085
 SMD-CDS (non-electrostatic) energy       (kcal/mol) =       1.58
 (included in total energy above)
 D1PCM: PCM CHGder 1st derivatives, ID1Alg=3 FixD1E=F DoIter=F DoCFld=F I1PDM=0.
 Calling FoFJK, ICntrl=      2127 FMM=F ISym2X=0 I1Cent= 0 IOpClX= 0 NMat=1 NMatS=1 NMatT=0.
 ***** Axes restored to original set *****
 -------------------------------------------------------------------
 Center     Atomic                   Forces (Hartrees/Bohr)
 Number     Number              X              Y              Z
 -------------------------------------------------------------------
      1        7           0.016035191    0.002512989   -0.000033349
      2        7           0.000206794   -0.001926301   -0.000001713
      3        6          -0.005059554   -0.002601125    0.000015693
      4        6          -0.009237302    0.001180366   -0.000088912
      5        7          -0.002927600    0.007166096    0.000070558
      6        1           0.000432655   -0.003621842    0.000011259
      7        1           0.001129941    0.002784305    0.000018536
      8        1          -0.000580125   -0.005494488    0.000007927
 -------------------------------------------------------------------
 Cartesian Forces:  Max     0.016035191 RMS     0.004560155

 GradGradGradGradGradGradGradGradGradGradGradGradGradGradGradGradGradGrad
 Berny optimization.
 Using GEDIIS/GDIIS optimizer.
 FormGI is forming the generalized inverse of G from B-inverse, IUseBI=4.
 Internal  Forces:  Max     0.011671896 RMS     0.003943129
 Search for a local minimum.
 Step number   4 out of a maximum of   42
 All quantities printed in internal units (Hartrees-Bohrs-Radians)
 Mixed Optimization -- RFO/linear search
 Update second derivatives using D2CorX and points    2    3    4
 DE= -1.46D-03 DEPred=-2.59D-03 R= 5.65D-01
 TightC=F SS=  1.41D+00  RLast= 1.24D-01 DXNew= 1.4270D+00 3.7190D-01
 Trust test= 5.65D-01 RLast= 1.24D-01 DXMaxT set to 8.49D-01
 ITU=  1  1  1  0
 Use linear search instead of GDIIS.
     Eigenvalues ---    0.00252   0.00272   0.00327   0.00341   0.00372
     Eigenvalues ---    0.13799   0.16003   0.16005   0.21914   0.26389
     Eigenvalues ---    0.28528   0.29620   0.30066   0.31523   0.31940
     Eigenvalues ---    0.32811   0.43315   0.57163
 RFO step:  Lambda=-5.33879574D-04 EMin= 2.51543874D-03
 Quartic linear search produced a step of -0.28538.
 Iteration  1 RMS(Cart)=  0.01093918 RMS(Int)=  0.00006978
 Iteration  2 RMS(Cart)=  0.00005354 RMS(Int)=  0.00003762
 Iteration  3 RMS(Cart)=  0.00000000 RMS(Int)=  0.00003762
 Variable       Old X    -DE/DX   Delta X   Delta X   Delta X     New X
                                 (Linear)    (Quad)   (Total)
    R1        2.51802  -0.00048  -0.00349   0.00554   0.00200   2.52002
    R2        2.46740  -0.00309  -0.01680   0.01787   0.00106   2.46846
    R3        2.55307  -0.00631  -0.01004   0.00026  -0.00981   2.54326
    R4        1.90691   0.00526   0.00460   0.00528   0.00987   1.91678
    R5        2.58522   0.00862   0.00186   0.01521   0.01711   2.60234
    R6        2.03100   0.00272   0.00693  -0.00299   0.00394   2.03495
    R7        2.57776  -0.00401  -0.00534  -0.00130  -0.00659   2.57116
    R8        2.03071   0.00266   0.00703  -0.00335   0.00369   2.03439
    A1        1.85044   0.01167   0.01629   0.00884   0.02504   1.87548
    A2        1.96239  -0.00631  -0.01221  -0.00125  -0.01353   1.94886
    A3        2.07637   0.00478   0.00312   0.01036   0.01351   2.08988
    A4        2.24442   0.00153   0.00909  -0.00911   0.00002   2.24444
    A5        1.81041   0.00009   0.00406  -0.00447  -0.00039   1.81002
    A6        2.16308  -0.00251   0.00439  -0.01541  -0.01102   2.15205
    A7        2.30970   0.00242  -0.00846   0.01988   0.01142   2.32111
    A8        1.88268   0.00349  -0.00010   0.01143   0.01140   1.89409
    A9        2.25849  -0.00033  -0.00359   0.00354  -0.00010   2.25839
   A10        2.14201  -0.00316   0.00369  -0.01497  -0.01132   2.13069
   A11        1.91884  -0.00894  -0.00804  -0.01455  -0.02254   1.89630
    D1        0.00013  -0.00001   0.00000  -0.00350  -0.00352  -0.00339
    D2       -3.14116  -0.00002  -0.00011  -0.00418  -0.00430   3.13772
    D3       -0.00037   0.00003   0.00007   0.00624   0.00630   0.00593
    D4        0.00016  -0.00001  -0.00007  -0.00061  -0.00068  -0.00052
    D5       -3.14127  -0.00001  -0.00011  -0.00091  -0.00099   3.14092
    D6        3.14141  -0.00000   0.00006   0.00015   0.00019  -3.14158
    D7       -0.00002  -0.00000   0.00002  -0.00014  -0.00012  -0.00014
    D8       -0.00038   0.00002   0.00011   0.00434   0.00449   0.00411
    D9       -3.14099  -0.00002  -0.00015  -0.00289  -0.00302   3.13918
   D10        3.14104   0.00002   0.00015   0.00466   0.00484  -3.13731
   D11        0.00043  -0.00001  -0.00011  -0.00256  -0.00268  -0.00225
   D12        0.00048  -0.00003  -0.00011  -0.00681  -0.00687  -0.00638
   D13        3.14117   0.00000   0.00013  -0.00016  -0.00001   3.14116
         Item               Value     Threshold  Converged?
 Maximum Force            0.011672     0.000450     NO 
 RMS     Force            0.003943     0.000300     NO 
 Maximum Displacement     0.029414     0.001800     NO 
 RMS     Displacement     0.010936     0.001200     NO 
 Predicted change in Energy=-5.367676D-04
 GradGradGradGradGradGradGradGradGradGradGradGradGradGradGradGradGradGrad

                          Input orientation:                          
 ---------------------------------------------------------------------
 Center     Atomic      Atomic             Coordinates (Angstroms)
 Number     Number       Type             X           Y           Z
 ---------------------------------------------------------------------
      1          7           0       -3.146927    0.567923   -0.001249
      2          7           0       -2.355805   -0.505598   -0.000283
      3          6           0       -1.054180   -0.163479    0.000209
      4          6           0       -1.078690    1.213400   -0.001217
      5          7           0       -2.376286    1.622625    0.002827
      6          1           0       -0.253551   -0.883611    0.001599
      7          1           0       -0.259054    1.911369    0.000610
      8          1           0       -2.766271   -1.433151    0.000409
 ---------------------------------------------------------------------
                    Distance matrix (angstroms):
                    1          2          3          4          5
     1  N    0.000000
     2  N    1.333537   0.000000
     3  C    2.216876   1.345835   0.000000
     4  C    2.166621   2.141489   1.377098   0.000000
     5  N    1.306254   2.128324   2.222192   1.360601   0.000000
     6  H    3.237064   2.135970   1.076847   2.253512   3.284391
     7  H    3.185068   3.199702   2.221986   1.076553   2.136831
     8  H    2.036958   1.014317   2.131507   3.138816   3.080562
                    6          7          8
     6  H    0.000000
     7  H    2.794986   0.000000
     8  H    2.572111   4.179947   0.000000
 Stoichiometry    C2H3N3
 Framework group  C1[X(C2H3N3)]
 Deg. of freedom    18
 Full point group                 C1      NOp   1
 Largest Abelian subgroup         C1      NOp   1
 Largest concise Abelian subgroup C1      NOp   1
                         Standard orientation:                         
 ---------------------------------------------------------------------
 Center     Atomic      Atomic             Coordinates (Angstroms)
 Number     Number       Type             X           Y           Z
 ---------------------------------------------------------------------
      1          7           0        0.452288   -1.079958   -0.001414
      2          7           0        1.060570    0.106765    0.000098
      3          6           0        0.174081    1.119391    0.000372
      4          6           0       -1.047492    0.483660   -0.001780
      5          7           0       -0.835359   -0.860297    0.002084
      6          1           0        0.461791    2.157090    0.002120
      7          1           0       -2.037654    0.906205   -0.000346
      8          1           0        2.073839    0.152829    0.001291
 ---------------------------------------------------------------------
 Rotational constants (GHZ):          10.1499946           9.9193756           5.0166934
 Standard basis: 6-31+G(d,p) (6D, 7F)
 There are   110 symmetry adapted cartesian basis functions of A   symmetry.
 There are   110 symmetry adapted basis functions of A   symmetry.
   110 basis functions,   181 primitive gaussians,   110 cartesian basis functions
    18 alpha electrons       18 beta electrons
       nuclear repulsion energy       165.3165203472 Hartrees.
 NAtoms=    8 NActive=    8 NUniq=    8 SFac= 1.00D+00 NAtFMM=   60 NAOKFM=F Big=F
 Integral buffers will be    131072 words long.
 Raffenetti 2 integral format.
 Two-electron integral symmetry is turned on.
 ------------------------------------------------------------------------------
 Polarizable Continuum Model (PCM)
 =================================
 Model                : PCM.
 Atomic radii         : SMD-Coulomb.
 Polarization charges : Total charges.
 Charge compensation  : None.
 Solution method      : On-the-fly selection.
 Cavity type          : VdW (van der Waals Surface) (Alpha=1.000).
 Cavity algorithm     : GePol (No added spheres)
                        Default sphere list used, NSphG=    8.
                        Lebedev-Laikov grids with approx.  5.0 points / Ang**2.
                        Smoothing algorithm: York/Karplus (Gamma=1.0000).
                        Polarization charges: spherical gaussians, with
                                              point-specific exponents (IZeta= 3).
                        Self-potential: point-specific (ISelfS= 7).
                        Self-field    : sphere-specific E.n sum rule (ISelfD= 2).
 1st derivatives      : Analytical E(r).r(x)/FMM algorithm (CHGder, D1EAlg=3).
                        Cavity 1st derivative terms included.
 Solvent              : Water, Eps=  78.355300 Eps(inf)=   1.777849
 ------------------------------------------------------------------------------
 Spheres list:
 ISph  on   Nord     Re0    Alpha      Xe            Ye            Ze
    1   N      1    1.8900  1.000      0.452288     -1.079958     -0.001414
    2   N      2    1.8900  1.000      1.060570      0.106765      0.000098
    3   C      3    1.8500  1.000      0.174081      1.119391      0.000372
    4   C      4    1.8500  1.000     -1.047492      0.483660     -0.001780
    5   N      5    1.8900  1.000     -0.835359     -0.860297      0.002084
    6   H      6    1.2000  1.000      0.461791      2.157090      0.002120
    7   H      7    1.2000  1.000     -2.037654      0.906205     -0.000346
    8   H      8    1.2000  1.000      2.073839      0.152829      0.001291
 ------------------------------------------------------------------------------
 ------------------------------------------------------------------------------
 Atomic radii for non-electrostatic terms: SMD-CDS.
 ------------------------------------------------------------------------------
 Nuclear repulsion after PCM non-electrostatic terms =      165.3190555306 Hartrees.
 One-electron integrals computed using PRISM.
 NBasis=   110 RedAO= T EigKep=  7.67D-05  NBF=   110
 NBsUse=   110 1.00D-06 EigRej= -1.00D+00 NBFU=   110
 Initial guess from the checkpoint file:  "/scratch/gongke2021/1-H-Tz-opt/Gau-26007.chk"
 B after Tr=     0.000000   -0.000000    0.000000
         Rot=    0.990636   -0.000002    0.000000    0.136527 Ang= -15.69 deg.
 ExpMin= 4.38D-02 ExpMax= 4.17D+03 ExpMxC= 6.27D+02 IAcc=2 IRadAn=         4 AccDes= 0.00D+00
 Harris functional with IExCor= 1009 and IRadAn=       4 diagonalized for initial guess.
 HarFok:  IExCor= 1009 AccDes= 0.00D+00 IRadAn=         4 IDoV= 1 UseB2=F ITyADJ=14
 ICtDFT=  3500011 ScaDFX=  1.000000  1.000000  1.000000  1.000000
 FoFCou: FMM=F IPFlag=           0 FMFlag=      100000 FMFlg1=           0
         NFxFlg=           0 DoJE=T BraDBF=F KetDBF=T FulRan=T
         wScrn=  0.000000 ICntrl=       500 IOpCl=  0 I1Cent=   200000004 NGrid=           0
         NMat0=    1 NMatS0=      1 NMatT0=    0 NMatD0=    1 NMtDS0=    0 NMtDT0=    0
 Petite list used in FoFCou.
 Keep R1 ints in memory in canonical form, NReq=37326157.
 Requested convergence on RMS density matrix=1.00D-08 within 128 cycles.
 Requested convergence on MAX density matrix=1.00D-06.
 Requested convergence on             energy=1.00D-06.
 No special actions if energy rises.
 Inv3:  Mode=1 IEnd=     1953747.
 Iteration    1 A*A^-1 deviation from unit magnitude is 4.11D-15 for    795.
 Iteration    1 A*A^-1 deviation from orthogonality  is 1.82D-15 for    804    582.
 Iteration    1 A^-1*A deviation from unit magnitude is 4.11D-15 for    795.
 Iteration    1 A^-1*A deviation from orthogonality  is 1.24D-15 for    806    751.
 Error on total polarization charges =  0.02429
 SCF Done:  E(RM062X) =  -242.157353799     A.U. after   11 cycles
            NFock= 11  Conv=0.49D-08     -V/T= 2.0086
 SMD-CDS (non-electrostatic) energy       (kcal/mol) =       1.59
 (included in total energy above)
 D1PCM: PCM CHGder 1st derivatives, ID1Alg=3 FixD1E=F DoIter=F DoCFld=F I1PDM=0.
 Calling FoFJK, ICntrl=      2127 FMM=F ISym2X=0 I1Cent= 0 IOpClX= 0 NMat=1 NMatS=1 NMatT=0.
 ***** Axes restored to original set *****
 -------------------------------------------------------------------
 Center     Atomic                   Forces (Hartrees/Bohr)
 Number     Number              X              Y              Z
 -------------------------------------------------------------------
      1        7           0.001299201    0.000843240    0.000803119
      2        7          -0.002003472    0.003726540   -0.000190386
      3        6           0.000177302    0.003511413   -0.000211538
      4        6          -0.000721874   -0.001708021    0.000835791
      5        7          -0.000335009   -0.005826687   -0.001065134
      6        1           0.000388428   -0.001199457   -0.000069533
      7        1           0.001023741    0.001051154   -0.000030529
      8        1           0.000171683   -0.000398182   -0.000071789
 -------------------------------------------------------------------
 Cartesian Forces:  Max     0.005826687 RMS     0.001787257

 GradGradGradGradGradGradGradGradGradGradGradGradGradGradGradGradGradGrad
 Berny optimization.
 Using GEDIIS/GDIIS optimizer.
 FormGI is forming the generalized inverse of G from B-inverse, IUseBI=4.
 Internal  Forces:  Max     0.003370232 RMS     0.001233578
 Search for a local minimum.
 Step number   5 out of a maximum of   42
 All quantities printed in internal units (Hartrees-Bohrs-Radians)
 Mixed Optimization -- RFO/linear search
 Update second derivatives using D2CorX and points    2    3    4    5
 DE= -4.22D-04 DEPred=-5.37D-04 R= 7.86D-01
 TightC=F SS=  1.41D+00  RLast= 5.25D-02 DXNew= 1.4270D+00 1.5745D-01
 Trust test= 7.86D-01 RLast= 5.25D-02 DXMaxT set to 8.49D-01
 ITU=  1  1  1  1  0
 Use linear search instead of GDIIS.
     Eigenvalues ---    0.00254   0.00271   0.00330   0.00344   0.00373
     Eigenvalues ---    0.12055   0.15984   0.16004   0.22257   0.27034
     Eigenvalues ---    0.28996   0.29622   0.30334   0.31933   0.32353
     Eigenvalues ---    0.33535   0.55390   0.57417
 RFO step:  Lambda=-2.44292761D-04 EMin= 2.54051096D-03
 Quartic linear search produced a step of -0.16286.
 Iteration  1 RMS(Cart)=  0.02309135 RMS(Int)=  0.00157585
 Iteration  2 RMS(Cart)=  0.00113156 RMS(Int)=  0.00081159
 Iteration  3 RMS(Cart)=  0.00000105 RMS(Int)=  0.00081159
 Iteration  4 RMS(Cart)=  0.00000000 RMS(Int)=  0.00081159
 Variable       Old X    -DE/DX   Delta X   Delta X   Delta X     New X
                                 (Linear)    (Quad)   (Total)
    R1        2.52002  -0.00280  -0.00033  -0.00507  -0.00543   2.51459
    R2        2.46846  -0.00337  -0.00017  -0.00349  -0.00398   2.46448
    R3        2.54326   0.00094   0.00160   0.00040   0.00229   2.54555
    R4        1.91678   0.00029  -0.00161   0.00467   0.00306   1.91984
    R5        2.60234  -0.00272  -0.00279   0.00278   0.00021   2.60255
    R6        2.03495   0.00109  -0.00064   0.00334   0.00270   2.03764
    R7        2.57116  -0.00082   0.00107  -0.00374  -0.00284   2.56833
    R8        2.03439   0.00146  -0.00060   0.00419   0.00359   2.03798
    A1        1.87548  -0.00171  -0.00408   0.00378  -0.00267   1.87282
    A2        1.94886   0.00096   0.00220  -0.00099   0.00013   1.94900
    A3        2.08988  -0.00018  -0.00220   0.00632   0.00459   2.09447
    A4        2.24444  -0.00078  -0.00000  -0.00535  -0.00488   2.23956
    A5        1.81002  -0.00039   0.00006  -0.00173  -0.00245   1.80758
    A6        2.15205  -0.00045   0.00180  -0.00957  -0.00739   2.14466
    A7        2.32111   0.00084  -0.00186   0.01129   0.00980   2.33092
    A8        1.89409  -0.00155  -0.00186   0.00067  -0.00349   1.89060
    A9        2.25839   0.00091   0.00002   0.00458   0.00409   2.26248
   A10        2.13069   0.00064   0.00184  -0.00476  -0.00339   2.12729
   A11        1.89630   0.00269   0.00367  -0.00085   0.00025   1.89655
    D1       -0.00339   0.00026   0.00057   0.08383   0.08423   0.08084
    D2        3.13772   0.00022   0.00070   0.06665   0.06722  -3.07825
    D3        0.00593  -0.00042  -0.00103  -0.12492  -0.12592  -0.11999
    D4       -0.00052   0.00002   0.00011  -0.00795  -0.00781  -0.00833
    D5        3.14092  -0.00003   0.00016  -0.01610  -0.01574   3.12519
    D6       -3.14158   0.00007  -0.00003   0.01114   0.01096  -3.13062
    D7       -0.00014   0.00002   0.00002   0.00299   0.00304   0.00290
    D8        0.00411  -0.00029  -0.00073  -0.06825  -0.06881  -0.06470
    D9        3.13918   0.00005   0.00049   0.01783   0.01851  -3.12550
   D10       -3.13731  -0.00023  -0.00079  -0.05894  -0.05962   3.08625
   D11       -0.00225   0.00011   0.00044   0.02715   0.02769   0.02545
   D12       -0.00638   0.00044   0.00112   0.12264   0.12367   0.11728
   D13        3.14116   0.00013   0.00000   0.04409   0.04445  -3.09758
         Item               Value     Threshold  Converged?
 Maximum Force            0.003370     0.000450     NO 
 RMS     Force            0.001234     0.000300     NO 
 Maximum Displacement     0.097761     0.001800     NO 
 RMS     Displacement     0.023097     0.001200     NO 
 Predicted change in Energy=-1.238640D-04
 GradGradGradGradGradGradGradGradGradGradGradGradGradGradGradGradGradGrad

                          Input orientation:                          
 ---------------------------------------------------------------------
 Center     Atomic      Atomic             Coordinates (Angstroms)
 Number     Number       Type             X           Y           Z
 ---------------------------------------------------------------------
      1          7           0       -3.144212    0.568799    0.032926
      2          7           0       -2.356365   -0.503082    0.000851
      3          6           0       -1.053074   -0.162547   -0.001728
[...]
     8   1    -0.00  -0.00   0.00    -0.02  -0.01   0.00     0.99   0.08  -0.00

 -------------------
 - Thermochemistry -
 -------------------
 Temperature   298.150 Kelvin.  Pressure   1.00000 Atm.
 Atom     1 has atomic number  7 and mass  14.00307
 Atom     2 has atomic number  7 and mass  14.00307
 Atom     3 has atomic number  6 and mass  12.00000
 Atom     4 has atomic number  6 and mass  12.00000
 Atom     5 has atomic number  7 and mass  14.00307
 Atom     6 has atomic number  1 and mass   1.00783
 Atom     7 has atomic number  1 and mass   1.00783
 Atom     8 has atomic number  1 and mass   1.00783
 Molecular mass:    69.03270 amu.
 Principal axes and moments of inertia in atomic units:
                           1         2         3
     Eigenvalues --   177.94908 181.03937 358.98845
           X            0.86011  -0.51011  -0.00001
           Y            0.51011   0.86011  -0.00002
           Z            0.00001   0.00001   1.00000
 This molecule is an asymmetric top.
 Rotational symmetry number  1.
 Rotational temperatures (Kelvin)      0.48673     0.47843     0.24127
 Rotational constants (GHZ):          10.14190     9.96878     5.02730
 Zero-point vibrational energy     158462.8 (Joules/Mol)
                                   37.87353 (Kcal/Mol)
 Vibrational temperatures:    922.80   968.37  1065.22  1174.07  1305.84
          (Kelvin)           1387.35  1424.48  1581.51  1622.41  1686.92
                             1761.92  1931.08  2032.01  2157.24  2277.37
                             4783.28  4811.42  5224.13
 
 Zero-point correction=                           0.060355 (Hartree/Particle)
 Thermal correction to Energy=                    0.063861
 Thermal correction to Enthalpy=                  0.064805
 Thermal correction to Gibbs Free Energy=         0.034226
 Sum of electronic and zero-point Energies=           -242.097063
 Sum of electronic and thermal Energies=              -242.093557
 Sum of electronic and thermal Enthalpies=            -242.092613
 Sum of electronic and thermal Free Energies=         -242.123192
 
                     E (Thermal)             CV                S
                      KCal/Mol        Cal/Mol-Kelvin    Cal/Mol-Kelvin
 Total                   40.073             11.775             64.358
 Electronic               0.000              0.000              0.000
 Translational            0.889              2.981             38.613
 Rotational               0.889              2.981             23.962
 Vibrational             38.296              5.814              1.783
                       Q            Log10(Q)             Ln(Q)
 Total Bot       0.180690D-15        -15.743066        -36.249748
 Total V=0       0.104333D+13         12.018424         27.673443
 Vib (Bot)       0.208199D-27        -27.681522        -63.739060
 Vib (V=0)       0.120217D+01          0.079967          0.184132
 Electronic      0.100000D+01          0.000000          0.000000
 Translational   0.225443D+08          7.353036         16.930991
 Rotational      0.384964D+05          4.585420         10.558320
 ***** Axes restored to original set *****
 -------------------------------------------------------------------
 Center     Atomic                   Forces (Hartrees/Bohr)
 Number     Number              X              Y              Z
 -------------------------------------------------------------------
      1        7          -0.000076309   -0.000053006   -0.000015905
      2        7           0.000039970    0.000049041    0.000018311
      3        6          -0.000008025   -0.000072194   -0.000055817
      4        6           0.000002117    0.000215179    0.000012627
      5        7           0.000127043   -0.000013057    0.000009400
      6        1           0.000028799    0.000045764    0.000018590
      7        1          -0.000007724   -0.000001670    0.000004322
      8        1          -0.000105871   -0.000170056    0.000008472
 -------------------------------------------------------------------
 Cartesian Forces:  Max     0.000215179 RMS     0.000073038
 FormGI is forming the generalized inverse of G from B-inverse, IUseBI=4.

 GradGradGradGradGradGradGradGradGradGradGradGradGradGradGradGradGradGrad
 Berny optimization.
 Internal  Forces:  Max     0.000196120 RMS     0.000056821
 Search for a local minimum.
 Step number   1 out of a maximum of    2
 All quantities printed in internal units (Hartrees-Bohrs-Radians)
 Second derivative matrix not updated -- analytic derivatives used.
 ITU=  0
     Eigenvalues ---    0.01064   0.01468   0.02625   0.06652   0.07189
     Eigenvalues ---    0.09671   0.10502   0.11410   0.23283   0.29160
     Eigenvalues ---    0.37168   0.38920   0.39126   0.43426   0.46756
     Eigenvalues ---    0.46948   0.55805   0.60301
 Angle between quadratic step and forces=  54.45 degrees.
 Linear search not attempted -- first point.
 Iteration  1 RMS(Cart)=  0.00026417 RMS(Int)=  0.00000013
 Iteration  2 RMS(Cart)=  0.00000007 RMS(Int)=  0.00000009
 Variable       Old X    -DE/DX   Delta X   Delta X   Delta X     New X
                                 (Linear)    (Quad)   (Total)
    R1        2.51416   0.00002   0.00000   0.00010   0.00010   2.51426
    R2        2.46142   0.00010   0.00000   0.00017   0.00017   2.46158
    R3        2.54614   0.00010   0.00000   0.00008   0.00008   2.54622
    R4        1.91720   0.00020   0.00000   0.00042   0.00042   1.91762
    R5        2.59762   0.00012   0.00000   0.00026   0.00026   2.59788
    R6        2.03784  -0.00001   0.00000  -0.00002  -0.00002   2.03782
    R7        2.57098  -0.00008   0.00000  -0.00023  -0.00023   2.57075
    R8        2.03791  -0.00000   0.00000  -0.00001  -0.00001   2.03790
    A1        1.87250   0.00000   0.00000  -0.00001  -0.00001   1.87249
    A2        1.95059  -0.00006   0.00000  -0.00014  -0.00014   1.95045
    A3        2.09407  -0.00001   0.00000  -0.00028  -0.00028   2.09379
    A4        2.23852   0.00007   0.00000   0.00043   0.00043   2.23895
    A5        1.80951   0.00005   0.00000   0.00012   0.00012   1.80963
    A6        2.14339   0.00002   0.00000   0.00037   0.00037   2.14376
    A7        2.33029  -0.00006   0.00000  -0.00049  -0.00049   2.32979
    A8        1.89023  -0.00005   0.00000  -0.00013  -0.00013   1.89010
    A9        2.26318   0.00002   0.00000  -0.00010  -0.00010   2.26308
   A10        2.12978   0.00004   0.00000   0.00022   0.00022   2.13000
   A11        1.90195   0.00006   0.00000   0.00015   0.00015   1.90210
    D1        0.00018  -0.00001   0.00000  -0.00018  -0.00018  -0.00000
    D2       -3.14129  -0.00001   0.00000  -0.00030  -0.00030  -3.14159
    D3       -0.00006   0.00001   0.00000   0.00006   0.00006   0.00000
    D4       -0.00021   0.00001   0.00000   0.00021   0.00021   0.00000
    D5       -3.14113  -0.00000   0.00000  -0.00047  -0.00047  -3.14159
    D6        3.14124   0.00001   0.00000   0.00034   0.00034   3.14159
    D7        0.00033  -0.00001   0.00000  -0.00034  -0.00034  -0.00000
    D8        0.00017  -0.00001   0.00000  -0.00017  -0.00017   0.00000
    D9       -3.14140  -0.00001   0.00000  -0.00020  -0.00020   3.14159
   D10        3.14097   0.00001   0.00000   0.00062   0.00062   3.14159
   D11       -0.00059   0.00001   0.00000   0.00059   0.00059  -0.00000
   D12       -0.00007   0.00000   0.00000   0.00007   0.00007  -0.00000
   D13        3.14150   0.00000   0.00000   0.00010   0.00010   3.14159
         Item               Value     Threshold  Converged?
 Maximum Force            0.000196     0.000450     YES
 RMS     Force            0.000057     0.000300     YES
 Maximum Displacement     0.000875     0.001800     YES
 RMS     Displacement     0.000264     0.001200     YES
 Predicted change in Energy=-1.492775D-07
 Optimization completed.
    -- Stationary point found.
                           ----------------------------
                           !   Optimized Parameters   !
                           ! (Angstroms and Degrees)  !
 --------------------------                            --------------------------
 ! Name  Definition              Value          Derivative Info.                !
 --------------------------------------------------------------------------------
 ! R1    R(1,2)                  1.3304         -DE/DX =    0.0                 !
 ! R2    R(1,5)                  1.3025         -DE/DX =    0.0001              !
 ! R3    R(2,3)                  1.3474         -DE/DX =    0.0001              !
 ! R4    R(2,8)                  1.0145         -DE/DX =    0.0002              !
 ! R5    R(3,4)                  1.3746         -DE/DX =    0.0001              !
 ! R6    R(3,6)                  1.0784         -DE/DX =    0.0                 !
 ! R7    R(4,5)                  1.3605         -DE/DX =   -0.0001              !
 ! R8    R(4,7)                  1.0784         -DE/DX =    0.0                 !
 ! A1    A(2,1,5)              107.2861         -DE/DX =    0.0                 !
 ! A2    A(1,2,3)              111.7607         -DE/DX =   -0.0001              !
 ! A3    A(1,2,8)              119.9815         -DE/DX =    0.0                 !
 ! A4    A(3,2,8)              128.2578         -DE/DX =    0.0001              !
 ! A5    A(2,3,4)              103.6772         -DE/DX =    0.0                 !
 ! A6    A(2,3,6)              122.8072         -DE/DX =    0.0                 !
 ! A7    A(4,3,6)              133.5157         -DE/DX =   -0.0001              !
 ! A8    A(3,4,5)              108.3022         -DE/DX =   -0.0001              !
 ! A9    A(3,4,7)              129.6704         -DE/DX =    0.0                 !
 ! A10   A(5,4,7)              122.0275         -DE/DX =    0.0                 !
 ! A11   A(1,5,4)              108.9739         -DE/DX =    0.0001              !
 ! D1    D(5,1,2,3)              0.0101         -DE/DX =    0.0                 !
 ! D2    D(5,1,2,8)           -179.9829         -DE/DX =    0.0                 !
 ! D3    D(2,1,5,4)             -0.0034         -DE/DX =    0.0                 !
 ! D4    D(1,2,3,4)             -0.0122         -DE/DX =    0.0                 !
 ! D5    D(1,2,3,6)           -179.9732         -DE/DX =    0.0                 !
 ! D6    D(8,2,3,4)            179.9801         -DE/DX =    0.0                 !
 ! D7    D(8,2,3,6)              0.0191         -DE/DX =    0.0                 !
 ! D8    D(2,3,4,5)              0.0097         -DE/DX =    0.0                 !
 ! D9    D(2,3,4,7)            180.0113         -DE/DX =    0.0                 !
 ! D10   D(6,3,4,5)            179.9645         -DE/DX =    0.0                 !
 ! D11   D(6,3,4,7)             -0.0339         -DE/DX =    0.0                 !
 ! D12   D(3,4,5,1)             -0.0041         -DE/DX =    0.0                 !
 ! D13   D(7,4,5,1)            179.9944         -DE/DX =    0.0                 !
 --------------------------------------------------------------------------------
 GradGradGradGradGradGradGradGradGradGradGradGradGradGradGradGradGradGrad


 ----------------------------------------------------------------------

 Electric dipole moment (input orientation):
 (Debye = 10**-18 statcoulomb cm , SI units = C m)
                  (au)            (Debye)         (10**-30 SI)
   Tot        0.252970D+01      0.642985D+01      0.214477D+02
   x          0.142704D+01      0.362717D+01      0.120989D+02
   y         -0.208876D+01     -0.530910D+01     -0.177093D+02
   z         -0.878394D-04     -0.223266D-03     -0.744734D-03

 Dipole polarizability, Alpha (input orientation).
 (esu units = cm**3 , SI units = C**2 m**2 J**-1)
 Alpha(0;0):
               (au)            (10**-24 esu)      (10**-40 SI)
   iso        0.553480D+02      0.820173D+01      0.912566D+01
   aniso      0.300678D+02      0.445559D+01      0.495751D+01
   xx         0.656236D+02      0.972442D+01      0.108199D+02
   yx        -0.641958D+00     -0.951284D-01     -0.105845D+00
   yy         0.651017D+02      0.964707D+01      0.107338D+02
   zx         0.846197D-02      0.125394D-02      0.139519D-02
   zy        -0.132832D-02     -0.196837D-03     -0.219010D-03
   zz         0.353188D+02      0.523371D+01      0.582329D+01

 ----------------------------------------------------------------------

 Dipole orientation:
     7         -3.55465330         -2.42846528         -4.24062642
     7         -3.47878549         -2.37620270         -1.72815798
     6         -1.49952260         -1.02287979         -0.87150840
     6         -0.32057239         -0.21784361         -3.04166954
     7         -1.63763648         -1.11846477         -5.05764813
     1         -1.11660347         -0.76174359          1.11292395
     1          1.35177946          0.92487474         -3.26644554
     1         -4.81973225         -3.29307096         -0.70988565

 Electric dipole moment (dipole orientation):
 (Debye = 10**-18 statcoulomb cm , SI units = C m)
                  (au)            (Debye)         (10**-30 SI)
   Tot        0.252970D+01      0.642985D+01      0.214477D+02
   x          0.000000D+00      0.000000D+00      0.000000D+00
   y          0.000000D+00      0.000000D+00      0.000000D+00
   z          0.252970D+01      0.642985D+01      0.214477D+02

 Dipole polarizability, Alpha (dipole orientation).
 (esu units = cm**3 , SI units = C**2 m**2 J**-1)
 Alpha(0;0):
               (au)            (10**-24 esu)      (10**-40 SI)
   iso        0.553480D+02      0.820173D+01      0.912566D+01
   aniso      0.300678D+02      0.445559D+01      0.495751D+01
   xx         0.554531D+02      0.821730D+01      0.914298D+01
   yx         0.137620D+02      0.203931D+01      0.226904D+01
   yy         0.447252D+02      0.662759D+01      0.737419D+01
   zx         0.389547D+00      0.577249D-01      0.642276D-01
   zy         0.274531D+00      0.406814D-01      0.452641D-01
   zz         0.658658D+02      0.976031D+01      0.108598D+02

 ----------------------------------------------------------------------
 1\1\GINC-NODE2\Freq\RM062X\6-31+G(d,p)\C2H3N3\GONGKE2021\01-Jul-2023\0
 \\#N Geom=AllCheck Guess=TCheck SCRF=Check GenChk RM062X/6-31+G(d,p) F
 req\\test\\0,1\N,-3.1469216086,0.5677872254,0.0001063392\N,-2.35665533
 94,-0.5025095896,0.0002480051\C,-1.053280646,-0.1610616027,0.000710893
 8\C,-1.077338995,1.2133267593,0.0005673933\N,-2.3763005072,1.617891070
 2,0.0002521608\H,-0.2583798003,-0.8897813566,0.0004676691\H,-0.2594254
 821,1.9161789338,0.000646554\H,-2.7624645213,-1.4323534398,-0.00009262
 52\\Version=ES64L-G16RevA.03\State=1-A\HF=-242.157418\RMSD=1.016e-09\R
 MSF=7.304e-05\ZeroPoint=0.0603553\Thermal=0.0638609\Dipole=1.4270373,-
 2.0887623,-0.0000878\DipoleDeriv=-0.7052431,-0.0160714,-0.0002029,-0.1
 988593,0.4436893,0.0000155,-0.0000856,-0.0000136,-0.1909213,0.1523884,
 -0.2191228,0.0002239,-0.248971,-0.9182205,-0.0000962,0.0001082,-0.0001
 675,-0.1831754,-0.078742,0.3205572,-0.0000565,-0.0531767,0.2663312,0.0
 000178,-0.0001987,0.0003984,-0.0730421,-0.0826911,0.0526323,0.000016,0
 .2733096,0.0380442,0.0000149,0.0000584,-0.0000903,-0.149509,0.1405007,
 -0.1815303,0.0001303,0.1701072,-0.5716385,-0.0000049,0.0000793,-0.0000
 192,-0.330055,0.1621019,0.0027294,-0.0000492,0.0218224,0.1462394,0.000
 0026,0.0000974,-0.0001564,0.2632645,0.0877542,-0.0338816,-0.0000381,-0
 .054562,0.1097424,0.0000004,-0.0000275,0.0000199,0.2389056,0.323931,0.
 0746872,-0.0000236,0.0903298,0.4858126,0.0000499,-0.0000314,0.0000288,
 0.4245327\Polar=65.62365,-0.6419581,65.1016726,0.008462,-0.0013283,35.
 3188127\Quadrupole=-0.5380097,2.6850675,-2.1470578,2.8378081,-0.000075
 6,0.0018086\PG=C01 [X(C2H3N3)]\NImag=0\\0.61228055,0.04967978,0.516873
 45,0.00011819,0.00001432,0.12286939,-0.20708321,0.12065469,-0.00003913
 ,0.74298121,0.06616185,-0.20204951,0.00000761,0.18146653,0.94382340,-0
 .00003154,0.00000368,-0.07402089,0.00021398,0.00017466,0.11057883,-0.0
 9927941,0.05947152,-0.00003198,-0.34468193,-0.07037619,-0.00009562,0.7
 8071720,-0.00389052,-0.02528520,0.00001112,-0.04753368,-0.14465004,-0.
 00004094,-0.17349066,0.80268454,-0.00003021,0.00003703,0.02119857,-0.0
 0006849,-0.00004595,-0.06411244,0.00007082,0.00004510,0.13062883,-0.10
 941019,-0.07926684,-0.00002873,-0.00787392,-0.01119027,-0.00000465,-0.
 11785663,-0.02095132,0.00000262,0.74309142,0.00119829,-0.00114952,-0.0
 0000714,-0.10922286,-0.05477731,-0.00002289,0.01983556,-0.39388830,0.0
 0002070,0.18302298,0.79575348,-0.00003039,-0.00002271,0.02421088,-0.00
 001227,-0.00000406,0.01092650,0.00000245,0.00002734,-0.07201655,0.0001
 1201,-0.00000868,0.13701690,-0.20771543,-0.16809553,-0.00002739,-0.023
 80689,-0.04107152,-0.00001007,-0.00295671,0.10982736,-0.00001649,-0.27
 798309,0.06490009,-0.00004378,0.52874638,-0.09924621,-0.26965938,-0.00
 002071,0.01149100,-0.16116091,0.00000529,0.01688403,-0.02755775,-0.000
 00919,0.06977602,-0.14779978,0.00002360,0.01546726,0.59739948,-0.00002
 610,-0.00003367,-0.09817213,-0.00000476,-0.00001110,0.02562098,-0.0000
 1408,0.00002402,0.01903171,-0.00005435,0.00002499,-0.07481299,0.000101
 67,-0.00000363,0.12007662,-0.00326634,-0.00303500,-0.00000219,-0.01658
 650,0.02370435,0.00000405,-0.22723741,0.15561196,0.00004060,0.00993665
 ,-0.00278387,-0.00000108,0.00163684,-0.00383824,0.00000278,0.23531081,
 -0.00534892,-0.00157596,-0.00000503,-0.01299425,0.01535005,0.00000275,
 0.16695342,-0.21115451,-0.00004514,0.01828409,-0.00076655,-0.00000287,
 0.00260680,-0.00520715,0.00000064,-0.16971445,0.20341369,-0.00000268,-
 0.00000781,0.00704619,-0.00001482,0.00001270,-0.00276992,0.00006287,-0
 .00006488,-0.03003552,-0.00000559,0.00000771,0.00057815,0.00000254,0.0
 0000435,0.00661937,-0.00004361,0.00004774,0.02282603,-0.00513762,0.001
 36588,-0.00000260,0.00005852,0.00383051,-0.00000089,0.00912396,0.00529
 219,0.00000156,-0.23276700,-0.15535420,-0.00002355,-0.01610709,-0.0205
 0259,-0.00000085,-0.00039142,-0.00054049,0.00000044,0.24444504,0.00503
 837,0.00096655,0.00000253,0.00037396,-0.00598282,0.00000067,-0.0200455
 9,-0.00486248,-0.00000524,-0.16105984,-0.20027738,-0.00001129,0.010179
 58,0.01375252,-0.00000056,0.00043386,0.00017666,-0.00000014,0.16615460
 ,0.19562005,-0.00000341,-0.00000017,0.00823232,-0.00000218,0.00000097,
 0.00594676,0.00000383,0.00000441,-0.00020085,-0.00002043,-0.00001513,-
 0.03027705,-0.00000366,-0.00000472,-0.00693550,-0.00000005,0.00000117,
 -0.00222433,0.00002597,0.00001394,0.02411825,0.01961165,0.01922551,0.0
 0001383,-0.14300728,-0.15252525,-0.00007525,0.00217092,-0.02486534,-0.
 00000040,-0.00713725,-0.00159600,-0.00000339,-0.00181401,0.00996872,-0
 .00000431,0.00059737,0.00075382,0.00000085,0.00077563,-0.00107494,-0.0
 0000007,0.12880298,-0.01359264,-0.01812042,-0.00000269,-0.14423538,-0.
 39055286,-0.00012322,0.00076791,0.00471375,0.00000269,0.00138518,0.002
 90534,-0.00000133,0.00618595,0.00023296,-0.00000068,-0.00037861,-0.000
 23623,0.00000034,-0.00024591,0.00060690,-0.00000049,0.15011349,0.40045
 056,0.00000613,0.00000932,-0.01136433,-0.00007234,-0.00013483,-0.01216
 982,0.00000172,-0.00000617,-0.00449376,-0.00000087,0.00000045,0.004374
 16,-0.00000282,0.00000500,0.00857194,-0.00000049,0.00000074,-0.0020399
 6,-0.00000008,0.00000010,0.00134040,0.00006875,0.00012538,0.01578136\\
 0.00007631,0.00005301,0.00001591,-0.00003997,-0.00004904,-0.00001831,0
 .00000803,0.00007219,0.00005582,-0.00000212,-0.00021518,-0.00001263,-0
 .00012704,0.00001306,-0.00000940,-0.00002880,-0.00004576,-0.00001859,0
 .00000772,0.00000167,-0.00000432,0.00010587,0.00017006,-0.00000847\\\@


 LET US PLACE AT THE END OF EVERY CHAPTER.....THE
 TWO LETTERS USED BY THE ROMAN JUDGES WHEN THEY DID
 NOT UNDERSTAND A PLEADING.
 N. L. -NON LIQUET- IT IS NOT CLEAR.
                                              -- VOLTAIRE
 Job cpu time:       0 days  0 hours  9 minutes 45.6 seconds.
 Elapsed time:       0 days  0 hours  0 minutes 29.9 seconds.
 File lengths (MBytes):  RWF=     27 Int=      0 D2E=      0 Chk=      5 Scr=      1
 Normal termination of Gaussian 16 at Sat Jul  1 02:39:25 2023.
