 Entering Gaussian System, Link 0=/opt/soft/g16b/g16/g16
 Initial command:
 /opt/soft/g16b/g16/l1.exe "/scratch/gongke2021/1-H-Tz-RC/Gau-29186.inp" -scrdir="/scratch/gongke2021/1-H-Tz-RC/"
 Entering Link 1 = /opt/soft/g16b/g16/l1.exe PID=     29187.
  
 Copyright (c) 1988,1990,1992,1993,1995,1998,2003,2009,2016,
            Gaussian, Inc.  All Rights Reserved.
  
 This is part of the Gaussian(R) 16 program.  It is based on
 the Gaussian(R) 09 system (copyright 2009, Gaussian, Inc.),
 the Gaussian(R) 03 system (copyright 2003, Gaussian, Inc.),
 the Gaussian(R) 98 system (copyright 1998, Gaussian, Inc.),
 the Gaussian(R) 94 system (copyright 1995, Gaussian, Inc.),
 the Gaussian 92(TM) system (copyright 1992, Gaussian, Inc.),
 the Gaussian 90(TM) system (copyright 1990, Gaussian, Inc.),
 the Gaussian 88(TM) system (copyright 1988, Gaussian, Inc.),
 the Gaussian 86(TM) system (copyright 1986, Carnegie Mellon
 University), and the Gaussian 82(TM) system (copyright 1983,
 Carnegie Mellon University). Gaussian is a federally registered
 trademark of Gaussian, Inc.
  
 This software contains proprietary and confidential information,
 including trade secrets, belonging to Gaussian, Inc.
  
 This software is provided under written license and may be
 used, copied, transmitted, or stored only in accord with that
 written license.
  
 The following legend is applicable only to US Government
 contracts under FAR:
  
                    RESTRICTED RIGHTS LEGEND
  
 Use, reproduction and disclosure by the US Government is
 subject to restrictions as set forth in subparagraphs (a)
 and (c) of the Commercial Computer Software - Restricted
 Rights clause in FAR 52.227-19.
  
 Gaussian, Inc.
 340 Quinnipiac St., Bldg. 40, Wallingford CT 06492
  
  
 ---------------------------------------------------------------
 Warning -- This program may not be used in any manner that
 competes with the business of Gaussian, Inc. or will provide
 assistance to any competitor of Gaussian, Inc.  The licensee
 of this program is prohibited from giving any competitor of
 Gaussian, Inc. access to this program.  By using this program,
 the user acknowledges that Gaussian, Inc. is engaged in the
 business of creating and licensing software in the field of
 computational chemistry and represents and warrants to the
 licensee that it is not a competitor of Gaussian, Inc. and that
 it will not use this program in any manner prohibited above.
 ---------------------------------------------------------------
  

 Cite this work as:
 Gaussian 16, Revision A.03,
 M. J. Frisch, G. W. Trucks, H. B. Schlegel, G. E. Scuseria, 
 M. A. Robb, J. R. Cheeseman, G. Scalmani, V. Barone, 
 G. A. Petersson, H. Nakatsuji, X. Li, M. Caricato, A. V. Marenich, 
 J. Bloino, B. G. Janesko, R. Gomperts, B. Mennucci, H. P. Hratchian, 
 J. V. Ortiz, A. F. Izmaylov, J. L. Sonnenberg, D. Williams-Young, 
 F. Ding, F. Lipparini, F. Egidi, J. Goings, B. Peng, A. Petrone, 
 T. Henderson, D. Ranasinghe, V. G. Zakrzewski, J. Gao, N. Rega, 
 G. Zheng, W. Liang, M. Hada, M. Ehara, K. Toyota, R. Fukuda, 
 J. Hasegawa, M. Ishida, T. Nakajima, Y. Honda, O. Kitao, H. Nakai, 
 T. Vreven, K. Throssell, J. A. Montgomery, Jr., J. E. Peralta, 
 F. Ogliaro, M. J. Bearpark, J. J. Heyd, E. N. Brothers, K. N. Kudin, 
 V. N. Staroverov, T. A. Keith, R. Kobayashi, J. Normand, 
 K. Raghavachari, A. P. Rendell, J. C. Burant, S. S. Iyengar, 
 J. Tomasi, M. Cossi, J. M. Millam, M. Klene, C. Adamo, R. Cammi, 
 J. W. Ochterski, R. L. Martin, K. Morokuma, O. Farkas, 
 J. B. Foresman, and D. J. Fox, Gaussian, Inc., Wallingford CT, 2016.
 
 ******************************************
 Gaussian 16:  ES64L-G16RevA.03 25-Dec-2016
                 1-Jul-2023 
 ******************************************
 %mem=10GB
 %nprocshared=20
 Will use up to   20 processors via shared memory.
 -----------------------------------------------------
 # opt freq 6-31+g(d,p) m062x scrf=(SMD,solvent=water)
 -----------------------------------------------------
 1/18=20,19=15,26=3,38=1/1,3;
 2/9=110,12=2,17=6,18=5,40=1/2;
 3/5=1,6=6,7=111,11=2,25=1,30=1,70=32201,71=1,72=1,74=-55/1,2,3;
 4//1;
 5/5=2,38=5,53=1/2;
 6/7=2,8=2,9=2,10=2,28=1/1;
 7//1,2,3,16;
 1/18=20,19=15,26=3/3(2);
 2/9=110/2;
 99//99;
 2/9=110/2;
 3/5=1,6=6,7=111,11=2,25=1,30=1,70=32205,71=1,72=1,74=-55/1,2,3;
 4/5=5,16=3,69=1/1;
 5/5=2,38=5,53=1/2;
 7//1,2,3,16;
 1/18=20,19=15,26=3/3(-5);
 2/9=110/2;
 6/7=2,8=2,9=2,10=2,19=2,28=1/1;
 99/9=1/99;
 ----------
 "Sketch 2"
 ----------
 Symbolic Z-matrix:
 Charge =  0 Multiplicity = 1
 N                    -3.27597   0.57796  -0.00019 
 N                    -2.44747  -0.66051   0.00016 
 C                    -1.01452  -0.19638   0.00039 
 C                    -1.00746   1.33133   0.0004 
 N                    -2.436     1.80882   0.00043 
 H                    -0.09409  -0.86904   0.00068 
 H                    -0.08081   1.99529   0.00088 
 H                    -2.93444  -1.65799   0.00016 
 C                    -5.42723  -0.53471  -0.26093 
 O                    -4.75807  -1.83339   0.12084 
 O                    -6.09527   0.76431  -0.64352 
 
 Add virtual bond connecting atoms O10        and H8         Dist= 3.47D+00.

 GradGradGradGradGradGradGradGradGradGradGradGradGradGradGradGradGradGrad
 Berny optimization.
 Initialization pass.
                           ----------------------------
                           !    Initial Parameters    !
                           ! (Angstroms and Degrees)  !
 --------------------------                            --------------------------
 ! Name  Definition              Value          Derivative Info.                !
 --------------------------------------------------------------------------------
 ! R1    R(1,2)                  1.49           estimate D2E/DX2                !
 ! R2    R(1,5)                  1.4902         estimate D2E/DX2                !
 ! R3    R(2,3)                  1.5062         estimate D2E/DX2                !
 ! R4    R(2,8)                  1.11           estimate D2E/DX2                !
 ! R5    R(3,4)                  1.5277         estimate D2E/DX2                !
 ! R6    R(3,6)                  1.14           estimate D2E/DX2                !
 ! R7    R(4,5)                  1.5062         estimate D2E/DX2                !
 ! R8    R(4,7)                  1.14           estimate D2E/DX2                !
 ! R9    R(8,10)                 1.836          estimate D2E/DX2                !
 ! R10   R(9,10)                 1.51           estimate D2E/DX2                !
 ! R11   R(9,11)                 1.51           estimate D2E/DX2                !
 ! A1    A(2,1,5)              111.9081         estimate D2E/DX2                !
 ! A2    A(1,2,3)              105.8343         estimate D2E/DX2                !
 ! A3    A(1,2,8)              120.197          estimate D2E/DX2                !
 ! A4    A(3,2,8)              133.9687         estimate D2E/DX2                !
 ! A5    A(2,3,4)              108.2118         estimate D2E/DX2                !
 ! A6    A(2,3,6)              125.8934         estimate D2E/DX2                !
 ! A7    A(4,3,6)              125.8948         estimate D2E/DX2                !
 ! A8    A(3,4,5)              108.2174         estimate D2E/DX2                !
 ! A9    A(3,4,7)              125.8871         estimate D2E/DX2                !
 ! A10   A(5,4,7)              125.8955         estimate D2E/DX2                !
 ! A11   A(1,5,4)              105.8284         estimate D2E/DX2                !
 ! A12   A(2,8,10)             121.4397         estimate D2E/DX2                !
 ! A13   A(8,10,9)             109.9611         estimate D2E/DX2                !
 ! A14   L(10,9,11,1,-1)       179.9601         estimate D2E/DX2                !
 ! A15   L(10,9,11,1,-2)       179.9628         estimate D2E/DX2                !
 ! D1    D(5,1,2,3)             -0.0261         estimate D2E/DX2                !
 ! D2    D(5,1,2,8)            179.9764         estimate D2E/DX2                !
 ! D3    D(2,1,5,4)              0.0328         estimate D2E/DX2                !
 ! D4    D(1,2,3,4)              0.0088         estimate D2E/DX2                !
 ! D5    D(1,2,3,6)           -179.9996         estimate D2E/DX2                !
 ! D6    D(8,2,3,4)           -179.9942         estimate D2E/DX2                !
 ! D7    D(8,2,3,6)             -0.0026         estimate D2E/DX2                !
 ! D8    D(1,2,8,10)            -4.434          estimate D2E/DX2                !
 ! D9    D(3,2,8,10)           175.5694         estimate D2E/DX2                !
 ! D10   D(2,3,4,5)              0.0108         estimate D2E/DX2                !
 ! D11   D(2,3,4,7)            179.9791         estimate D2E/DX2                !
 ! D12   D(6,3,4,5)           -179.9808         estimate D2E/DX2                !
 ! D13   D(6,3,4,7)             -0.0125         estimate D2E/DX2                !
 ! D14   D(3,4,5,1)             -0.0259         estimate D2E/DX2                !
 ! D15   D(7,4,5,1)           -179.9942         estimate D2E/DX2                !
 ! D16   D(2,8,10,9)            19.3748         estimate D2E/DX2                !
 --------------------------------------------------------------------------------
 Trust Radius=3.00D-01 FncErr=1.00D-07 GrdErr=1.00D-06 EigMax=2.50D+02 EigMin=1.00D-04
 Number of steps in this run=     52 maximum allowed number of steps=    100.
 GradGradGradGradGradGradGradGradGradGradGradGradGradGradGradGradGradGrad

                          Input orientation:                          
 ---------------------------------------------------------------------
 Center     Atomic      Atomic             Coordinates (Angstroms)
 Number     Number       Type             X           Y           Z
 ---------------------------------------------------------------------
      1          7           0       -3.275970    0.577959   -0.000194
      2          7           0       -2.447470   -0.660512    0.000159
      3          6           0       -1.014520   -0.196383    0.000393
      4          6           0       -1.007460    1.331330    0.000395
      5          7           0       -2.436000    1.808820    0.000435
      6          1           0       -0.094095   -0.869036    0.000677
      7          1           0       -0.080812    1.995290    0.000883
      8          1           0       -2.934440   -1.657990    0.000159
      9          6           0       -5.427230   -0.534705   -0.260926
     10          8           0       -4.758070   -1.833390    0.120836
     11          8           0       -6.095270    0.764310   -0.643524
 ---------------------------------------------------------------------
                    Distance matrix (angstroms):
                    1          2          3          4          5
     1  N    0.000000
     2  N    1.490041   0.000000
     3  C    2.390348   1.506241   0.000000
     4  C    2.390336   2.457857   1.527729   0.000000
     5  N    1.490157   2.469359   2.457935   1.506228   0.000000
     6  H    3.495444   2.362596   1.140020   2.382404   3.557448
     7  H    3.495406   3.557296   2.382276   1.139964   2.362558
     8  H    2.261882   1.110001   2.412962   3.556583   3.502458
     9  C    2.435964   2.993821   4.433369   4.804658   3.808921
    10  O    2.832997   2.594047   4.087599   4.908873   4.321134
    11  O    2.897767   3.968739   5.210718   5.159647   3.859526
                    6          7          8          9         10
     6  H    0.000000
     7  H    2.864357   0.000000
     8  H    2.947883   4.635693   0.000000
     9  C    5.350004   5.920608   2.746623   0.000000
    10  O    4.764146   6.045653   1.836016   1.510000   0.000000
    11  O    6.252753   6.172866   4.033945   1.510000   3.019999
                   11
    11  O    0.000000
 Stoichiometry    C3H3N3O2
 Framework group  C1[X(C3H3N3O2)]
 Deg. of freedom    27
 Full point group                 C1      NOp   1
 Largest Abelian subgroup         C1      NOp   1
 Largest concise Abelian subgroup C1      NOp   1
                         Standard orientation:                         
 ---------------------------------------------------------------------
 Center     Atomic      Atomic             Coordinates (Angstroms)
 Number     Number       Type             X           Y           Z
 ---------------------------------------------------------------------
      1          7           0        0.158769   -0.425297   -0.141420
      2          7           0        0.627347    0.973979    0.065183
      3          6           0        2.128459    0.894818    0.160867
      4          6           0        2.540134   -0.568433    0.007970
      5          7           0        1.292836   -1.391111   -0.182216
      6          1           0        2.835395    1.774948    0.319798
      7          1           0        3.607306   -0.968481    0.032934
      8          1           0       -0.105338    1.806198    0.117016
      9          6           0       -2.223202    0.060322    0.014507
     10          8           0       -1.897220    1.523592   -0.166264
     11          8           0       -2.548077   -1.403081    0.196184
 ---------------------------------------------------------------------
 Rotational constants (GHZ):           3.7521000           1.2479343           0.9444668
 Standard basis: 6-31+G(d,p) (6D, 7F)
 There are   167 symmetry adapted cartesian basis functions of A   symmetry.
 There are   167 symmetry adapted basis functions of A   symmetry.
   167 basis functions,   277 primitive gaussians,   167 cartesian basis functions
    29 alpha electrons       29 beta electrons
       nuclear repulsion energy       307.6525167748 Hartrees.
 NAtoms=   11 NActive=   11 NUniq=   11 SFac= 1.00D+00 NAtFMM=   60 NAOKFM=F Big=F
 Integral buffers will be    131072 words long.
 Raffenetti 2 integral format.
 Two-electron integral symmetry is turned on.
 ------------------------------------------------------------------------------
 Polarizable Continuum Model (PCM)
 =================================
 Model                : PCM.
 Atomic radii         : SMD-Coulomb.
 Polarization charges : Total charges.
 Charge compensation  : None.
 Solution method      : On-the-fly selection.
 Cavity type          : VdW (van der Waals Surface) (Alpha=1.000).
 Cavity algorithm     : GePol (No added spheres)
                        Default sphere list used, NSphG=   11.
                        Lebedev-Laikov grids with approx.  5.0 points / Ang**2.
                        Smoothing algorithm: York/Karplus (Gamma=1.0000).
                        Polarization charges: spherical gaussians, with
                                              point-specific exponents (IZeta= 3).
                        Self-potential: point-specific (ISelfS= 7).
                        Self-field    : sphere-specific E.n sum rule (ISelfD= 2).
 1st derivatives      : Analytical E(r).r(x)/FMM algorithm (CHGder, D1EAlg=3).
                        Cavity 1st derivative terms included.
 Solvent              : Water, Eps=  78.355300 Eps(inf)=   1.777849
 ------------------------------------------------------------------------------
 Spheres list:
 ISph  on   Nord     Re0    Alpha      Xe            Ye            Ze
    1   N      1    1.8900  1.000      0.158769     -0.425297     -0.141420
    2   N      2    1.8900  1.000      0.627347      0.973979      0.065183
    3   C      3    1.8500  1.000      2.128459      0.894818      0.160867
    4   C      4    1.8500  1.000      2.540134     -0.568433      0.007970
    5   N      5    1.8900  1.000      1.292836     -1.391111     -0.182216
    6   H      6    1.2000  1.000      2.835395      1.774948      0.319798
    7   H      7    1.2000  1.000      3.607306     -0.968481      0.032934
    8   H      8    1.2000  1.000     -0.105338      1.806198      0.117016
    9   C      9    1.8500  1.000     -2.223202      0.060322      0.014507
   10   O     10    1.5200  1.000     -1.897220      1.523592     -0.166264
   11   O     11    1.5200  1.000     -2.548077     -1.403081      0.196184
 ------------------------------------------------------------------------------
 ------------------------------------------------------------------------------
 Atomic radii for non-electrostatic terms: SMD-CDS.
 ------------------------------------------------------------------------------
 Nuclear repulsion after PCM non-electrostatic terms =      307.6595028836 Hartrees.
 One-electron integrals computed using PRISM.
 NBasis=   167 RedAO= T EigKep=  8.66D-05  NBF=   167
 NBsUse=   167 1.00D-06 EigRej= -1.00D+00 NBFU=   167
 ExpMin= 4.38D-02 ExpMax= 5.48D+03 ExpMxC= 8.25D+02 IAcc=3 IRadAn=         5 AccDes= 0.00D+00
 Harris functional with IExCor= 1009 and IRadAn=       5 diagonalized for initial guess.
 HarFok:  IExCor= 1009 AccDes= 0.00D+00 IRadAn=         5 IDoV= 1 UseB2=F ITyADJ=14
 ICtDFT=  3500011 ScaDFX=  1.000000  1.000000  1.000000  1.000000
 FoFCou: FMM=F IPFlag=           0 FMFlag=      100000 FMFlg1=           0
         NFxFlg=           0 DoJE=T BraDBF=F KetDBF=T FulRan=T
         wScrn=  0.000000 ICntrl=       500 IOpCl=  0 I1Cent=   200000004 NGrid=           0
         NMat0=    1 NMatS0=      1 NMatT0=    0 NMatD0=    1 NMtDS0=    0 NMtDT0=    0
 Petite list used in FoFCou.
 Keep R1 ints in memory in canonical form, NReq=118249495.
 Requested convergence on RMS density matrix=1.00D-08 within 128 cycles.
 Requested convergence on MAX density matrix=1.00D-06.
 Requested convergence on             energy=1.00D-06.
 No special actions if energy rises.
 Inv3:  Mode=1 IEnd=     3776652.
 Iteration    1 A*A^-1 deviation from unit magnitude is 2.89D-15 for   1119.
 Iteration    1 A*A^-1 deviation from orthogonality  is 1.77D-15 for    351     51.
 Iteration    1 A^-1*A deviation from unit magnitude is 2.89D-15 for    623.
 Iteration    1 A^-1*A deviation from orthogonality  is 1.04D-15 for    612     94.
 Error on total polarization charges =  0.03808
 SCF Done:  E(RM062X) =  -430.309871112     A.U. after   16 cycles
            NFock= 16  Conv=0.86D-08     -V/T= 2.0157
 SMD-CDS (non-electrostatic) energy       (kcal/mol) =       4.38
 (included in total energy above)

 **********************************************************************

            Population analysis using the SCF density.

 **********************************************************************

 Orbital symmetries:
       Occupied  (A) (A) (A) (A) (A) (A) (A) (A) (A) (A) (A) (A)
                 (A) (A) (A) (A) (A) (A) (A) (A) (A) (A) (A) (A)
                 (A) (A) (A) (A) (A)
       Virtual   (A) (A) (A) (A) (A) (A) (A) (A) (A) (A) (A) (A)
                 (A) (A) (A) (A) (A) (A) (A) (A) (A) (A) (A) (A)
                 (A) (A) (A) (A) (A) (A) (A) (A) (A) (A) (A) (A)
                 (A) (A) (A) (A) (A) (A) (A) (A) (A) (A) (A) (A)
                 (A) (A) (A) (A) (A) (A) (A) (A) (A) (A) (A) (A)
                 (A) (A) (A) (A) (A) (A) (A) (A) (A) (A) (A) (A)
                 (A) (A) (A) (A) (A) (A) (A) (A) (A) (A) (A) (A)
                 (A) (A) (A) (A) (A) (A) (A) (A) (A) (A) (A) (A)
                 (A) (A) (A) (A) (A) (A) (A) (A) (A) (A) (A) (A)
                 (A) (A) (A) (A) (A) (A) (A) (A) (A) (A) (A) (A)
                 (A) (A) (A) (A) (A) (A) (A) (A) (A) (A) (A) (A)
                 (A) (A) (A) (A) (A) (A)
 The electronic state is 1-A.
 Alpha  occ. eigenvalues --  -19.77097 -19.76880 -14.88112 -14.87321 -14.84881
 Alpha  occ. eigenvalues --  -10.86256 -10.64714 -10.62897  -1.15261  -1.12183
 Alpha  occ. eigenvalues --   -1.11072  -0.96381  -0.86076  -0.72556  -0.69630
 Alpha  occ. eigenvalues --   -0.67175  -0.60860  -0.55395  -0.51506  -0.50667
 Alpha  occ. eigenvalues --   -0.50320  -0.49586  -0.48721  -0.43018  -0.42751
 Alpha  occ. eigenvalues --   -0.39869  -0.38866  -0.35689  -0.31278
 Alpha virt. eigenvalues --   -0.09000  -0.08667  -0.07026  -0.03117   0.02513
 Alpha virt. eigenvalues --    0.02699   0.03719   0.04833   0.05380   0.05915
 Alpha virt. eigenvalues --    0.06208   0.08355   0.08708   0.09179   0.10542
 Alpha virt. eigenvalues --    0.11422   0.12250   0.14395   0.16102   0.16819
 Alpha virt. eigenvalues --    0.17210   0.17950   0.18274   0.19957   0.20334
 Alpha virt. eigenvalues --    0.21453   0.22401   0.23518   0.24123   0.25278
 Alpha virt. eigenvalues --    0.25293   0.26264   0.27727   0.28045   0.29346
 Alpha virt. eigenvalues --    0.29936   0.31543   0.32645   0.33781   0.34851
 Alpha virt. eigenvalues --    0.34887   0.37009   0.37343   0.38932   0.41605
 Alpha virt. eigenvalues --    0.43877   0.66804   0.67157   0.71255   0.74444
 Alpha virt. eigenvalues --    0.76868   0.81007   0.82571   0.84939   0.91991
 Alpha virt. eigenvalues --    0.92790   0.93717   0.95747   0.97102   0.98149
 Alpha virt. eigenvalues --    0.98674   1.00899   1.03649   1.05896   1.08341
 Alpha virt. eigenvalues --    1.11362   1.12109   1.16569   1.21594   1.24042
 Alpha virt. eigenvalues --    1.25864   1.27649   1.29701   1.31512   1.32401
 Alpha virt. eigenvalues --    1.35320   1.36046   1.36512   1.38287   1.39237
 Alpha virt. eigenvalues --    1.42283   1.47649   1.49163   1.50659   1.55083
 Alpha virt. eigenvalues --    1.55650   1.57643   1.59309   1.67964   1.74152
 Alpha virt. eigenvalues --    1.76180   1.78026   1.80354   1.81211   1.83268
 Alpha virt. eigenvalues --    1.85721   1.86810   1.88145   1.90609   1.91139
 Alpha virt. eigenvalues --    1.92376   1.95349   1.98607   2.00054   2.06348
 Alpha virt. eigenvalues --    2.08608   2.09228   2.15532   2.23578   2.35836
 Alpha virt. eigenvalues --    2.37830   2.38299   2.41998   2.42807   2.43969
 Alpha virt. eigenvalues --    2.48685   2.50496   2.50632   2.58468   2.61048
 Alpha virt. eigenvalues --    2.63056   2.70316   2.75087   2.82761   2.88113
 Alpha virt. eigenvalues --    3.01425   3.03930   3.12717   3.28938   3.50454
 Alpha virt. eigenvalues --    3.88388   4.04894   4.14302   4.19555   4.30005
 Alpha virt. eigenvalues --    4.31895   4.35072   4.54690
          Condensed to atoms (all electrons):
               1          2          3          4          5          6
     1  N    6.736227   0.230713  -0.070469   0.015053   0.197969   0.002193
     2  N    0.230713   6.588636   0.290278  -0.120006   0.028606  -0.027420
     3  C   -0.070469   0.290278   5.406601   0.287213  -0.059180   0.359484
     4  C    0.015053  -0.120006   0.287213   5.335099   0.313421  -0.005558
     5  N    0.197969   0.028606  -0.059180   0.313421   6.756402   0.000985
     6  H    0.002193  -0.027420   0.359484  -0.005558   0.000985   0.399619
     7  H    0.005654  -0.001590  -0.004183   0.352429  -0.023737   0.000618
     8  H    0.008624   0.266146  -0.000720  -0.000080  -0.002291   0.000212
     9  C    0.002304   0.027371  -0.012016   0.000204  -0.010824   0.000040
    10  O   -0.014110  -0.001222   0.006943  -0.005269   0.009981  -0.000102
    11  O   -0.011619   0.000783  -0.000815  -0.000490  -0.011447   0.000003
               7          8          9         10         11
     1  N    0.005654   0.008624   0.002304  -0.014110  -0.011619
     2  N   -0.001590   0.266146   0.027371  -0.001222   0.000783
     3  C   -0.004183  -0.000720  -0.012016   0.006943  -0.000815
     4  C    0.352429  -0.000080   0.000204  -0.005269  -0.000490
     5  N   -0.023737  -0.002291  -0.010824   0.009981  -0.011447
     6  H    0.000618   0.000212   0.000040  -0.000102   0.000003
     7  H    0.408603  -0.000012   0.000086   0.000005   0.000006
     8  H   -0.000012   0.260116  -0.001436   0.002360   0.000420
     9  C    0.000086  -0.001436   4.662240   0.291713   0.333628
    10  O    0.000005   0.002360   0.291713   8.140874  -0.039454
    11  O    0.000006   0.000420   0.333628  -0.039454   8.082798
 Mulliken charges:
               1
     1  N   -0.102539
     2  N   -0.282294
     3  C   -0.203135
     4  C   -0.172015
     5  N   -0.199884
     6  H    0.269927
     7  H    0.262121
     8  H    0.466661
     9  C    0.706690
    10  O   -0.391718
    11  O   -0.353813
 Sum of Mulliken charges =  -0.00000
 Mulliken charges with hydrogens summed into heavy atoms:
               1
     1  N   -0.102539
     2  N    0.184367
     3  C    0.066792
     4  C    0.090105
     5  N   -0.199884
     9  C    0.706690
    10  O   -0.391718
    11  O   -0.353813
 Electronic spatial extent (au):  <R**2>=           1109.3043
 Charge=             -0.0000 electrons
 Dipole moment (field-independent basis, Debye):
    X=              3.7088    Y=              5.8481    Z=              0.9311  Tot=              6.9873
 Quadrupole moment (field-independent basis, Debye-Ang):
   XX=            -34.6285   YY=            -48.4239   ZZ=            -49.3257
   XY=              1.8558   XZ=              1.3876   YZ=              1.1249
 Traceless Quadrupole moment (field-independent basis, Debye-Ang):
   XX=              9.4976   YY=             -4.2979   ZZ=             -5.1997
   XY=              1.8558   XZ=              1.3876   YZ=              1.1249
 Octapole moment (field-independent basis, Debye-Ang**2):
  XXX=             47.2335  YYY=             28.0485  ZZZ=              0.3053  XYY=             12.9776
  XXY=             10.9195  XXZ=              2.9311  XZZ=             -8.9188  YZZ=              1.7863
  YYZ=              3.3078  XYZ=             -0.4898
 Hexadecapole moment (field-independent basis, Debye-Ang**3):
 XXXX=           -873.3216 YYYY=           -350.2330 ZZZZ=            -58.3356 XXXY=            -18.5001
 XXXZ=             13.7969 YYYX=             30.2230 YYYZ=              0.4638 ZZZX=             -0.7936
 ZZZY=             -1.6439 XXYY=           -235.6470 XXZZ=           -196.2425 YYZZ=            -73.7507
 XXYZ=              8.2961 YYXZ=              4.4836 ZZXY=              1.6960
 N-N= 3.076595028836D+02 E-N=-1.618838923109D+03  KE= 4.236658675648D+02
 D1PCM: PCM CHGder 1st derivatives, ID1Alg=3 FixD1E=F DoIter=F DoCFld=F I1PDM=0.
 Calling FoFJK, ICntrl=      2127 FMM=F ISym2X=0 I1Cent= 0 IOpClX= 0 NMat=1 NMatS=1 NMatT=0.
 ***** Axes restored to original set *****
 -------------------------------------------------------------------
 Center     Atomic                   Forces (Hartrees/Bohr)
 Number     Number              X              Y              Z
 -------------------------------------------------------------------
      1        7           0.093826880    0.004796836    0.001615256
      2        7           0.059025018    0.104415579   -0.000233156
      3        6          -0.057424006    0.046365177   -0.000026907
      4        6          -0.075139730   -0.070807001    0.000123139
      5        7           0.034469810   -0.136327360   -0.001071525
      6        1          -0.034408238    0.015379444   -0.000005273
      7        1          -0.033664038   -0.017767900    0.000105914
      8        1           0.027521051    0.053327590   -0.000298345
      9        6           0.012929352    0.019227215   -0.000383690
     10        8          -0.123930918    0.196358228   -0.060270972
     11        8           0.096794820   -0.214967809    0.060445558
 -------------------------------------------------------------------
 Cartesian Forces:  Max     0.214967809 RMS     0.074444793

 GradGradGradGradGradGradGradGradGradGradGradGradGradGradGradGradGradGrad
 Berny optimization.
 FormGI is forming the generalized inverse of G from B-inverse, IUseBI=4.
 Internal  Forces:  Max     0.243064879 RMS     0.066692798
 Search for a local minimum.
 Step number   1 out of a maximum of   52
 All quantities printed in internal units (Hartrees-Bohrs-Radians)
 Mixed Optimization -- RFO/linear search
 Second derivative matrix not updated -- first step.
 ITU=  0
     Eigenvalues ---    0.00230   0.00230   0.00237   0.00237   0.00249
     Eigenvalues ---    0.00263   0.00329   0.00336   0.00367   0.05723
     Eigenvalues ---    0.16000   0.16000   0.16000   0.16000   0.22156
     Eigenvalues ---    0.23876   0.25000   0.29012   0.29618   0.29623
     Eigenvalues ---    0.30478   0.31350   0.31351   0.31562   0.32600
     Eigenvalues ---    0.32651   0.33181
 RFO step:  Lambda=-3.04567498D-01 EMin= 2.30000000D-03
 Linear search not attempted -- first point.
 Maximum step size (   0.300) exceeded in Quadratic search.
    -- Step size scaled by   0.424
 Iteration  1 RMS(Cart)=  0.05491048 RMS(Int)=  0.00076473
 Iteration  2 RMS(Cart)=  0.00150523 RMS(Int)=  0.00001584
 Iteration  3 RMS(Cart)=  0.00000220 RMS(Int)=  0.00001571
 Iteration  4 RMS(Cart)=  0.00000000 RMS(Int)=  0.00001571
 Variable       Old X    -DE/DX   Delta X   Delta X   Delta X     New X
                                 (Linear)    (Quad)   (Total)
    R1        2.81577  -0.10448   0.00000  -0.06986  -0.06983   2.74594
    R2        2.81599  -0.12175   0.00000  -0.08117  -0.08118   2.73481
    R3        2.84638  -0.11925   0.00000  -0.08129  -0.08127   2.76512
    R4        2.09760  -0.05432   0.00000  -0.03653  -0.03653   2.06106
    R5        2.88699  -0.11781   0.00000  -0.08257  -0.08258   2.80441
    R6        2.15433  -0.03685   0.00000  -0.02602  -0.02602   2.12831
    R7        2.84636  -0.09785   0.00000  -0.06641  -0.06644   2.77992
    R8        2.15422  -0.03771   0.00000  -0.02662  -0.02662   2.12760
    R9        3.46957   0.01404   0.00000   0.01645   0.01645   3.48602
   R10        2.85349  -0.23215   0.00000  -0.15928  -0.15928   2.69421
   R11        2.85349  -0.24306   0.00000  -0.16677  -0.16677   2.68672
    A1        1.95316  -0.02409   0.00000  -0.01991  -0.01989   1.93328
    A2        1.84716   0.02990   0.00000   0.02352   0.02357   1.87073
    A3        2.09783  -0.02467   0.00000  -0.02063  -0.02066   2.07718
    A4        2.33819  -0.00523   0.00000  -0.00289  -0.00291   2.33528
    A5        1.88865  -0.02064   0.00000  -0.01606  -0.01605   1.87260
    A6        2.19725   0.00183   0.00000   0.00027   0.00027   2.19752
    A7        2.19728   0.01882   0.00000   0.01579   0.01578   2.21306
    A8        1.88875   0.00594   0.00000   0.00578   0.00574   1.89449
    A9        2.19714   0.00259   0.00000   0.00219   0.00220   2.19935
   A10        2.19729  -0.00853   0.00000  -0.00796  -0.00795   2.18934
   A11        1.84705   0.00889   0.00000   0.00667   0.00662   1.85367
   A12        2.11952   0.00507   0.00000   0.00388   0.00388   2.12340
   A13        1.91918   0.01231   0.00000   0.01124   0.01124   1.93042
   A14        3.14090   0.03506   0.00000   0.04844   0.04844   3.18933
   A15        3.14094   0.00025   0.00000   0.00035   0.00035   3.14129
    D1       -0.00046   0.00055   0.00000   0.00075   0.00075   0.00030
    D2        3.14118   0.00039   0.00000   0.00053   0.00053  -3.14147
    D3        0.00057  -0.00057   0.00000  -0.00078  -0.00077  -0.00020
    D4        0.00015  -0.00030   0.00000  -0.00042  -0.00042  -0.00027
    D5       -3.14159  -0.00020   0.00000  -0.00027  -0.00027   3.14133
    D6       -3.14149  -0.00011   0.00000  -0.00015  -0.00015   3.14154
    D7       -0.00005  -0.00001   0.00000  -0.00001  -0.00001  -0.00005
    D8       -0.07739   0.00078   0.00000   0.00107   0.00107  -0.07632
    D9        3.06426   0.00056   0.00000   0.00078   0.00078   3.06504
   D10        0.00019  -0.00003   0.00000  -0.00004  -0.00004   0.00015
   D11        3.14123   0.00006   0.00000   0.00009   0.00009   3.14132
   D12       -3.14126  -0.00013   0.00000  -0.00018  -0.00019  -3.14144
   D13       -0.00022  -0.00004   0.00000  -0.00006  -0.00006  -0.00028
   D14       -0.00045   0.00034   0.00000   0.00048   0.00048   0.00003
   D15       -3.14149   0.00025   0.00000   0.00035   0.00035  -3.14114
   D16        0.33815   0.00140   0.00000   0.00194   0.00194   0.34009
         Item               Value     Threshold  Converged?
 Maximum Force            0.243065     0.000450     NO 
 RMS     Force            0.066693     0.000300     NO 
 Maximum Displacement     0.190134     0.001800     NO 
 RMS     Displacement     0.054925     0.001200     NO 
 Predicted change in Energy=-1.154767D-01
 GradGradGradGradGradGradGradGradGradGradGradGradGradGradGradGradGradGrad

                          Input orientation:                          
 ---------------------------------------------------------------------
 Center     Atomic      Atomic             Coordinates (Angstroms)
 Number     Number       Type             X           Y           Z
 ---------------------------------------------------------------------
      1          7           0       -3.250095    0.584615   -0.005714
      2          7           0       -2.433385   -0.617237   -0.005220
      3          6           0       -1.034192   -0.189115    0.000577
      4          6           0       -1.026961    1.294894    0.003176
      5          7           0       -2.419329    1.769601   -0.000822
      6          1           0       -0.135657   -0.868141    0.002645
      7          1           0       -0.113053    1.952428    0.007870
      8          1           0       -2.924946   -1.590845   -0.008726
      9          6           0       -5.392365   -0.524373   -0.256305
     10          8           0       -4.759314   -1.749830    0.104476
     11          8           0       -6.082039    0.663696   -0.622663
 ---------------------------------------------------------------------
                    Distance matrix (angstroms):
                    1          2          3          4          5
     1  N    0.000000
     2  N    1.453087   0.000000
     3  C    2.347109   1.463237   0.000000
     4  C    2.333859   2.373678   1.484030   0.000000
     5  N    1.447200   2.386883   2.398995   1.471072   0.000000
     6  H    3.436611   2.311401   1.126253   2.339476   3.488962
     7  H    3.422299   3.462267   2.331257   1.125878   2.313528
     8  H    2.199626   1.090668   2.353695   3.453980   3.398280
     9  C    2.425278   2.971065   4.378591   4.736435   3.763845
    10  O    2.781999   2.589353   4.040193   4.817787   4.227649
    11  O    2.899446   3.915954   5.157176   5.132631   3.876229
                    6          7          8          9         10
     6  H    0.000000
     7  H    2.820665   0.000000
     8  H    2.881418   4.523473   0.000000
     9  C    5.274298   5.837420   2.699410   0.000000
    10  O    4.708074   5.941700   1.844721   1.425715   0.000000
    11  O    6.172276   6.138990   3.927735   1.421750   2.846654
                   11
    11  O    0.000000
 Stoichiometry    C3H3N3O2
 Framework group  C1[X(C3H3N3O2)]
 Deg. of freedom    27
 Full point group                 C1      NOp   1
 Largest Abelian subgroup         C1      NOp   1
 Largest concise Abelian subgroup C1      NOp   1
                         Standard orientation:                         
 ---------------------------------------------------------------------
 Center     Atomic      Atomic             Coordinates (Angstroms)
 Number     Number       Type             X           Y           Z
 ---------------------------------------------------------------------
      1          7           0        0.178462   -0.430828   -0.133133
      2          7           0        0.647278    0.930586    0.062384
      3          6           0        2.106698    0.876429    0.153058
      4          6           0        2.505191   -0.545756    0.008362
      5          7           0        1.290551   -1.356172   -0.170318
      6          1           0        2.792223    1.757050    0.304743
      7          1           0        3.558159   -0.943724    0.030317
      8          1           0       -0.082635    1.739536    0.111215
      9          6           0       -2.192515    0.058703    0.011103
     10          8           0       -1.881427    1.438743   -0.166032
     11          8           0       -2.568326   -1.300521    0.191790
 ---------------------------------------------------------------------
 Rotational constants (GHZ):           4.1224054           1.2620834           0.9741589
 Standard basis: 6-31+G(d,p) (6D, 7F)
 There are   167 symmetry adapted cartesian basis functions of A   symmetry.
 There are   167 symmetry adapted basis functions of A   symmetry.
   167 basis functions,   277 primitive gaussians,   167 cartesian basis functions
    29 alpha electrons       29 beta electrons
       nuclear repulsion energy       315.3163319399 Hartrees.
 NAtoms=   11 NActive=   11 NUniq=   11 SFac= 1.00D+00 NAtFMM=   60 NAOKFM=F Big=F
 Integral buffers will be    131072 words long.
 Raffenetti 2 integral format.
 Two-electron integral symmetry is turned on.
 ------------------------------------------------------------------------------
 Polarizable Continuum Model (PCM)
 =================================
 Model                : PCM.
 Atomic radii         : SMD-Coulomb.
 Polarization charges : Total charges.
 Charge compensation  : None.
 Solution method      : On-the-fly selection.
 Cavity type          : VdW (van der Waals Surface) (Alpha=1.000).
 Cavity algorithm     : GePol (No added spheres)
                        Default sphere list used, NSphG=   11.
                        Lebedev-Laikov grids with approx.  5.0 points / Ang**2.
                        Smoothing algorithm: York/Karplus (Gamma=1.0000).
                        Polarization charges: spherical gaussians, with
                                              point-specific exponents (IZeta= 3).
                        Self-potential: point-specific (ISelfS= 7).
                        Self-field    : sphere-specific E.n sum rule (ISelfD= 2).
 1st derivatives      : Analytical E(r).r(x)/FMM algorithm (CHGder, D1EAlg=3).
                        Cavity 1st derivative terms included.
 Solvent              : Water, Eps=  78.355300 Eps(inf)=   1.777849
 ------------------------------------------------------------------------------
 Spheres list:
 ISph  on   Nord     Re0    Alpha      Xe            Ye            Ze
    1   N      1    1.8900  1.000      0.178462     -0.430828     -0.133133
    2   N      2    1.8900  1.000      0.647278      0.930586      0.062384
    3   C      3    1.8500  1.000      2.106698      0.876429      0.153058
    4   C      4    1.8500  1.000      2.505191     -0.545756      0.008362
    5   N      5    1.8900  1.000      1.290551     -1.356172     -0.170318
    6   H      6    1.2000  1.000      2.792223      1.757050      0.304743
    7   H      7    1.2000  1.000      3.558159     -0.943724      0.030317
    8   H      8    1.2000  1.000     -0.082635      1.739536      0.111215
    9   C      9    1.8500  1.000     -2.192515      0.058703      0.011103
   10   O     10    1.5200  1.000     -1.881427      1.438743     -0.166032
   11   O     11    1.5200  1.000     -2.568326     -1.300521      0.191790
 ------------------------------------------------------------------------------
 ------------------------------------------------------------------------------
 Atomic radii for non-electrostatic terms: SMD-CDS.
 ------------------------------------------------------------------------------
 Nuclear repulsion after PCM non-electrostatic terms =      315.3228451561 Hartrees.
 One-electron integrals computed using PRISM.
 NBasis=   167 RedAO= T EigKep=  7.02D-05  NBF=   167
 NBsUse=   167 1.00D-06 EigRej= -1.00D+00 NBFU=   167
 Initial guess from the checkpoint file:  "/scratch/gongke2021/1-H-Tz-RC/Gau-29187.chk"
 B after Tr=    -0.000000    0.000000   -0.000000
         Rot=    0.999994    0.002740    0.000434    0.001892 Ang=   0.38 deg.
 ExpMin= 4.38D-02 ExpMax= 5.48D+03 ExpMxC= 8.25D+02 IAcc=2 IRadAn=         4 AccDes= 0.00D+00
 Harris functional with IExCor= 1009 and IRadAn=       4 diagonalized for initial guess.
 HarFok:  IExCor= 1009 AccDes= 0.00D+00 IRadAn=         4 IDoV= 1 UseB2=F ITyADJ=14
 ICtDFT=  3500011 ScaDFX=  1.000000  1.000000  1.000000  1.000000
 FoFCou: FMM=F IPFlag=           0 FMFlag=      100000 FMFlg1=           0
         NFxFlg=           0 DoJE=T BraDBF=F KetDBF=T FulRan=T
         wScrn=  0.000000 ICntrl=       500 IOpCl=  0 I1Cent=   200000004 NGrid=           0
         NMat0=    1 NMatS0=      1 NMatT0=    0 NMatD0=    1 NMtDS0=    0 NMtDT0=    0
 Petite list used in FoFCou.
 Keep R1 ints in memory in canonical form, NReq=118249495.
 Requested convergence on RMS density matrix=1.00D-08 within 128 cycles.
 Requested convergence on MAX density matrix=1.00D-06.
 Requested convergence on             energy=1.00D-06.
 No special actions if energy rises.
 Inv3:  Mode=1 IEnd=     3636603.
 Iteration    1 A*A^-1 deviation from unit magnitude is 3.55D-15 for    658.
 Iteration    1 A*A^-1 deviation from orthogonality  is 1.79D-15 for   1086    757.
 Iteration    1 A^-1*A deviation from unit magnitude is 3.00D-15 for   1070.
 Iteration    1 A^-1*A deviation from orthogonality  is 3.15D-14 for    423    345.
 Error on total polarization charges =  0.03666
 SCF Done:  E(RM062X) =  -430.435796827     A.U. after   15 cycles
            NFock= 15  Conv=0.30D-08     -V/T= 2.0147
 SMD-CDS (non-electrostatic) energy       (kcal/mol) =       4.09
 (included in total energy above)
 D1PCM: PCM CHGder 1st derivatives, ID1Alg=3 FixD1E=F DoIter=F DoCFld=F I1PDM=0.
 Calling FoFJK, ICntrl=      2127 FMM=F ISym2X=0 I1Cent= 0 IOpClX= 0 NMat=1 NMatS=1 NMatT=0.
 ***** Axes restored to original set *****
 -------------------------------------------------------------------
 Center     Atomic                   Forces (Hartrees/Bohr)
 Number     Number              X              Y              Z
 -------------------------------------------------------------------
      1        7           0.087493998    0.008314377    0.001567724
      2        7           0.046070603    0.087290009    0.000227789
      3        6          -0.049018101    0.037702407   -0.000146385
      4        6          -0.062757982   -0.055845522   -0.000206875
      5        7           0.024552336   -0.119615894   -0.000931047
      6        1          -0.028235431    0.012115755   -0.000091910
      7        1          -0.027716152   -0.013457589   -0.000032343
      8        1           0.026257520    0.044716082   -0.000006426
      9        6          -0.003512686    0.012165063   -0.002346002
     10        8          -0.123306897    0.196669833   -0.060383958
     11        8           0.110172793   -0.210054521    0.062349432
 -------------------------------------------------------------------
 Cartesian Forces:  Max     0.210054521 RMS     0.070858055

 GradGradGradGradGradGradGradGradGradGradGradGradGradGradGradGradGradGrad
 Berny optimization.
 Using GEDIIS/GDIIS optimizer.
 FormGI is forming the generalized inverse of G from B-inverse, IUseBI=4.
 Internal  Forces:  Max     0.245045558 RMS     0.062951782
 Search for a local minimum.
 Step number   2 out of a maximum of   52
 All quantities printed in internal units (Hartrees-Bohrs-Radians)
 Mixed Optimization -- RFO/linear search
 Update second derivatives using D2CorX and points    1    2
 DE= -1.26D-01 DEPred=-1.15D-01 R= 1.09D+00
 TightC=F SS=  1.41D+00  RLast= 3.00D-01 DXNew= 5.0454D-01 9.0004D-01
 Trust test= 1.09D+00 RLast= 3.00D-01 DXMaxT set to 5.05D-01
 ITU=  1  0
 Use linear search instead of GDIIS.
 Linear search step of   0.600 exceeds DXMaxT=   0.505 but not scaled.
 Quartic linear search produced a step of  2.00000.
 Iteration  1 RMS(Cart)=  0.09266758 RMS(Int)=  0.02959523
 Iteration  2 RMS(Cart)=  0.03664280 RMS(Int)=  0.00017725
 Iteration  3 RMS(Cart)=  0.00049817 RMS(Int)=  0.00009656
 Iteration  4 RMS(Cart)=  0.00000021 RMS(Int)=  0.00009656
 Variable       Old X    -DE/DX   Delta X   Delta X   Delta X     New X
                                 (Linear)    (Quad)   (Total)
    R1        2.74594  -0.08918  -0.13967   0.00000  -0.13951   2.60642
    R2        2.73481  -0.10750  -0.16236   0.00000  -0.16240   2.57241
    R3        2.76512  -0.09861  -0.16253   0.00000  -0.16239   2.60273
    R4        2.06106  -0.04314  -0.07307   0.00000  -0.07307   1.98800
    R5        2.80441  -0.09557  -0.16516   0.00000  -0.16523   2.63918
    R6        2.12831  -0.02983  -0.05203   0.00000  -0.05203   2.07628
    R7        2.77992  -0.08285  -0.13287   0.00000  -0.13305   2.64687
    R8        2.12760  -0.03036  -0.05324   0.00000  -0.05324   2.07436
    R9        3.48602   0.01663   0.03290   0.00000   0.03290   3.51892
   R10        2.69421  -0.23265  -0.31855   0.00000  -0.31855   2.37566
   R11        2.68672  -0.24505  -0.33353   0.00000  -0.33353   2.35319
    A1        1.93328  -0.01722  -0.03977   0.00000  -0.03962   1.89366
    A2        1.87073   0.02301   0.04714   0.00000   0.04741   1.91814
    A3        2.07718  -0.01510  -0.04131   0.00000  -0.04145   2.03573
    A4        2.33528  -0.00791  -0.00583   0.00000  -0.00596   2.32932
    A5        1.87260  -0.01703  -0.03209   0.00000  -0.03201   1.84059
    A6        2.19752   0.00070   0.00054   0.00000   0.00050   2.19802
    A7        2.21306   0.01634   0.03156   0.00000   0.03152   2.24458
    A8        1.89449   0.00286   0.01148   0.00000   0.01127   1.90576
    A9        2.19935   0.00418   0.00441   0.00000   0.00452   2.20386
   A10        2.18934  -0.00704  -0.01589   0.00000  -0.01578   2.17356
   A11        1.85367   0.00838   0.01324   0.00000   0.01295   1.86662
   A12        2.12340   0.01541   0.00775   0.00000   0.00775   2.13115
   A13        1.93042   0.01659   0.02248   0.00000   0.02248   1.95290
   A14        3.18933   0.02744   0.09688   0.00000   0.09688   3.28621
   A15        3.14129   0.00018   0.00069   0.00000   0.00069   3.14198
    D1        0.00030   0.00043   0.00151   0.00000   0.00151   0.00181
    D2       -3.14147   0.00029   0.00106   0.00000   0.00106  -3.14041
    D3       -0.00020  -0.00043  -0.00155   0.00000  -0.00150  -0.00170
    D4       -0.00027  -0.00024  -0.00084   0.00000  -0.00086  -0.00113
    D5        3.14133  -0.00015  -0.00055   0.00000  -0.00057   3.14076
    D6        3.14154  -0.00008  -0.00031   0.00000  -0.00031   3.14123
    D7       -0.00005   0.00001  -0.00001   0.00000  -0.00001  -0.00006
    D8       -0.07632   0.00070   0.00214   0.00000   0.00213  -0.07418
    D9        3.06504   0.00053   0.00155   0.00000   0.00156   3.06660
   D10        0.00015  -0.00002  -0.00008   0.00000  -0.00008   0.00007
   D11        3.14132   0.00005   0.00018   0.00000   0.00019   3.14150
   D12       -3.14144  -0.00011  -0.00037   0.00000  -0.00039   3.14135
   D13       -0.00028  -0.00004  -0.00012   0.00000  -0.00012  -0.00040
   D14        0.00003   0.00027   0.00096   0.00000   0.00099   0.00102
   D15       -3.14114   0.00019   0.00070   0.00000   0.00072  -3.14042
   D16        0.34009   0.00209   0.00387   0.00000   0.00387   0.34397
         Item               Value     Threshold  Converged?
 Maximum Force            0.245046     0.000450     NO 
 RMS     Force            0.062952     0.000300     NO 
 Maximum Displacement     0.369537     0.001800     NO 
 RMS     Displacement     0.110079     0.001200     NO 
 Predicted change in Energy=-2.264451D-01
 GradGradGradGradGradGradGradGradGradGradGradGradGradGradGradGradGradGrad

                          Input orientation:                          
 ---------------------------------------------------------------------
 Center     Atomic      Atomic             Coordinates (Angstroms)
 Number     Number       Type             X           Y           Z
 ---------------------------------------------------------------------
      1          7           0       -3.199294    0.596559   -0.017318
      2          7           0       -2.407977   -0.533118   -0.015685
      3          6           0       -1.078375   -0.174153    0.000857
      4          6           0       -1.069910    1.222397    0.007963
      5          7           0       -2.389831    1.690923   -0.004229
      6          1           0       -0.223980   -0.864922    0.006596
      7          1           0       -0.181057    1.866387    0.021128
      8          1           0       -2.907483   -1.458911   -0.026144
      9          6           0       -5.322579   -0.504060   -0.248175
     10          8           0       -4.762899   -1.583554    0.070984
     11          8           0       -6.027952    0.468145   -0.576684
 ---------------------------------------------------------------------
                    Distance matrix (angstroms):
                    1          2          3          4          5
     1  N    0.000000
     2  N    1.379259   0.000000
     3  C    2.256684   1.377305   0.000000
     4  C    2.219592   2.207445   1.396594   0.000000
     5  N    1.361262   2.224145   2.280011   1.400662   0.000000
     6  H    3.314965   2.209170   1.098720   2.252221   3.350130
     7  H    3.274706   3.273859   2.229214   1.097705   2.215878
     8  H    2.076100   1.052003   2.235390   3.250731   3.192163
     9  C    2.402706   2.924004   4.264284   4.596896   3.671304
    10  O    2.684316   2.580036   3.945510   4.638481   4.044665
    11  O    2.886293   3.797561   5.024382   5.049048   3.880569
                    6          7          8          9         10
     6  H    0.000000
     7  H    2.731685   0.000000
     8  H    2.748651   4.300377   0.000000
     9  C    5.117698   5.668050   2.606477   0.000000
    10  O    4.595907   5.735666   1.862133   1.257144   0.000000
    11  O    5.983592   6.041411   3.708634   1.245252   2.495858
                   11
    11  O    0.000000
 Stoichiometry    C3H3N3O2
 Framework group  C1[X(C3H3N3O2)]
 Deg. of freedom    27
 Full point group                 C1      NOp   1
 Largest Abelian subgroup         C1      NOp   1
 Largest concise Abelian subgroup C1      NOp   1
                         Standard orientation:                         
 ---------------------------------------------------------------------
 Center     Atomic      Atomic             Coordinates (Angstroms)
 Number     Number       Type             X           Y           Z
 ---------------------------------------------------------------------
      1          7           0        0.216552   -0.440417   -0.115164
      2          7           0        0.678458    0.847905    0.055786
      3          6           0        2.053479    0.846325    0.135072
      4          6           0        2.432088   -0.492010    0.008628
      5          7           0        1.285900   -1.282214   -0.145271
      6          1           0        2.692612    1.729750    0.270179
      7          1           0        3.458484   -0.880866    0.024768
      8          1           0       -0.047941    1.607673    0.098287
      9          6           0       -2.133152    0.046529    0.006365
     10          8           0       -1.858718    1.261473   -0.163957
     11          8           0       -2.576783   -1.103790    0.181323
 ---------------------------------------------------------------------
 Rotational constants (GHZ):           5.0339600           1.3000511           1.0407830
 Standard basis: 6-31+G(d,p) (6D, 7F)
 There are   167 symmetry adapted cartesian basis functions of A   symmetry.
 There are   167 symmetry adapted basis functions of A   symmetry.
   167 basis functions,   277 primitive gaussians,   167 cartesian basis functions
    29 alpha electrons       29 beta electrons
       nuclear repulsion energy       332.7818081746 Hartrees.
 NAtoms=   11 NActive=   11 NUniq=   11 SFac= 1.00D+00 NAtFMM=   60 NAOKFM=F Big=F
 Integral buffers will be    131072 words long.
 Raffenetti 2 integral format.
 Two-electron integral symmetry is turned on.
 ------------------------------------------------------------------------------
 Polarizable Continuum Model (PCM)
 =================================
 Model                : PCM.
 Atomic radii         : SMD-Coulomb.
 Polarization charges : Total charges.
 Charge compensation  : None.
 Solution method      : On-the-fly selection.
 Cavity type          : VdW (van der Waals Surface) (Alpha=1.000).
 Cavity algorithm     : GePol (No added spheres)
                        Default sphere list used, NSphG=   11.
                        Lebedev-Laikov grids with approx.  5.0 points / Ang**2.
                        Smoothing algorithm: York/Karplus (Gamma=1.0000).
                        Polarization charges: spherical gaussians, with
                                              point-specific exponents (IZeta= 3).
                        Self-potential: point-specific (ISelfS= 7).
                        Self-field    : sphere-specific E.n sum rule (ISelfD= 2).
 1st derivatives      : Analytical E(r).r(x)/FMM algorithm (CHGder, D1EAlg=3).
                        Cavity 1st derivative terms included.
 Solvent              : Water, Eps=  78.355300 Eps(inf)=   1.777849
 ------------------------------------------------------------------------------
 Spheres list:
 ISph  on   Nord     Re0    Alpha      Xe            Ye            Ze
    1   N      1    1.8900  1.000      0.216552     -0.440417     -0.115164
    2   N      2    1.8900  1.000      0.678458      0.847905      0.055786
    3   C      3    1.8500  1.000      2.053479      0.846325      0.135072
    4   C      4    1.8500  1.000      2.432088     -0.492010      0.008628
    5   N      5    1.8900  1.000      1.285900     -1.282214     -0.145271
    6   H      6    1.2000  1.000      2.692612      1.729750      0.270179
    7   H      7    1.2000  1.000      3.458484     -0.880866      0.024768
    8   H      8    1.2000  1.000     -0.047941      1.607673      0.098287
    9   C      9    1.8500  1.000     -2.133152      0.046529      0.006365
   10   O     10    1.5200  1.000     -1.858718      1.261473     -0.163957
   11   O     11    1.5200  1.000     -2.576783     -1.103790      0.181323
 ------------------------------------------------------------------------------
 ------------------------------------------------------------------------------
 Atomic radii for non-electrostatic terms: SMD-CDS.
 ------------------------------------------------------------------------------
 Nuclear repulsion after PCM non-electrostatic terms =      332.7903553107 Hartrees.
 One-electron integrals computed using PRISM.
 NBasis=   167 RedAO= T EigKep=  4.39D-05  NBF=   167
 NBsUse=   167 1.00D-06 EigRej= -1.00D+00 NBFU=   167
 Initial guess from the checkpoint file:  "/scratch/gongke2021/1-H-Tz-RC/Gau-29187.chk"
 B after Tr=     0.000000    0.000000   -0.000000
         Rot=    0.999978    0.006399    0.000638    0.001492 Ang=   0.76 deg.
 ExpMin= 4.38D-02 ExpMax= 5.48D+03 ExpMxC= 8.25D+02 IAcc=2 IRadAn=         4 AccDes= 0.00D+00
 Harris functional with IExCor= 1009 and IRadAn=       4 diagonalized for initial guess.
 HarFok:  IExCor= 1009 AccDes= 0.00D+00 IRadAn=         4 IDoV= 1 UseB2=F ITyADJ=14
 ICtDFT=  3500011 ScaDFX=  1.000000  1.000000  1.000000  1.000000
 FoFCou: FMM=F IPFlag=           0 FMFlag=      100000 FMFlg1=           0
         NFxFlg=           0 DoJE=T BraDBF=F KetDBF=T FulRan=T
         wScrn=  0.000000 ICntrl=       500 IOpCl=  0 I1Cent=   200000004 NGrid=           0
         NMat0=    1 NMatS0=      1 NMatT0=    0 NMatD0=    1 NMtDS0=    0 NMtDT0=    0
 Petite list used in FoFCou.
 Keep R1 ints in memory in canonical form, NReq=118249495.
 Requested convergence on RMS density matrix=1.00D-08 within 128 cycles.
 Requested convergence on MAX density matrix=1.00D-06.
 Requested convergence on             energy=1.00D-06.
 No special actions if energy rises.
 Inv3:  Mode=1 IEnd=     3377163.
 Iteration    1 A*A^-1 deviation from unit magnitude is 4.44D-15 for   1052.
 Iteration    1 A*A^-1 deviation from orthogonality  is 2.08D-15 for   1054    837.
 Iteration    1 A^-1*A deviation from unit magnitude is 4.22D-15 for   1024.
 Iteration    1 A^-1*A deviation from orthogonality  is 2.44D-15 for   1045    999.
 Error on total polarization charges =  0.03410
 SCF Done:  E(RM062X) =  -430.630345041     A.U. after   14 cycles
            NFock= 14  Conv=0.26D-08     -V/T= 2.0111
 SMD-CDS (non-electrostatic) energy       (kcal/mol) =       5.36
 (included in total energy above)
 D1PCM: PCM CHGder 1st derivatives, ID1Alg=3 FixD1E=F DoIter=F DoCFld=F I1PDM=0.
 Calling FoFJK, ICntrl=      2127 FMM=F ISym2X=0 I1Cent= 0 IOpClX= 0 NMat=1 NMatS=1 NMatT=0.
 ***** Axes restored to original set *****
 -------------------------------------------------------------------
 Center     Atomic                   Forces (Hartrees/Bohr)
 Number     Number              X              Y              Z
 -------------------------------------------------------------------
      1        7           0.055144043    0.010426599    0.001233059
      2        7           0.007637241    0.034750570    0.000383529
      3        6          -0.015586461    0.005742542   -0.000255594
      4        6          -0.025028086   -0.007789709   -0.000260894
      5        7           0.005469617   -0.061817482   -0.000612216
      6        1          -0.014497290    0.003831248   -0.000180651
      7        1          -0.013710159   -0.003495073   -0.000101693
      8        1           0.020871685    0.022730622    0.000509655
      9        6          -0.023403028   -0.010375288   -0.001685561
     10        8          -0.075221460    0.117259718   -0.036178534
     11        8           0.078323899   -0.111263747    0.037148902
 -------------------------------------------------------------------
 Cartesian Forces:  Max     0.117259718 RMS     0.039649650

 GradGradGradGradGradGradGradGradGradGradGradGradGradGradGradGradGradGrad
 Berny optimization.
 Using GEDIIS/GDIIS optimizer.
 FormGI is forming the generalized inverse of G from B-inverse, IUseBI=4.
 Internal  Forces:  Max     0.141048729 RMS     0.034658015
 Search for a local minimum.
 Step number   3 out of a maximum of   52
 All quantities printed in internal units (Hartrees-Bohrs-Radians)
 Mixed Optimization -- RFO/linear search
 Update second derivatives using D2CorX and points    2    3
 ITU=  0  1  0
 Use linear search instead of GDIIS.
     Eigenvalues ---    0.00230   0.00230   0.00237   0.00243   0.00250
     Eigenvalues ---    0.00264   0.00328   0.00337   0.00368   0.05697
     Eigenvalues ---    0.15776   0.16000   0.16000   0.16036   0.22214
     Eigenvalues ---    0.23871   0.24013   0.28018   0.29620   0.29653
     Eigenvalues ---    0.30035   0.31240   0.31419   0.32086   0.32591
     Eigenvalues ---    0.33132   0.36196
 RFO step:  Lambda=-4.20333358D-02 EMin= 2.29987811D-03
 Quartic linear search produced a step of  0.56167.
 Maximum step size (   0.505) exceeded in Quadratic search.
    -- Step size scaled by   0.762
 Iteration  1 RMS(Cart)=  0.16682810 RMS(Int)=  0.03361861
 Iteration  2 RMS(Cart)=  0.07067158 RMS(Int)=  0.00493031
 Iteration  3 RMS(Cart)=  0.00451667 RMS(Int)=  0.00012998
 Iteration  4 RMS(Cart)=  0.00002071 RMS(Int)=  0.00012953
 Iteration  5 RMS(Cart)=  0.00000000 RMS(Int)=  0.00012953
 Variable       Old X    -DE/DX   Delta X   Delta X   Delta X     New X
                                 (Linear)    (Quad)   (Total)
    R1        2.60642  -0.04324  -0.07836  -0.00670  -0.08489   2.52153
    R2        2.57241  -0.05511  -0.09122  -0.01936  -0.11036   2.46205
    R3        2.60273  -0.03629  -0.09121   0.03481  -0.05649   2.54624
    R4        1.98800  -0.01638  -0.04104   0.01300  -0.02804   1.95996
    R5        2.63918  -0.02712  -0.09281   0.06768  -0.02537   2.61381
    R6        2.07628  -0.01369  -0.02922   0.00259  -0.02663   2.04965
    R7        2.64687  -0.03921  -0.07473  -0.00138  -0.07616   2.57071
    R8        2.07436  -0.01315  -0.02990   0.00542  -0.02448   2.04988
    R9        3.51892   0.02048   0.01848   0.13289   0.15137   3.67029
   R10        2.37566  -0.13794  -0.17892  -0.10814  -0.28706   2.08860
   R11        2.35319  -0.14105  -0.18734  -0.10026  -0.28759   2.06559
    A1        1.89366  -0.00024  -0.02225   0.03517   0.01337   1.90703
    A2        1.91814   0.00543   0.02663  -0.02825  -0.00159   1.91655
    A3        2.03573   0.00509  -0.02328   0.07677   0.05348   2.08920
    A4        2.32932  -0.01052  -0.00335  -0.04853  -0.05189   2.27743
    A5        1.84059  -0.00807  -0.01798   0.00710  -0.01123   1.82936
    A6        2.19802  -0.00232   0.00028  -0.01624  -0.01578   2.18224
    A7        2.24458   0.01039   0.01770   0.00914   0.02702   2.27159
    A8        1.90576  -0.00409   0.00633  -0.02490  -0.01886   1.88690
    A9        2.20386   0.00747   0.00254   0.02716   0.02984   2.23370
   A10        2.17356  -0.00338  -0.00887  -0.00226  -0.01098   2.16258
   A11        1.86662   0.00696   0.00727   0.01087   0.01832   1.88494
   A12        2.13115   0.03176   0.00436   0.10402   0.10837   2.23953
   A13        1.95290   0.02165   0.01263   0.08030   0.09293   2.04583
   A14        3.28621   0.00461   0.05441  -0.42342  -0.36901   2.91720
   A15        3.14198   0.00009   0.00039  -0.00127  -0.00088   3.14110
    D1        0.00181   0.00019   0.00085  -0.00351  -0.00267  -0.00086
    D2       -3.14041   0.00016   0.00060  -0.00166  -0.00099  -3.14140
    D3       -0.00170  -0.00020  -0.00084   0.00319   0.00240   0.00069
    D4       -0.00113  -0.00009  -0.00048   0.00229   0.00179   0.00066
    D5        3.14076  -0.00004  -0.00032   0.00196   0.00162  -3.14081
    D6        3.14123  -0.00006  -0.00017  -0.00005  -0.00019   3.14105
    D7       -0.00006  -0.00001  -0.00001  -0.00038  -0.00035  -0.00042
    D8       -0.07418   0.00048   0.00120  -0.00010   0.00109  -0.07309
    D9        3.06660   0.00045   0.00088   0.00233   0.00321   3.06981
   D10        0.00007  -0.00003  -0.00005  -0.00025  -0.00030  -0.00023
   D11        3.14150   0.00002   0.00011  -0.00055  -0.00044   3.14106
   D12        3.14135  -0.00008  -0.00022   0.00009  -0.00013   3.14122
   D13       -0.00040  -0.00003  -0.00007  -0.00021  -0.00027  -0.00067
   D14        0.00102   0.00014   0.00056  -0.00186  -0.00130  -0.00028
   D15       -3.14042   0.00009   0.00040  -0.00157  -0.00116  -3.14159
   D16        0.34397   0.00262   0.00218   0.03857   0.04075   0.38471
         Item               Value     Threshold  Converged?
 Maximum Force            0.141049     0.000450     NO 
 RMS     Force            0.034658     0.000300     NO 
 Maximum Displacement     0.421251     0.001800     NO 
 RMS     Displacement     0.159296     0.001200     NO 
 Predicted change in Energy=-8.073728D-02
 GradGradGradGradGradGradGradGradGradGradGradGradGradGradGradGradGradGrad

                          Input orientation:                          
 ---------------------------------------------------------------------
 Center     Atomic      Atomic             Coordinates (Angstroms)
 Number     Number       Type             X           Y           Z
 ---------------------------------------------------------------------
      1          7           0       -3.096418    0.757635   -0.018162
      2          7           0       -2.428306   -0.397380   -0.023376
      3          6           0       -1.102486   -0.158108   -0.001742
      4          6           0       -0.992188    1.220513    0.018104
      5          7           0       -2.247181    1.745358    0.007302
      6          1           0       -0.331965   -0.921463   -0.001268
      7          1           0       -0.086758    1.817542    0.039093
      8          1           0       -2.950699   -1.293169   -0.042975
      9          6           0       -5.516536   -0.721581   -0.260235
     10          8           0       -4.871643   -1.568883    0.035980
     11          8           0       -5.947157    0.245229   -0.533430
 ---------------------------------------------------------------------
                    Distance matrix (angstroms):
                    1          2          3          4          5
     1  N    0.000000
     2  N    1.334339   0.000000
     3  C    2.194224   1.347412   0.000000
     4  C    2.154844   2.163732   1.383169   0.000000
     5  N    1.302861   2.150598   2.221169   1.360363   0.000000
     6  H    3.234479   2.160972   1.084626   2.241502   3.283300
     7  H    3.191352   3.223760   2.221838   1.084752   2.161862
     8  H    2.056124   1.037167   2.169321   3.187176   3.119312
     9  C    2.846691   3.114220   4.457370   4.931422   4.104392
    10  O    2.926952   2.710320   4.024705   4.778203   4.227625
    11  O    2.941900   3.613227   4.890420   5.080068   4.028969
                    6          7          8          9         10
     6  H    0.000000
     7  H    2.750255   0.000000
     8  H    2.645311   4.229115   0.000000
     9  C    5.194881   6.001602   2.637694   0.000000
    10  O    4.585762   5.861997   1.942236   1.105238   0.000000
    11  O    5.759752   6.094606   3.403817   1.093065   2.184482
                   11
    11  O    0.000000
 Stoichiometry    C3H3N3O2
 Framework group  C1[X(C3H3N3O2)]
 Deg. of freedom    27
 Full point group                 C1      NOp   1
 Largest Abelian subgroup         C1      NOp   1
 Largest concise Abelian subgroup C1      NOp   1
                         Standard orientation:                         
 ---------------------------------------------------------------------
 Center     Atomic      Atomic             Coordinates (Angstroms)
 Number     Number       Type             X           Y           Z
 ---------------------------------------------------------------------
      1          7           0        0.387966   -0.555723   -0.108217
      2          7           0        0.642850    0.745851    0.038069
      3          6           0        1.972951    0.944079    0.122076
      4          6           0        2.526115   -0.319337    0.017464
      5          7           0        1.511747   -1.214760   -0.123466
      6          1           0        2.452052    1.909342    0.245133
      7          1           0        3.575721   -0.592394    0.038767
      8          1           0       -0.142295    1.422728    0.071229
      9          6           0       -2.391714    0.046508    0.011548
     10          8           0       -2.039237    1.079059   -0.164948
     11          8           0       -2.501705   -1.028403    0.176653
 ---------------------------------------------------------------------
 Rotational constants (GHZ):           5.7541998           1.2069908           1.0039650
 Standard basis: 6-31+G(d,p) (6D, 7F)
 There are   167 symmetry adapted cartesian basis functions of A   symmetry.
 There are   167 symmetry adapted basis functions of A   symmetry.
   167 basis functions,   277 primitive gaussians,   167 cartesian basis functions
    29 alpha electrons       29 beta electrons
       nuclear repulsion energy       339.5479164325 Hartrees.
 NAtoms=   11 NActive=   11 NUniq=   11 SFac= 1.00D+00 NAtFMM=   60 NAOKFM=F Big=F
 Integral buffers will be    131072 words long.
 Raffenetti 2 integral format.
 Two-electron integral symmetry is turned on.
 ------------------------------------------------------------------------------
 Polarizable Continuum Model (PCM)
 =================================
 Model                : PCM.
 Atomic radii         : SMD-Coulomb.
 Polarization charges : Total charges.
 Charge compensation  : None.
 Solution method      : On-the-fly selection.
 Cavity type          : VdW (van der Waals Surface) (Alpha=1.000).
 Cavity algorithm     : GePol (No added spheres)
                        Default sphere list used, NSphG=   11.
                        Lebedev-Laikov grids with approx.  5.0 points / Ang**2.
                        Smoothing algorithm: York/Karplus (Gamma=1.0000).
                        Polarization charges: spherical gaussians, with
                                              point-specific exponents (IZeta= 3).
                        Self-potential: point-specific (ISelfS= 7).
                        Self-field    : sphere-specific E.n sum rule (ISelfD= 2).
 1st derivatives      : Analytical E(r).r(x)/FMM algorithm (CHGder, D1EAlg=3).
                        Cavity 1st derivative terms included.
 Solvent              : Water, Eps=  78.355300 Eps(inf)=   1.777849
 ------------------------------------------------------------------------------
 Spheres list:
 ISph  on   Nord     Re0    Alpha      Xe            Ye            Ze
    1   N      1    1.8900  1.000      0.387966     -0.555723     -0.108217
    2   N      2    1.8900  1.000      0.642850      0.745851      0.038069
    3   C      3    1.8500  1.000      1.972951      0.944079      0.122076
    4   C      4    1.8500  1.000      2.526115     -0.319337      0.017464
    5   N      5    1.8900  1.000      1.511747     -1.214760     -0.123466
    6   H      6    1.2000  1.000      2.452052      1.909342      0.245133
    7   H      7    1.2000  1.000      3.575721     -0.592394      0.038767
    8   H      8    1.2000  1.000     -0.142295      1.422728      0.071229
    9   C      9    1.8500  1.000     -2.391714      0.046508      0.011548
   10   O     10    1.5200  1.000     -2.039237      1.079059     -0.164948
   11   O     11    1.5200  1.000     -2.501705     -1.028403      0.176653
 ------------------------------------------------------------------------------
 ------------------------------------------------------------------------------
 Atomic radii for non-electrostatic terms: SMD-CDS.
 ------------------------------------------------------------------------------
 Nuclear repulsion after PCM non-electrostatic terms =      339.5573472543 Hartrees.
 One-electron integrals computed using PRISM.
 NBasis=   167 RedAO= T EigKep=  3.90D-05  NBF=   167
 NBsUse=   167 1.00D-06 EigRej= -1.00D+00 NBFU=   167
 Initial guess from the checkpoint file:  "/scratch/gongke2021/1-H-Tz-RC/Gau-29187.chk"
 B after Tr=    -0.000000   -0.000000   -0.000000
         Rot=    0.999640    0.009421    0.000695   -0.025098 Ang=   3.07 deg.
 ExpMin= 4.38D-02 ExpMax= 5.48D+03 ExpMxC= 8.25D+02 IAcc=2 IRadAn=         4 AccDes= 0.00D+00
 Harris functional with IExCor= 1009 and IRadAn=       4 diagonalized for initial guess.
 HarFok:  IExCor= 1009 AccDes= 0.00D+00 IRadAn=         4 IDoV= 1 UseB2=F ITyADJ=14
 ICtDFT=  3500011 ScaDFX=  1.000000  1.000000  1.000000  1.000000
 FoFCou: FMM=F IPFlag=           0 FMFlag=      100000 FMFlg1=           0
         NFxFlg=           0 DoJE=T BraDBF=F KetDBF=T FulRan=T
         wScrn=  0.000000 ICntrl=       500 IOpCl=  0 I1Cent=   200000004 NGrid=           0
         NMat0=    1 NMatS0=      1 NMatT0=    0 NMatD0=    1 NMtDS0=    0 NMtDT0=    0
 Petite list used in FoFCou.
 Keep R1 ints in memory in canonical form, NReq=118249495.
 Requested convergence on RMS density matrix=1.00D-08 within 128 cycles.
 Requested convergence on MAX density matrix=1.00D-06.
 Requested convergence on             energy=1.00D-06.
 No special actions if energy rises.
 Inv3:  Mode=1 IEnd=     3409068.
 Iteration    1 A*A^-1 deviation from unit magnitude is 3.77D-15 for   1061.
 Iteration    1 A*A^-1 deviation from orthogonality  is 1.51D-15 for    986    766.
 Iteration    1 A^-1*A deviation from unit magnitude is 3.77D-15 for   1061.
 Iteration    1 A^-1*A deviation from orthogonality  is 2.54D-15 for   1004    825.
 Error on total polarization charges =  0.03247
 SCF Done:  E(RM062X) =  -430.643483698     A.U. after   14 cycles
            NFock= 14  Conv=0.64D-08     -V/T= 2.0067
 SMD-CDS (non-electrostatic) energy       (kcal/mol) =       5.92
 (included in total energy above)
 D1PCM: PCM CHGder 1st derivatives, ID1Alg=3 FixD1E=F DoIter=F DoCFld=F I1PDM=0.
 Calling FoFJK, ICntrl=      2127 FMM=F ISym2X=0 I1Cent= 0 IOpClX= 0 NMat=1 NMatS=1 NMatT=0.
 ***** Axes restored to original set *****
 -------------------------------------------------------------------
 Center     Atomic                   Forces (Hartrees/Bohr)
 Number     Number              X              Y              Z
 -------------------------------------------------------------------
      1        7          -0.013360029   -0.001088836    0.000597805
      2        7           0.006694896    0.002243106    0.000115330
      3        6           0.010921549    0.001729361    0.000064392
      4        6           0.002365883   -0.008581889   -0.000057593
      5        7           0.003017191   -0.009198114   -0.000180348
      6        1          -0.005722622    0.000244888   -0.000079445
      7        1          -0.005128929   -0.000355237   -0.000073866
      8        1           0.012569865    0.015978792    0.000530723
      9        6           0.014533897   -0.014169603    0.006152216
     10        8           0.076868952   -0.149319300    0.045344497
     11        8          -0.102760655    0.162516832   -0.052413712
 -------------------------------------------------------------------
 Cartesian Forces:  Max     0.162516832 RMS     0.046523949

 GradGradGradGradGradGradGradGradGradGradGradGradGradGradGradGradGradGrad
 Berny optimization.
 Using GEDIIS/GDIIS optimizer.
 FormGI is forming the generalized inverse of G from B-inverse, IUseBI=4.
 Internal  Forces:  Max     0.197323523 RMS     0.042333567
 Search for a local minimum.
 Step number   4 out of a maximum of   52
 All quantities printed in internal units (Hartrees-Bohrs-Radians)
 Mixed Optimization -- RFO/linear search
 Update second derivatives using D2CorX and points    3    4
 DE= -1.31D-02 DEPred=-8.07D-02 R= 1.63D-01
 Trust test= 1.63D-01 RLast= 6.21D-01 DXMaxT set to 5.05D-01
 ITU=  0  0  1  0
 Use linear search instead of GDIIS.
     Eigenvalues ---    0.00230   0.00230   0.00237   0.00250   0.00263
     Eigenvalues ---    0.00327   0.00338   0.00340   0.00370   0.05719
     Eigenvalues ---    0.15576   0.16000   0.16001   0.16113   0.22368
     Eigenvalues ---    0.23572   0.24413   0.29223   0.29619   0.29833
     Eigenvalues ---    0.30093   0.31284   0.31645   0.32573   0.33130
     Eigenvalues ---    0.34168   1.04441
 RFO step:  Lambda=-3.52522909D-02 EMin= 2.29814467D-03
 Quartic linear search produced a step of -0.39805.
 Iteration  1 RMS(Cart)=  0.20130601 RMS(Int)=  0.03035256
 Iteration  2 RMS(Cart)=  0.08997300 RMS(Int)=  0.00573872
 Iteration  3 RMS(Cart)=  0.00566711 RMS(Int)=  0.00003659
 Iteration  4 RMS(Cart)=  0.00002267 RMS(Int)=  0.00003441
 Iteration  5 RMS(Cart)=  0.00000000 RMS(Int)=  0.00003441
 Variable       Old X    -DE/DX   Delta X   Delta X   Delta X     New X
                                 (Linear)    (Quad)   (Total)
    R1        2.52153  -0.00319   0.03379  -0.09030  -0.05653   2.46500
    R2        2.46205  -0.00284   0.04393  -0.11378  -0.06990   2.39215
    R3        2.54624  -0.00065   0.02249  -0.06554  -0.04301   2.50323
    R4        1.95996  -0.01357   0.01116  -0.05211  -0.04095   1.91901
    R5        2.61381  -0.01077   0.01010  -0.05889  -0.04874   2.56507
    R6        2.04965  -0.00424   0.01060  -0.03612  -0.02552   2.02413
    R7        2.57071   0.00086   0.03031  -0.07590  -0.04560   2.52512
    R8        2.04988  -0.00448   0.00974  -0.03481  -0.02506   2.02482
    R9        3.67029   0.01134  -0.06025   0.32198   0.26172   3.93202
   R10        2.08860   0.17759   0.11426   0.01231   0.12658   2.21517
   R11        2.06559   0.19732   0.11448   0.04240   0.15687   2.22247
    A1        1.90703  -0.01341  -0.00532  -0.02452  -0.02994   1.87710
    A2        1.91655   0.01147   0.00063   0.03197   0.03262   1.94917
    A3        2.08920  -0.00531  -0.02129   0.03576   0.01447   2.10367
    A4        2.27743  -0.00616   0.02065  -0.06773  -0.04709   2.23034
    A5        1.82936  -0.00533   0.00447  -0.02767  -0.02310   1.80626
    A6        2.18224  -0.00128   0.00628  -0.02474  -0.01851   2.16373
    A7        2.27159   0.00662  -0.01075   0.05241   0.04161   2.31320
    A8        1.88690  -0.00019   0.00751  -0.01406  -0.00650   1.88040
    A9        2.23370   0.00268  -0.01188   0.03903   0.02712   2.26083
   A10        2.16258  -0.00249   0.00437  -0.02497  -0.02062   2.14196
   A11        1.88494   0.00746  -0.00729   0.03428   0.02692   1.91186
   A12        2.23953   0.01351  -0.04314   0.12982   0.08668   2.32621
   A13        2.04583   0.01628  -0.03699   0.15351   0.11652   2.16235
   A14        2.91720   0.05769   0.14688   0.13887   0.28576   3.20296
   A15        3.14110   0.00009   0.00035   0.00051   0.00087   3.14197
    D1       -0.00086   0.00017   0.00106  -0.00128  -0.00020  -0.00107
    D2       -3.14140  -0.00002   0.00040  -0.00072  -0.00037   3.14141
    D3        0.00069  -0.00011  -0.00095   0.00149   0.00053   0.00122
    D4        0.00066  -0.00015  -0.00071   0.00051  -0.00019   0.00047
    D5       -3.14081  -0.00009  -0.00064   0.00170   0.00103  -3.13978
    D6        3.14105   0.00007   0.00007  -0.00002   0.00005   3.14109
    D7       -0.00042   0.00013   0.00014   0.00117   0.00127   0.00085
    D8       -0.07309   0.00107  -0.00044   0.02446   0.02403  -0.04905
    D9        3.06981   0.00083  -0.00128   0.02506   0.02377   3.09358
   D10       -0.00023   0.00009   0.00012   0.00040   0.00051   0.00027
   D11        3.14106   0.00007   0.00018   0.00035   0.00053  -3.14159
   D12        3.14122   0.00002   0.00005  -0.00089  -0.00087   3.14035
   D13       -0.00067  -0.00000   0.00011  -0.00093  -0.00085  -0.00152
   D14       -0.00028   0.00001   0.00052  -0.00118  -0.00067  -0.00094
   D15       -3.14159   0.00003   0.00046  -0.00114  -0.00070   3.14090
   D16        0.38471   0.00288  -0.01622   0.16382   0.14761   0.53232
         Item               Value     Threshold  Converged?
 Maximum Force            0.197324     0.000450     NO 
 RMS     Force            0.042334     0.000300     NO 
 Maximum Displacement     1.286314     0.001800     NO 
 RMS     Displacement     0.282059     0.001200     NO 
 Predicted change in Energy=-4.768104D-02
 GradGradGradGradGradGradGradGradGradGradGradGradGradGradGradGradGradGrad

                          Input orientation:                          
 ---------------------------------------------------------------------
 Center     Atomic      Atomic             Coordinates (Angstroms)
 Number     Number       Type             X           Y           Z
 ---------------------------------------------------------------------
      1          7           0       -2.929482    0.894412    0.074508
      2          7           0       -2.336876   -0.265627    0.006358
      3          6           0       -1.018353   -0.140840   -0.018595
      4          6           0       -0.826151    1.201568    0.040381
      5          7           0       -2.028024    1.782849    0.096340
      6          1           0       -0.339839   -0.967743   -0.074771
      7          1           0        0.088235    1.760104    0.045393
      8          1           0       -2.881478   -1.122275   -0.021805
      9          6           0       -5.750178   -0.787887   -0.309236
     10          8           0       -4.921346   -1.519847    0.079830
     11          8           0       -6.627844   -0.109021   -0.699110
 ---------------------------------------------------------------------
                    Distance matrix (angstroms):
                    1          2          3          4          5
     1  N    0.000000
     2  N    1.304422   0.000000
     3  C    2.175507   1.324650   0.000000
     4  C    2.125914   2.106207   1.357379   0.000000
     5  N    1.265869   2.073582   2.175598   1.336233   0.000000
     6  H    3.193142   2.118420   1.071123   2.226133   3.231873
     7  H    3.139568   3.160107   2.200504   1.071490   2.116995
     8  H    2.019556   1.015495   2.105816   3.102980   3.030196
     9  C    3.306617   3.467418   4.784695   5.322237   4.541762
    10  O    3.129887   2.873666   4.140617   4.917141   4.390830
    11  O    3.909379   4.351393   5.650709   5.993675   5.036890
                    6          7          8          9         10
     6  H    0.000000
     7  H    2.763845   0.000000
     8  H    2.546883   4.139061   0.000000
     9  C    5.418402   6.380054   2.902391   0.000000
    10  O    4.617242   5.987919   2.080734   1.172220   0.000000
[...]
    R6        2.03795   0.00001   0.00000   0.00001   0.00001   2.03796
    R7        2.56965   0.00003   0.00000   0.00005   0.00005   2.56970
    R8        2.03785   0.00000   0.00000   0.00000   0.00000   2.03785
    R9        4.69928   0.00000   0.00000   0.00044   0.00044   4.69972
   R10        2.20007  -0.00002   0.00000  -0.00003  -0.00003   2.20004
   R11        2.19706   0.00005   0.00000   0.00006   0.00006   2.19712
    A1        1.87499   0.00000   0.00000  -0.00000  -0.00000   1.87499
    A2        1.94853   0.00002   0.00000   0.00005   0.00005   1.94858
    A3        2.08842  -0.00002   0.00000  -0.00012  -0.00012   2.08830
    A4        2.24623  -0.00000   0.00000   0.00007   0.00007   2.24631
    A5        1.81039  -0.00003   0.00000  -0.00006  -0.00006   1.81033
    A6        2.14378   0.00003   0.00000   0.00016   0.00016   2.14394
    A7        2.32902   0.00000   0.00000  -0.00010  -0.00010   2.32892
    A8        1.89056   0.00002   0.00000   0.00005   0.00005   1.89061
    A9        2.26282  -0.00002   0.00000  -0.00008  -0.00008   2.26274
   A10        2.12980  -0.00000   0.00000   0.00003   0.00003   2.12983
   A11        1.90030  -0.00001   0.00000  -0.00003  -0.00003   1.90027
   A12        2.00328   0.00001   0.00000   0.00000   0.00000   2.00328
   A13        1.98935   0.00002   0.00000   0.00008   0.00008   1.98943
   A14        3.17851   0.00001   0.00000   0.00000   0.00000   3.17852
   A15        3.14161  -0.00000   0.00000  -0.00002  -0.00002   3.14159
    D1        0.00004  -0.00000   0.00000  -0.00004  -0.00004  -0.00000
    D2       -3.14158  -0.00000   0.00000  -0.00002  -0.00002   3.14159
    D3       -0.00002   0.00000   0.00000   0.00002   0.00002  -0.00000
    D4       -0.00003   0.00000   0.00000   0.00003   0.00003   0.00000
    D5       -3.14159   0.00000   0.00000  -0.00000  -0.00000   3.14159
    D6        3.14158   0.00000   0.00000   0.00002   0.00002  -3.14159
    D7        0.00002  -0.00000   0.00000  -0.00002  -0.00002   0.00000
    D8       -0.00132   0.00000   0.00000   0.00126   0.00126  -0.00006
    D9        3.14025   0.00000   0.00000   0.00128   0.00128   3.14153
   D10        0.00002  -0.00000   0.00000  -0.00002  -0.00002  -0.00000
   D11       -3.14159  -0.00000   0.00000  -0.00000  -0.00000  -3.14159
   D12        3.14157   0.00000   0.00000   0.00003   0.00003  -3.14159
   D13       -0.00003   0.00000   0.00000   0.00004   0.00004   0.00000
   D14        0.00000  -0.00000   0.00000  -0.00000  -0.00000   0.00000
   D15       -3.14158  -0.00000   0.00000  -0.00002  -0.00002   3.14159
   D16        0.00135  -0.00000   0.00000  -0.00138  -0.00138  -0.00003
         Item               Value     Threshold  Converged?
 Maximum Force            0.000054     0.000450     YES
 RMS     Force            0.000016     0.000300     YES
 Maximum Displacement     0.001669     0.001800     YES
 RMS     Displacement     0.000549     0.001200     YES
 Predicted change in Energy=-1.623121D-08
 Optimization completed.
    -- Stationary point found.
                           ----------------------------
                           !   Optimized Parameters   !
                           ! (Angstroms and Degrees)  !
 --------------------------                            --------------------------
 ! Name  Definition              Value          Derivative Info.                !
 --------------------------------------------------------------------------------
 ! R1    R(1,2)                  1.3304         -DE/DX =    0.0                 !
 ! R2    R(1,5)                  1.3025         -DE/DX =    0.0                 !
 ! R3    R(2,3)                  1.3467         -DE/DX =    0.0                 !
 ! R4    R(2,8)                  1.0157         -DE/DX =    0.0                 !
 ! R5    R(3,4)                  1.3754         -DE/DX =    0.0                 !
 ! R6    R(3,6)                  1.0784         -DE/DX =    0.0                 !
 ! R7    R(4,5)                  1.3598         -DE/DX =    0.0                 !
 ! R8    R(4,7)                  1.0784         -DE/DX =    0.0                 !
 ! R9    R(8,10)                 2.4868         -DE/DX =    0.0                 !
 ! R10   R(9,10)                 1.1642         -DE/DX =    0.0                 !
 ! R11   R(9,11)                 1.1626         -DE/DX =    0.0001              !
 ! A1    A(2,1,5)              107.4293         -DE/DX =    0.0                 !
 ! A2    A(1,2,3)              111.6428         -DE/DX =    0.0                 !
 ! A3    A(1,2,8)              119.6577         -DE/DX =    0.0                 !
 ! A4    A(3,2,8)              128.6995         -DE/DX =    0.0                 !
 ! A5    A(2,3,4)              103.7276         -DE/DX =    0.0                 !
 ! A6    A(2,3,6)              122.8295         -DE/DX =    0.0                 !
 ! A7    A(4,3,6)              133.443          -DE/DX =    0.0                 !
 ! A8    A(3,4,5)              108.3212         -DE/DX =    0.0                 !
 ! A9    A(3,4,7)              129.65           -DE/DX =    0.0                 !
 ! A10   A(5,4,7)              122.0288         -DE/DX =    0.0                 !
 ! A11   A(1,5,4)              108.8792         -DE/DX =    0.0                 !
 ! A12   A(2,8,10)             114.7793         -DE/DX =    0.0                 !
 ! A13   A(8,10,9)             113.9816         -DE/DX =    0.0                 !
 ! A14   L(10,9,11,1,-1)       182.1155         -DE/DX =    0.0                 !
 ! A15   L(10,9,11,1,-2)       180.0013         -DE/DX =    0.0                 !
 ! D1    D(5,1,2,3)              0.002          -DE/DX =    0.0                 !
 ! D2    D(5,1,2,8)            180.001          -DE/DX =    0.0                 !
 ! D3    D(2,1,5,4)             -0.0014         -DE/DX =    0.0                 !
 ! D4    D(1,2,3,4)             -0.0018         -DE/DX =    0.0                 !
 ! D5    D(1,2,3,6)            180.0001         -DE/DX =    0.0                 !
 ! D6    D(8,2,3,4)           -180.0006         -DE/DX =    0.0                 !
 ! D7    D(8,2,3,6)              0.0013         -DE/DX =    0.0                 !
 ! D8    D(1,2,8,10)            -0.0757         -DE/DX =    0.0                 !
 ! D9    D(3,2,8,10)           179.923          -DE/DX =    0.0                 !
 ! D10   D(2,3,4,5)              0.0009         -DE/DX =    0.0                 !
 ! D11   D(2,3,4,7)           -179.9998         -DE/DX =    0.0                 !
 ! D12   D(6,3,4,5)           -180.0012         -DE/DX =    0.0                 !
 ! D13   D(6,3,4,7)             -0.0019         -DE/DX =    0.0                 !
 ! D14   D(3,4,5,1)              0.0003         -DE/DX =    0.0                 !
 ! D15   D(7,4,5,1)            180.0009         -DE/DX =    0.0                 !
 ! D16   D(2,8,10,9)             0.0776         -DE/DX =    0.0                 !
 --------------------------------------------------------------------------------
 GradGradGradGradGradGradGradGradGradGradGradGradGradGradGradGradGradGrad


 ----------------------------------------------------------------------

 Electric dipole moment (input orientation):
 (Debye = 10**-18 statcoulomb cm , SI units = C m)
                  (au)            (Debye)         (10**-30 SI)
   Tot        0.253066D+01      0.643231D+01      0.214559D+02
   x          0.157421D+01      0.400123D+01      0.133467D+02
   y         -0.197389D+01     -0.501714D+01     -0.167354D+02
   z          0.172860D+00      0.439367D+00      0.146557D+01

 Dipole polarizability, Alpha (input orientation).
 (esu units = cm**3 , SI units = C**2 m**2 J**-1)
 Alpha(0;0):
               (au)            (10**-24 esu)      (10**-40 SI)
   iso        0.753842D+02      0.111708D+02      0.124292D+02
   aniso      0.459318D+02      0.680639D+01      0.757313D+01
   xx         0.844841D+02      0.125192D+02      0.139295D+02
   yx        -0.895997D+01     -0.132773D+01     -0.147730D+01
   yy         0.942302D+02      0.139635D+02      0.155365D+02
   zx         0.314532D+01      0.466088D+00      0.518593D+00
   zy        -0.189588D+01     -0.280940D+00     -0.312588D+00
   zz         0.474383D+02      0.702963D+01      0.782152D+01

 ----------------------------------------------------------------------

 Dipole orientation:
     7         -3.11981641         -2.37742495         -4.39166642
     7         -3.12734058         -2.38389360         -1.87751027
     6         -1.34932281         -0.82929099         -0.92955955
     6         -0.21031364          0.16637331         -3.04294976
     7         -1.34958948         -0.82981792         -5.11966849
     1         -1.05765658         -0.57419567          1.07121306
     1          1.32002527          1.50433205         -3.18700229
     1         -4.38585413         -3.48415760         -0.93436510
     6         -6.91997494         -5.69314529         -5.83603407
     8         -7.25929222         -5.98900199         -3.68251938
     8         -6.64120128         -5.45004883         -8.00173517

 Electric dipole moment (dipole orientation):
 (Debye = 10**-18 statcoulomb cm , SI units = C m)
                  (au)            (Debye)         (10**-30 SI)
   Tot        0.253066D+01      0.643231D+01      0.214559D+02
   x          0.000000D+00      0.000000D+00      0.000000D+00
   y          0.000000D+00      0.000000D+00      0.000000D+00
   z          0.253066D+01      0.643231D+01      0.214559D+02

 Dipole polarizability, Alpha (dipole orientation).
 (esu units = cm**3 , SI units = C**2 m**2 J**-1)
 Alpha(0;0):
               (au)            (10**-24 esu)      (10**-40 SI)
   iso        0.753842D+02      0.111708D+02      0.124292D+02
   aniso      0.459318D+02      0.680639D+01      0.757313D+01
   xx         0.655443D+02      0.971266D+01      0.108068D+02
   yx         0.160838D+02      0.238338D+01      0.265186D+01
   yy         0.612037D+02      0.906946D+01      0.100911D+02
   zx        -0.201124D+01     -0.298035D+00     -0.331609D+00
   zy        -0.175054D+01     -0.259403D+00     -0.288624D+00
   zz         0.994046D+02      0.147302D+02      0.163896D+02

 ----------------------------------------------------------------------
 1\1\GINC-NODE2\Freq\RM062X\6-31+G(d,p)\C3H3N3O2\GONGKE2021\01-Jul-2023
 \0\\#N Geom=AllCheck Guess=TCheck SCRF=Check GenChk RM062X/6-31+G(d,p)
  Freq\\"Sketch 2"\\0,1\N,-3.0699690306,0.5212432268,-0.1130623381\N,-2
 .2464630881,-0.5197644428,-0.0223784602\C,-0.9607014641,-0.1295422588,
 0.0682723878\C,-1.0326623564,1.2433434927,0.0279104078\N,-2.3402017045
 ,1.5997539032,-0.0833136076\H,-0.1423472578,-0.8271534883,0.1498744427
 \H,-0.2420225344,1.975411341,0.0711990783\H,-2.6251914027,-1.462179111
 4,-0.0281521888\C,-5.6248841872,-0.5512929903,-0.2829231347\O,-5.10162
 53701,-1.5891151046,-0.2155025073\O,-6.1852685041,0.4649884325,-0.3526
 3169\\Version=ES64L-G16RevA.03\State=1-A\HF=-430.6751735\RMSD=3.384e-0
 9\RMSF=2.485e-05\ZeroPoint=0.0729645\Thermal=0.0806126\Dipole=1.574206
 3,-1.9738934,0.1728604\DipoleDeriv=-0.7755978,-0.0768417,-0.0444363,-0
 .2601362,0.4095992,-0.0352529,-0.039789,-0.0210316,-0.184789,0.1601309
 ,-0.2018391,0.0320505,-0.2157458,-0.9397086,0.0022013,0.0323919,0.0032
 889,-0.1819088,-0.0904182,0.2933808,-0.0092448,-0.0799226,0.2814244,-0
 .0150419,0.0001979,0.0141742,-0.0672689,-0.1007358,0.0507039,0.0022243
 ,0.2782936,0.0577603,0.0166193,-0.0035667,-0.0011987,-0.1456648,0.1409
 804,-0.1516746,0.0405204,0.1892013,-0.5541425,0.0205195,0.0319292,-0.0
 060362,-0.3251359,0.1646452,-0.0003411,-0.0075111,0.0211216,0.1477439,
 0.0045125,-0.008045,0.002829,0.2601066,0.0918224,-0.0335045,-0.0105244
 ,-0.0560125,0.1069196,-0.0010849,-0.0099588,0.0006754,0.2364858,0.3575
 086,0.0461028,-0.006147,0.0897912,0.495891,0.0051242,-0.0072779,0.0017
 498,0.420312,1.6523911,-1.1315785,0.1024722,-1.1599816,3.0718593,-0.15
 10385,0.1031056,-0.14885,0.7206347,-0.7814323,0.5902878,-0.0477422,0.5
 440798,-1.5823087,0.0737121,-0.0464817,0.0773178,-0.3683697,-0.8192945
 ,0.6153042,-0.0516615,0.6493113,-1.4950381,0.0797293,-0.0525054,0.0770
 814,-0.3644019\Polar=84.4840684,-8.9599718,94.2301506,3.1453184,-1.895
 8794,47.4383276\Quadrupole=5.9166971,-3.6308331,-2.285864,-0.1108798,0
 .6448919,0.0290302\PG=C01 [X(C3H3N3O2)]\NImag=0\\0.61483303,0.05689321
 ,0.52969159,0.03700931,-0.00585979,0.12591182,-0.21225505,0.11858858,-
 0.01378460,0.73249182,0.06467848,-0.19500439,0.00810965,0.17489327,0.9
 5148786,-0.01242155,0.01232267,-0.07553220,0.04400395,-0.00752220,0.11
 641190,-0.10152221,0.05597592,-0.01098566,-0.34021947,-0.07740938,-0.0
 1958093,0.79042259,-0.00722529,-0.02358355,0.00056128,-0.05463421,-0.1
 5007080,-0.00211186,-0.17237179,0.78613894,-0.00938615,0.00550160,0.02
 002879,-0.02015724,-0.00389263,-0.06611967,0.05584333,-0.03002498,0.13
 686615,-0.10694658,-0.08270837,-0.00810766,-0.00333356,-0.00943612,-0.
 00088539,-0.11779627,-0.01121738,-0.00332778,0.72908906,-0.00214026,-0
 .00429007,0.00053580,-0.10747304,-0.05918726,-0.00662572,0.02963283,-0
 .38989005,0.01037037,0.18104674,0.80598990,-0.01014610,-0.00576030,0.0
 2289587,0.00159342,0.00103833,0.01115129,-0.00436101,0.00717922,-0.072
 11034,0.04173053,-0.00278441,0.13997737,-0.19640484,-0.16492256,-0.003
 57203,-0.02370817,-0.03603740,-0.00295173,-0.00710953,0.11022762,-0.00
 483966,-0.28295590,0.05997384,-0.01781927,0.52636639,-0.09593089,-0.28
 134992,-0.00283614,0.01572491,-0.16143529,0.00596242,0.01766692,-0.022
 46181,0.00243280,0.06455586,-0.14333933,0.00678831,0.01357554,0.599361
 41,-0.00531824,-0.00822865,-0.09761795,-0.00426016,0.00191375,0.025318
 16,-0.00249704,0.00966726,0.01868644,-0.01793513,0.00643261,-0.0759963
 9,0.03149682,-0.01109492,0.12188494,-0.00288934,-0.00318327,-0.0007071
 0,-0.01682220,0.02238874,-0.00166328,-0.23707633,0.15373564,-0.0200104
 9,0.00929800,-0.00240676,0.00073876,0.00174769,-0.00357219,-0.00028400
 ,0.24560136,-0.00544818,-0.00186397,-0.00019715,-0.01418931,0.01569965
 ,-0.00157613,0.16500576,-0.19877616,0.01714398,0.01856505,-0.00016714,
 0.00147096,0.00284990,-0.00522253,0.00052030,-0.16706855,0.19036330,-0
 .00064948,-0.00002025,0.00713552,-0.00073986,0.00128329,-0.00286738,-0
 .02029364,0.01626188,-0.03282211,0.00020775,-0.00016742,0.00064476,-0.
 00044635,0.00001849,0.00650374,0.02158416,-0.01727719,0.02564515,-0.00
 534585,0.00115677,-0.00110388,-0.00006668,0.00406058,-0.00057008,0.009
 60562,0.00576441,0.00061981,-0.22089304,-0.15617605,-0.01093878,-0.015
 67563,-0.02151826,-0.00013260,-0.00039559,-0.00055597,0.00015603,0.231
 91634,0.00480561,0.00119485,0.00055770,0.00054212,-0.00583351,0.000339
 66,-0.01942826,-0.00538309,-0.00138759,-0.16192053,-0.21159901,-0.0080
 7119,0.00908743,0.01331881,0.00019604,0.00040760,0.00016686,-0.0000283
 1,0.16758073,0.20751768,-0.00119615,0.00027256,0.00830307,-0.00048124,
 0.00061456,0.00585863,0.00125698,0.00058222,-0.00010578,-0.01079324,-0
 .00762224,-0.03103884,-0.00090637,-0.00219646,-0.00703341,0.00013159,-
 0.00010355,-0.00219820,0.01199831,0.00845970,0.02489067,0.01938349,0.0
 1945070,0.00188669,-0.13204410,-0.14296134,-0.00562442,0.00267222,-0.0
 2453587,0.00119159,-0.00708462,-0.00181792,-0.00085202,-0.00229852,0.0
 0999489,-0.00108807,0.00053765,0.00081159,0.00018193,0.00080509,-0.001
 02205,-0.00001769,0.11981500,-0.01238385,-0.01920701,-0.00076034,-0.13
 442979,-0.39568529,-0.00086349,0.00045207,0.00407312,-0.00018484,0.001
 15796,0.00301852,0.00012519,0.00612469,0.00100769,0.00066534,-0.000332
 05,-0.00023318,-0.00007194,-0.00024547,0.00059362,0.00000032,0.1404211
 3,0.40665520,0.00269199,0.00172766,-0.01088342,-0.00584013,-0.00152989
 ,-0.01417518,0.00055926,-0.00213875,-0.00453012,-0.00092710,-0.0001069
 5,0.00433107,-0.00099022,0.00096791,0.00828933,0.00021087,0.00001744,-
 0.00203618,-0.00003734,-0.00006044,0.00136127,0.00443815,0.00114963,0.
 01783866,-0.00524200,0.00232645,-0.00038076,-0.00233488,0.00064606,-0.
 00019256,0.00157635,0.00085982,0.00009438,0.00249265,-0.00028623,0.000
 18782,0.00224424,-0.00127696,0.00023605,0.00009481,0.00010060,0.000002
 34,0.00029661,-0.00008087,0.00002266,-0.00218662,0.00133844,-0.0002012
 4,0.51330788,0.00002220,-0.00223424,0.00002858,0.00201503,0.00106306,0
 .00012775,0.00193839,-0.00027076,0.00016198,0.00031895,-0.00098852,0.0
 0005516,-0.00085663,-0.00088587,-0.00005411,0.00009259,0.00007532,0.00
 000635,0.00002344,-0.00007610,0.00000444,0.00439592,-0.00028256,0.0003
 4422,-0.71575519,1.48570765,-0.00031607,0.00020950,-0.00115599,-0.0002
 2681,0.00002066,-0.00009884,0.00006469,0.00007632,0.00009734,0.0001691
 1,0.00000793,0.00021189,0.00022466,-0.00008579,-0.00036905,0.00000228,
 0.00000668,0.00003368,0.00001939,-0.00000331,0.00003852,-0.00028220,0.
 00011028,-0.00003752,0.04700952,-0.09014059,0.15162426,-0.00163484,-0.
 00461651,-0.00004433,-0.00072743,-0.00036048,-0.00003762,0.00017165,-0
 .00052823,0.00002383,-0.00098915,-0.00049345,-0.00006391,-0.00153010,0
 .00043360,-0.00015216,-0.00001402,0.00000687,0.00000001,-0.00014269,0.
 00000294,-0.00000655,-0.00033744,-0.00168758,0.00003168,-0.24314964,0.
 34372723,-0.02214153,0.25175301,-0.00102017,-0.00403873,0.00004043,-0.
 00033975,-0.00068229,-0.00001171,-0.00095525,-0.00000522,-0.00007369,-
 0.00053359,0.00018187,-0.00004683,-0.00082276,0.00078654,-0.00007542,-
 0.00003547,-0.00002764,-0.00000259,-0.00010756,0.00008062,-0.00001235,
 -0.00277125,-0.00017816,-0.00021516,0.34727231,-0.74727676,0.04438756,
 -0.40647216,0.84554228,-0.00013969,-0.00023901,0.00049320,-0.00003760,
 -0.00001288,-0.00009907,0.00003380,-0.00003976,0.00005259,-0.00006189,
 -0.00004281,-0.00001748,-0.00011907,0.00002084,0.00028630,0.00000114,0
 .00000084,-0.00001679,-0.00000298,-0.00000353,-0.00006762,0.00006095,-
 0.00013290,-0.00020688,-0.02223543,0.04411679,-0.07511857,0.02723362,-
 0.05245565,0.03956193,-0.00197579,0.00103908,-0.00020998,-0.00098026,-
 0.00046241,-0.00007639,-0.00072462,-0.00007472,-0.00005161,-0.00088058
 ,0.00014032,-0.00006944,-0.00067564,0.00034659,-0.00006546,-0.00008203
 ,-0.00007776,-0.00000289,-0.00010418,0.00002530,-0.00000831,0.00073784
 ,-0.00041555,0.00006408,-0.26709939,0.36407806,-0.02452303,-0.00339935
 ,0.06578566,-0.00473285,0.27518399,-0.00225087,0.00068544,-0.00018003,
 -0.00069781,-0.00035173,-0.00004139,-0.00050722,0.00022939,-0.00004699
 ,0.00017144,0.00027110,0.00000557,0.00080036,0.00022031,0.00005779,-0.
 00002628,-0.00001450,-0.00000231,0.00001739,0.00001926,0.00000080,-0.0
 0196579,0.00023805,-0.00015566,0.36485558,-0.73483124,0.04541075,0.069
 98778,-0.09438251,0.00878807,-0.43038457,0.82791642,-0.00012788,0.0000
 7402,0.00042129,-0.00006973,-0.00002262,0.00015235,-0.00003978,-0.0000
 1285,-0.00004330,-0.00006919,0.00000285,-0.00004921,-0.00007679,0.0000
 2252,0.00004790,-0.00000392,-0.00000620,-0.00002217,-0.00000789,0.0000
 0127,-0.00000831,0.00010509,-0.00003726,0.00004898,-0.02454277,0.04534
 945,-0.07522574,-0.00484304,0.00846541,0.03513241,0.02967590,-0.053836
 60,0.03954578\\0.00000497,-0.00004498,0.00000594,-0.00006008,-0.000008
 58,-0.00000843,0.00000351,0.00004812,0.00000378,0.00000770,0.00001048,
 -0.00000051,0.00005202,0.00000744,0.00000064,-0.00001228,-0.00000794,-
 0.00000097,-0.00000251,0.00000128,-0.00000023,0.00000337,-0.00001196,-
 0.00000124,-0.00003464,0.00006715,-0.00000755,0.00000877,-0.00001822,0
 .00000369,0.00002917,-0.00004281,0.00000489\\\@


 CHARLIE BROWN -- WHICH DO YOU THINK LASTS LONGER IN LIFE, THE GOOD THINGS 
                  OR THE BAD THINGS?
 LINUS --         GOOD THINGS LAST EIGHT SECONDS ..
                  BAD THINGS LAST THREE WEEKS
 CHARLIE BROWN -- WHAT ABOUT IN BETWEEN?
 SNOOPY --        IN BETWEEN YOU SHOULD TAKE A NAP ...
 Job cpu time:       0 days  0 hours 24 minutes 13.8 seconds.
 Elapsed time:       0 days  0 hours  1 minutes 13.5 seconds.
 File lengths (MBytes):  RWF=     61 Int=      0 D2E=      0 Chk=      7 Scr=      1
 Normal termination of Gaussian 16 at Sat Jul  1 02:49:03 2023.
