 Entering Gaussian System, Link 0=/home/gau/soft/g16/g16
 Initial command:
 /home/gau/soft/g16/l1.exe "/home/gau/soft/scratch/Gau-59983.inp" -scrdir="/home/gau/soft/scratch/"
 Entering Link 1 = /home/gau/soft/g16/l1.exe PID=     59984.
  
 Copyright (c) 1988-2019, Gaussian, Inc.  All Rights Reserved.
  
 This is part of the Gaussian(R) 16 program.  It is based on
 the Gaussian(R) 09 system (copyright 2009, Gaussian, Inc.),
 the Gaussian(R) 03 system (copyright 2003, Gaussian, Inc.),
 the Gaussian(R) 98 system (copyright 1998, Gaussian, Inc.),
 the Gaussian(R) 94 system (copyright 1995, Gaussian, Inc.),
 the Gaussian 92(TM) system (copyright 1992, Gaussian, Inc.),
 the Gaussian 90(TM) system (copyright 1990, Gaussian, Inc.),
 the Gaussian 88(TM) system (copyright 1988, Gaussian, Inc.),
 the Gaussian 86(TM) system (copyright 1986, Carnegie Mellon
 University), and the Gaussian 82(TM) system (copyright 1983,
 Carnegie Mellon University). Gaussian is a federally registered
 trademark of Gaussian, Inc.
  
 This software contains proprietary and confidential information,
 including trade secrets, belonging to Gaussian, Inc.
  
 This software is provided under written license and may be
 used, copied, transmitted, or stored only in accord with that
 written license.
  
 The following legend is applicable only to US Government
 contracts under FAR:
  
                    RESTRICTED RIGHTS LEGEND
  
 Use, reproduction and disclosure by the US Government is
 subject to restrictions as set forth in subparagraphs (a)
 and (c) of the Commercial Computer Software - Restricted
 Rights clause in FAR 52.227-19.
  
 Gaussian, Inc.
 340 Quinnipiac St., Bldg. 40, Wallingford CT 06492
  
  
 ---------------------------------------------------------------
 Warning -- This program may not be used in any manner that
 competes with the business of Gaussian, Inc. or will provide
 assistance to any competitor of Gaussian, Inc.  The licensee
 of this program is prohibited from giving any competitor of
 Gaussian, Inc. access to this program.  By using this program,
 the user acknowledges that Gaussian, Inc. is engaged in the
 business of creating and licensing software in the field of
 computational chemistry and represents and warrants to the
 licensee that it is not a competitor of Gaussian, Inc. and that
 it will not use this program in any manner prohibited above.
 ---------------------------------------------------------------
  

 Cite this work as:
 Gaussian 16, Revision C.01,
 M. J. Frisch, G. W. Trucks, H. B. Schlegel, G. E. Scuseria, 
 M. A. Robb, J. R. Cheeseman, G. Scalmani, V. Barone, 
 G. A. Petersson, H. Nakatsuji, X. Li, M. Caricato, A. V. Marenich, 
 J. Bloino, B. G. Janesko, R. Gomperts, B. Mennucci, H. P. Hratchian, 
 J. V. Ortiz, A. F. Izmaylov, J. L. Sonnenberg, D. Williams-Young, 
 F. Ding, F. Lipparini, F. Egidi, J. Goings, B. Peng, A. Petrone, 
 T. Henderson, D. Ranasinghe, V. G. Zakrzewski, J. Gao, N. Rega, 
 G. Zheng, W. Liang, M. Hada, M. Ehara, K. Toyota, R. Fukuda, 
 J. Hasegawa, M. Ishida, T. Nakajima, Y. Honda, O. Kitao, H. Nakai, 
 T. Vreven, K. Throssell, J. A. Montgomery, Jr., J. E. Peralta, 
 F. Ogliaro, M. J. Bearpark, J. J. Heyd, E. N. Brothers, K. N. Kudin, 
 V. N. Staroverov, T. A. Keith, R. Kobayashi, J. Normand, 
 K. Raghavachari, A. P. Rendell, J. C. Burant, S. S. Iyengar, 
 J. Tomasi, M. Cossi, J. M. Millam, M. Klene, C. Adamo, R. Cammi, 
 J. W. Ochterski, R. L. Martin, K. Morokuma, O. Farkas, 
 J. B. Foresman, and D. J. Fox, Gaussian, Inc., Wallingford CT, 2019.
 
 ******************************************
 Gaussian 16:  ES64L-G16RevC.01  3-Jul-2019
                 7-Dec-2023 
 ******************************************
 %mem=10GB
 %nprocshared=48
 Will use up to   48 processors via shared memory.
 ----------------------------------------------------------------------
 # opt=(calcfc,ts,noeigentest) freq 6-31+g(d,p) scrf=(smd,solvent=water
 ) integral=grid=ultrafine m062x
 ----------------------------------------------------------------------
 1/5=1,10=4,11=1,18=20,26=6,38=1/1,3;
 2/9=110,12=2,17=6,18=5,40=1/2;
 3/5=1,6=6,7=111,11=2,25=1,30=1,70=32201,71=2,72=1,74=-55,75=-5,140=1/1,2,3;
 4//1;
 5/5=2,38=5,53=1/2;
 8/6=4,10=90,11=11/1;
 11/6=1,8=1,9=11,15=111,16=1/1,2,10;
 10/6=1,13=1/2;
 6/7=2,8=2,9=2,10=2,28=1/1;
 7/10=1,25=1/1,2,3,16;
 1/5=1,10=4,11=1,18=20,26=6/3(2);
 2/9=110/2;
 99//99;
 2/9=110/2;
 3/5=1,6=6,7=111,11=2,25=1,30=1,70=32205,71=1,72=1,74=-55,75=-5/1,2,3;
 4/5=5,16=3,69=1/1;
 5/5=2,38=5,53=1/2;
 7//1,2,3,16;
 1/5=1,11=1,18=20,26=6/3(-5);
 2/9=110/2;
 6/7=2,8=2,9=2,10=2,19=2,28=1/1;
 99/9=1/99;
 --
 TS
 --
 Symbolic Z-matrix:
 Charge = -1 Multiplicity = 2
 N                     0.28785  -0.39485  -0.02514 
 N                     0.49125   0.95826  -0.27788 
 C                     1.84324   1.11755  -0.15168 
 C                     2.40458  -0.11056   0.10792 
 N                     1.46258  -1.08255   0.18607 
 H                     2.29952   2.0886   -0.26949 
 H                     3.44828  -0.35499   0.2413 
 H                    -0.3142    1.33939  -1.09924 
 C                    -0.94286  -1.00658  -0.05115 
 O                    -1.99124  -0.23503  -0.24373 
 O                    -1.03366  -2.24069   0.09052 
 O                    -1.29882   1.53325  -1.69031 
 H                    -1.73314   0.50134  -0.99153 
 H                    -1.2845    1.47788  -2.65561 
 
 Add virtual bond connecting atoms O12        and H8         Dist= 2.20D+00.
 Add virtual bond connecting atoms H8         and N2         Dist= 2.29D+00.
 Add virtual bond connecting atoms O12        and H13        Dist= 2.49D+00.

 GradGradGradGradGradGradGradGradGradGradGradGradGradGradGradGradGradGrad
 Berny optimization.
 Initialization pass.
                           ----------------------------
                           !    Initial Parameters    !
                           ! (Angstroms and Degrees)  !
 --------------------------                            --------------------------
 ! Name  Definition              Value          Derivative Info.                !
 --------------------------------------------------------------------------------
 ! R1    R(1,2)                  1.3915         calculate D2E/DX2 analytically  !
 ! R2    R(1,5)                  1.3775         calculate D2E/DX2 analytically  !
 ! R3    R(1,9)                  1.3746         calculate D2E/DX2 analytically  !
 ! R4    R(2,3)                  1.3672         calculate D2E/DX2 analytically  !
 ! R5    R(2,8)                  1.2119         calculate D2E/DX2 analytically  !
 ! R6    R(3,4)                  1.375          calculate D2E/DX2 analytically  !
 ! R7    R(3,6)                  1.0794         calculate D2E/DX2 analytically  !
 ! R8    R(4,5)                  1.3558         calculate D2E/DX2 analytically  !
 ! R9    R(4,7)                  1.0802         calculate D2E/DX2 analytically  !
 ! R10   R(8,12)                 1.1647         calculate D2E/DX2 analytically  !
 ! R11   R(9,10)                 1.3159         calculate D2E/DX2 analytically  !
 ! R12   R(9,11)                 1.2455         calculate D2E/DX2 analytically  !
 ! R13   R(10,13)                1.0808         calculate D2E/DX2 analytically  !
 ! R14   R(12,13)                1.3198         calculate D2E/DX2 analytically  !
 ! R15   R(12,14)                0.967          calculate D2E/DX2 analytically  !
 ! A1    A(2,1,5)              112.8717         calculate D2E/DX2 analytically  !
 ! A2    A(2,1,9)              124.0694         calculate D2E/DX2 analytically  !
 ! A3    A(5,1,9)              122.9735         calculate D2E/DX2 analytically  !
 ! A4    A(1,2,3)              103.9502         calculate D2E/DX2 analytically  !
 ! A5    A(1,2,8)              109.3769         calculate D2E/DX2 analytically  !
 ! A6    A(3,2,8)              133.0918         calculate D2E/DX2 analytically  !
 ! A7    A(2,3,4)              108.486          calculate D2E/DX2 analytically  !
 ! A8    A(2,3,6)              120.8493         calculate D2E/DX2 analytically  !
 ! A9    A(4,3,6)              130.6584         calculate D2E/DX2 analytically  !
 ! A10   A(3,4,5)              111.5644         calculate D2E/DX2 analytically  !
 ! A11   A(3,4,7)              128.3055         calculate D2E/DX2 analytically  !
 ! A12   A(5,4,7)              120.1296         calculate D2E/DX2 analytically  !
 ! A13   A(1,5,4)              103.0476         calculate D2E/DX2 analytically  !
 ! A14   A(2,8,12)             163.3766         calculate D2E/DX2 analytically  !
 ! A15   A(1,9,10)             117.0751         calculate D2E/DX2 analytically  !
 ! A16   A(1,9,11)             120.2694         calculate D2E/DX2 analytically  !
 ! A17   A(10,9,11)            122.6517         calculate D2E/DX2 analytically  !
 ! A18   A(9,10,13)            108.0889         calculate D2E/DX2 analytically  !
 ! A19   A(8,12,13)             83.0706         calculate D2E/DX2 analytically  !
 ! A20   A(8,12,14)            118.9837         calculate D2E/DX2 analytically  !
 ! A21   A(13,12,14)           119.2518         calculate D2E/DX2 analytically  !
 ! A22   L(10,13,12,1,-1)      173.8324         calculate D2E/DX2 analytically  !
 ! A23   L(10,13,12,1,-2)      190.8829         calculate D2E/DX2 analytically  !
 ! D1    D(5,1,2,3)             -2.9598         calculate D2E/DX2 analytically  !
 ! D2    D(5,1,2,8)            143.5068         calculate D2E/DX2 analytically  !
 ! D3    D(9,1,2,3)           -179.6791         calculate D2E/DX2 analytically  !
 ! D4    D(9,1,2,8)            -33.2125         calculate D2E/DX2 analytically  !
 ! D5    D(2,1,5,4)              2.2038         calculate D2E/DX2 analytically  !
 ! D6    D(9,1,5,4)            178.9645         calculate D2E/DX2 analytically  !
 ! D7    D(2,1,9,10)            -4.5211         calculate D2E/DX2 analytically  !
 ! D8    D(2,1,9,11)           174.7865         calculate D2E/DX2 analytically  !
 ! D9    D(5,1,9,10)           179.0824         calculate D2E/DX2 analytically  !
 ! D10   D(5,1,9,11)            -1.6099         calculate D2E/DX2 analytically  !
 ! D11   D(1,2,3,4)              2.4551         calculate D2E/DX2 analytically  !
 ! D12   D(1,2,3,6)           -178.3676         calculate D2E/DX2 analytically  !
 ! D13   D(8,2,3,4)           -132.0142         calculate D2E/DX2 analytically  !
 ! D14   D(8,2,3,6)             47.163          calculate D2E/DX2 analytically  !
 ! D15   D(1,2,8,12)            46.0081         calculate D2E/DX2 analytically  !
 ! D16   D(3,2,8,12)           178.7716         calculate D2E/DX2 analytically  !
 ! D17   D(2,3,4,5)             -1.2597         calculate D2E/DX2 analytically  !
 ! D18   D(2,3,4,7)            178.4831         calculate D2E/DX2 analytically  !
 ! D19   D(6,3,4,5)            179.6714         calculate D2E/DX2 analytically  !
 ! D20   D(6,3,4,7)             -0.5858         calculate D2E/DX2 analytically  !
 ! D21   D(3,4,5,1)             -0.5521         calculate D2E/DX2 analytically  !
 ! D22   D(7,4,5,1)            179.6813         calculate D2E/DX2 analytically  !
 ! D23   D(2,8,12,13)          -17.7734         calculate D2E/DX2 analytically  !
 ! D24   D(2,8,12,14)         -137.4694         calculate D2E/DX2 analytically  !
 ! D25   D(1,9,10,13)           40.3278         calculate D2E/DX2 analytically  !
 ! D26   D(11,9,10,13)        -138.962          calculate D2E/DX2 analytically  !
 ! D27   D(9,10,12,8)          -32.6559         calculate D2E/DX2 analytically  !
 ! D28   D(9,10,12,14)          85.2879         calculate D2E/DX2 analytically  !
 --------------------------------------------------------------------------------
 Trust Radius=3.00D-01 FncErr=5.00D-06 GrdErr=5.00D-06 EigMax=2.50D+02 EigMin=1.00D-04
 Number of steps in this run=     76 maximum allowed number of steps=    100.
 Search for a saddle point of order  1.
 GradGradGradGradGradGradGradGradGradGradGradGradGradGradGradGradGradGrad

                          Input orientation:                          
 ---------------------------------------------------------------------
 Center     Atomic      Atomic             Coordinates (Angstroms)
 Number     Number       Type             X           Y           Z
 ---------------------------------------------------------------------
      1          7           0        0.287852   -0.394845   -0.025138
      2          7           0        0.491248    0.958263   -0.277880
      3          6           0        1.843235    1.117546   -0.151677
      4          6           0        2.404575   -0.110556    0.107919
      5          7           0        1.462584   -1.082546    0.186073
      6          1           0        2.299522    2.088596   -0.269493
      7          1           0        3.448282   -0.354992    0.241299
      8          1           0       -0.314200    1.339389   -1.099244
      9          6           0       -0.942856   -1.006579   -0.051153
     10          8           0       -1.991243   -0.235028   -0.243733
     11          8           0       -1.033663   -2.240687    0.090517
     12          8           0       -1.298822    1.533253   -1.690310
     13          1           0       -1.733138    0.501341   -0.991526
     14          1           0       -1.284500    1.477878   -2.655611
 ---------------------------------------------------------------------
                    Distance matrix (angstroms):
                    1          2          3          4          5
     1  N    0.000000
     2  N    1.391456   0.000000
     3  C    2.173144   1.367175   0.000000
     4  C    2.139869   2.225317   1.375037   0.000000
     5  N    1.377512   2.307303   2.258180   1.355810   0.000000
     6  H    3.205309   2.132505   1.079359   2.233774   3.311215
     7  H    3.171891   3.276925   2.213363   1.080215   2.115510
     8  H    2.126908   1.211876   2.366775   3.309278   3.267227
     9  C    1.374604   2.443085   3.504899   3.468927   2.418303
    10  O    2.295125   2.754609   4.067082   4.411617   3.582170
    11  O    2.273084   3.562913   4.428649   4.044656   2.753483
    12  O    3.001316   2.351579   3.523170   4.432932   4.241295
    13  H    2.412769   2.380328   3.724984   4.324797   3.756072
    14  H    3.591486   3.012787   4.022717   4.875397   4.709290
                    6          7          8          9         10
     6  H    0.000000
     7  H    2.748032   0.000000
     8  H    2.842770   4.338693   0.000000
     9  C    4.487850   4.448841   2.645235   0.000000
    10  O    4.879606   5.462424   2.454213   1.315862   0.000000
    11  O    5.475621   4.864814   3.840586   1.245528   2.247521
    12  O    3.908351   5.461829   1.164656   3.043731   2.387227
    13  H    4.393525   5.394468   1.651458   1.944908   1.080764
    14  H    4.348764   5.843862   1.839277   3.615584   3.041495
                   11         12         13         14
    11  O    0.000000
    12  O    4.181421   0.000000
    13  H    3.029653   1.319763   0.000000
    14  H    4.629456   0.966994   1.980930   0.000000
 Stoichiometry    C3H5N3O3(1-,2)
 Framework group  C1[X(C3H5N3O3)]
 Deg. of freedom    36
 Full point group                 C1      NOp   1
 Largest Abelian subgroup         C1      NOp   1
 Largest concise Abelian subgroup C1      NOp   1
                         Standard orientation:                         
 ---------------------------------------------------------------------
 Center     Atomic      Atomic             Coordinates (Angstroms)
 Number     Number       Type             X           Y           Z
 ---------------------------------------------------------------------
      1          7           0       -0.240667   -0.404679   -0.089053
      2          7           0       -0.578067    0.924114   -0.327004
      3          6           0       -1.940313    0.943827   -0.212702
      4          6           0       -2.366942   -0.316273    0.134951
      5          7           0       -1.330267   -1.184935    0.229555
      6          1           0       -2.496198    1.854748   -0.374666
      7          1           0       -3.375140   -0.652036    0.329023
      8          1           0        0.298973    1.644057    0.098583
      9          6           0        1.047035   -0.885604   -0.097597
     10          8           0        1.998814   -0.043001   -0.437640
     11          8           0        1.277851   -2.067712    0.219710
     12          8           0        1.336028    2.111311    0.348812
     13          1           0        1.777609    0.913384    0.014517
     14          1           0        1.497537    2.441868    1.243085
 ---------------------------------------------------------------------
 Rotational constants (GHZ):           2.3098375           1.6378853           0.9991489
 Standard basis: 6-31+G(d,p) (6D, 7F)
 There are   196 symmetry adapted cartesian basis functions of A   symmetry.
 There are   196 symmetry adapted basis functions of A   symmetry.
   196 basis functions,   323 primitive gaussians,   196 cartesian basis functions
    35 alpha electrons       34 beta electrons
       nuclear repulsion energy       465.8374680791 Hartrees.
 NAtoms=   14 NActive=   14 NUniq=   14 SFac= 1.00D+00 NAtFMM=   60 NAOKFM=F Big=F
 Integral buffers will be    131072 words long.
 Raffenetti 2 integral format.
 Two-electron integral symmetry is turned on.
 Force inversion solution in PCM.
 ------------------------------------------------------------------------------
 Polarizable Continuum Model (PCM)
 =================================
 Model                : PCM.
 Atomic radii         : SMD-Coulomb.
 Polarization charges : Total charges.
 Charge compensation  : None.
 Solution method      : Matrix inversion.
 Cavity type          : VdW (van der Waals Surface) (Alpha=1.000).
 Cavity algorithm     : GePol (No added spheres)
                        Default sphere list used, NSphG=   14.
                        Lebedev-Laikov grids with approx.  5.0 points / Ang**2.
                        Smoothing algorithm: York/Karplus (Gamma=1.0000).
                        Polarization charges: spherical gaussians, with
                                              point-specific exponents (IZeta= 3).
                        Self-potential: point-specific (ISelfS= 7).
                        Self-field    : sphere-specific E.n sum rule (ISelfD= 2).
 1st derivatives      : Analytical E(r).r(x)/FMM algorithm (CHGder, D1EAlg=3).
                        Cavity 1st derivative terms included.
 2nd derivatives      : Analytical E(r).r(xy)/FMM algorithm (CHGder, D2EAlg=3).
                        Cavity 2nd derivative terms included.
 Solvent              : Water, Eps=  78.355300 Eps(inf)=   1.777849
 ------------------------------------------------------------------------------
 Spheres list:
 ISph  on   Nord     Re0    Alpha      Xe            Ye            Ze
    1   N      1    1.8900  1.000     -0.240667     -0.404679     -0.089053
    2   N      2    1.8900  1.000     -0.578067      0.924114     -0.327004
    3   C      3    1.8500  1.000     -1.940313      0.943827     -0.212702
    4   C      4    1.8500  1.000     -2.366942     -0.316273      0.134951
    5   N      5    1.8900  1.000     -1.330267     -1.184935      0.229555
    6   H      6    1.2000  1.000     -2.496198      1.854748     -0.374666
    7   H      7    1.2000  1.000     -3.375140     -0.652036      0.329023
    8   H      8    1.2000  1.000      0.298973      1.644057      0.098583
    9   C      9    1.8500  1.000      1.047035     -0.885604     -0.097597
   10   O     10    1.5200  1.000      1.998814     -0.043001     -0.437640
   11   O     11    1.5200  1.000      1.277851     -2.067712      0.219710
   12   O     12    1.5200  1.000      1.336028      2.111311      0.348812
   13   H     13    1.2000  1.000      1.777609      0.913384      0.014517
   14   H     14    1.2000  1.000      1.497537      2.441868      1.243085
 ------------------------------------------------------------------------------
 ------------------------------------------------------------------------------
 Atomic radii for non-electrostatic terms: SMD-CDS.
 ------------------------------------------------------------------------------
 Nuclear repulsion after PCM non-electrostatic terms =      465.8443982639 Hartrees.
 One-electron integrals computed using PRISM.
 NBasis=   196 RedAO= T EigKep=  2.60D-05  NBF=   196
 NBsUse=   196 1.00D-06 EigRej= -1.00D+00 NBFU=   196
 ExpMin= 4.38D-02 ExpMax= 5.48D+03 ExpMxC= 8.25D+02 IAcc=3 IRadAn=         5 AccDes= 0.00D+00
 Harris functional with IExCor= 1009 and IRadAn=       5 diagonalized for initial guess.
 HarFok:  IExCor= 1009 AccDes= 0.00D+00 IRadAn=         5 IDoV= 1 UseB2=F ITyADJ=14
 ICtDFT=  3500011 ScaDFX=  1.000000  1.000000  1.000000  1.000000
 FoFCou: FMM=F IPFlag=           0 FMFlag=      100000 FMFlg1=           0
         NFxFlg=           0 DoJE=T BraDBF=F KetDBF=T FulRan=T
         wScrn=  0.000000 ICntrl=       500 IOpCl=  0 I1Cent=   200000004 NGrid=           0
         NMat0=    1 NMatS0=      1 NMatT0=    0 NMatD0=    1 NMtDS0=    0 NMtDT0=    0
 Petite list used in FoFCou.
 Initial guess <Sx>= 0.0000 <Sy>= 0.0000 <Sz>= 0.5000 <S**2>= 0.7500 S= 0.5000
 Requested convergence on RMS density matrix=1.00D-08 within 128 cycles.
 Requested convergence on MAX density matrix=1.00D-06.
 Requested convergence on             energy=1.00D-06.
 No special actions if energy rises.
 Inv3:  Mode=1 IEnd=     3810387.
 Iteration    1 A*A^-1 deviation from unit magnitude is 3.66D-15 for   1109.
 Iteration    1 A*A^-1 deviation from orthogonality  is 3.13D-15 for   1117   1035.
 Iteration    1 A^-1*A deviation from unit magnitude is 3.66D-15 for   1109.
 Iteration    1 A^-1*A deviation from orthogonality  is 4.55D-15 for    669    595.
 Error on total polarization charges =  0.05643
 SCF Done:  E(UM062X) =  -507.163665001     A.U. after   17 cycles
            NFock= 17  Conv=0.72D-08     -V/T= 2.0080
 <Sx>= 0.0000 <Sy>= 0.0000 <Sz>= 0.5000 <S**2>= 0.7627 S= 0.5063
 <L.S>=  0.00000000000    
 SMD-CDS (non-electrostatic) energy       (kcal/mol) =       4.35
 (included in total energy above)
 Annihilation of the first spin contaminant:
 S**2 before annihilation     0.7627,   after     0.7501
 DoSCS=F DFT=T ScalE2(SS,OS)=  1.000000  1.000000
 Range of M.O.s used for correlation:     1   196
 NBasis=   196 NAE=    35 NBE=    34 NFC=     0 NFV=     0
 NROrb=    196 NOA=    35 NOB=    34 NVA=   161 NVB=   162

 **** Warning!!: The largest alpha MO coefficient is  0.57784181D+02


 **** Warning!!: The largest beta MO coefficient is  0.53484028D+02

 Symmetrizing basis deriv contribution to polar:
 IMax=3 JMax=2 DiffMx= 0.00D+00
 G2DrvN: will do    15 centers at a time, making    1 passes.
 Calling FoFCou, ICntrl=  3107 FMM=F I1Cent=   0 AccDes= 0.00D+00.
 NEqPCM:  Using equilibrium solvation (IEInf=0, Eps=  78.3553, EpsInf=   1.7778)
 G2PCM: DoFxE=T DoFxN=T DoGrad=T DoDP/DQ/DG/TGxP=FFFF NFrqRd=   0 IEInf=0 SqF1=F DoCFld=F IF1Alg=4.
 End of G2Drv F.D. properties file   721 does not exist.
 End of G2Drv F.D. properties file   722 does not exist.
 End of G2Drv F.D. properties file   788 does not exist.
          IDoAtm=11111111111111
 NEqPCM:  Using equilibrium solvation (IEInf=0, Eps=  78.3553, EpsInf=   1.7778)
          Differentiating once with respect to nuclear coordinates.
 Keep R1 and R2 ints in memory in canonical form, NReq=421874389.
          There are    45 degrees of freedom in the 1st order CPHF.  IDoFFX=6 NUNeed=     0.
     39 vectors produced by pass  0 Test12= 2.48D-14 2.22D-09 XBig12= 2.90D-01 1.91D-01.
 AX will form    39 AO Fock derivatives at one time.
     39 vectors produced by pass  1 Test12= 2.48D-14 2.22D-09 XBig12= 4.75D-02 6.75D-02.
     39 vectors produced by pass  2 Test12= 2.48D-14 2.22D-09 XBig12= 3.03D-03 8.46D-03.
     39 vectors produced by pass  3 Test12= 2.48D-14 2.22D-09 XBig12= 4.65D-05 9.14D-04.
     39 vectors produced by pass  4 Test12= 2.48D-14 2.22D-09 XBig12= 6.39D-07 8.11D-05.
     39 vectors produced by pass  5 Test12= 2.48D-14 2.22D-09 XBig12= 6.69D-09 6.43D-06.
     39 vectors produced by pass  6 Test12= 2.48D-14 2.22D-09 XBig12= 6.69D-11 5.92D-07.
     25 vectors produced by pass  7 Test12= 2.48D-14 2.22D-09 XBig12= 5.50D-13 6.48D-08.
      6 vectors produced by pass  8 Test12= 2.48D-14 2.22D-09 XBig12= 3.64D-15 4.47D-09.
 InvSVY:  IOpt=1 It=  1 EMax= 1.78D-15
 Solved reduced A of dimension   304 with    39 vectors.
 End of Minotr F.D. properties file   721 does not exist.
 End of Minotr F.D. properties file   722 does not exist.
 End of Minotr F.D. properties file   788 does not exist.

 **********************************************************************

            Population analysis using the SCF Density.

 **********************************************************************

 Orbital symmetries:
 Alpha Orbitals:
       Occupied  (A) (A) (A) (A) (A) (A) (A) (A) (A) (A) (A) (A)
                 (A) (A) (A) (A) (A) (A) (A) (A) (A) (A) (A) (A)
                 (A) (A) (A) (A) (A) (A) (A) (A) (A) (A) (A)
       Virtual   (A) (A) (A) (A) (A) (A) (A) (A) (A) (A) (A) (A)
                 (A) (A) (A) (A) (A) (A) (A) (A) (A) (A) (A) (A)
                 (A) (A) (A) (A) (A) (A) (A) (A) (A) (A) (A) (A)
                 (A) (A) (A) (A) (A) (A) (A) (A) (A) (A) (A) (A)
                 (A) (A) (A) (A) (A) (A) (A) (A) (A) (A) (A) (A)
                 (A) (A) (A) (A) (A) (A) (A) (A) (A) (A) (A) (A)
                 (A) (A) (A) (A) (A) (A) (A) (A) (A) (A) (A) (A)
                 (A) (A) (A) (A) (A) (A) (A) (A) (A) (A) (A) (A)
                 (A) (A) (A) (A) (A) (A) (A) (A) (A) (A) (A) (A)
                 (A) (A) (A) (A) (A) (A) (A) (A) (A) (A) (A) (A)
                 (A) (A) (A) (A) (A) (A) (A) (A) (A) (A) (A) (A)
                 (A) (A) (A) (A) (A) (A) (A) (A) (A) (A) (A) (A)
                 (A) (A) (A) (A) (A) (A) (A) (A) (A) (A) (A) (A)
                 (A) (A) (A) (A) (A)
 Beta  Orbitals:
       Occupied  (A) (A) (A) (A) (A) (A) (A) (A) (A) (A) (A) (A)
                 (A) (A) (A) (A) (A) (A) (A) (A) (A) (A) (A) (A)
                 (A) (A) (A) (A) (A) (A) (A) (A) (A) (A)
       Virtual   (A) (A) (A) (A) (A) (A) (A) (A) (A) (A) (A) (A)
                 (A) (A) (A) (A) (A) (A) (A) (A) (A) (A) (A) (A)
                 (A) (A) (A) (A) (A) (A) (A) (A) (A) (A) (A) (A)
                 (A) (A) (A) (A) (A) (A) (A) (A) (A) (A) (A) (A)
                 (A) (A) (A) (A) (A) (A) (A) (A) (A) (A) (A) (A)
                 (A) (A) (A) (A) (A) (A) (A) (A) (A) (A) (A) (A)
                 (A) (A) (A) (A) (A) (A) (A) (A) (A) (A) (A) (A)
                 (A) (A) (A) (A) (A) (A) (A) (A) (A) (A) (A) (A)
                 (A) (A) (A) (A) (A) (A) (A) (A) (A) (A) (A) (A)
                 (A) (A) (A) (A) (A) (A) (A) (A) (A) (A) (A) (A)
                 (A) (A) (A) (A) (A) (A) (A) (A) (A) (A) (A) (A)
                 (A) (A) (A) (A) (A) (A) (A) (A) (A) (A) (A) (A)
                 (A) (A) (A) (A) (A) (A) (A) (A) (A) (A) (A) (A)
                 (A) (A) (A) (A) (A) (A)
 The electronic state is 2-A.
 Alpha  occ. eigenvalues --  -19.64959 -19.61914 -19.61590 -14.86004 -14.78880
 Alpha  occ. eigenvalues --  -14.77837 -10.69954 -10.57056 -10.56603  -1.23252
 Alpha  occ. eigenvalues --   -1.17115  -1.12406  -1.08773  -0.98067  -0.93888
 Alpha  occ. eigenvalues --   -0.76135  -0.69844  -0.67169  -0.66119  -0.58164
 Alpha  occ. eigenvalues --   -0.57058  -0.54671  -0.53377  -0.51404  -0.48790
 Alpha  occ. eigenvalues --   -0.46711  -0.44514  -0.40076  -0.38919  -0.37466
 Alpha  occ. eigenvalues --   -0.37188  -0.36194  -0.35023  -0.34157  -0.16974
 Alpha virt. eigenvalues --    0.02382   0.04100   0.04533   0.05263   0.06640
 Alpha virt. eigenvalues --    0.06714   0.07017   0.09210   0.09371   0.09701
 Alpha virt. eigenvalues --    0.10997   0.11926   0.12172   0.15080   0.15969
 Alpha virt. eigenvalues --    0.17773   0.19262   0.20099   0.20284   0.22093
 Alpha virt. eigenvalues --    0.22198   0.22845   0.23275   0.24076   0.24604
 Alpha virt. eigenvalues --    0.25362   0.25695   0.26660   0.27178   0.28195
 Alpha virt. eigenvalues --    0.29378   0.29841   0.29933   0.31207   0.31955
 Alpha virt. eigenvalues --    0.33399   0.33827   0.34509   0.35413   0.35840
 Alpha virt. eigenvalues --    0.38780   0.40173   0.40630   0.41645   0.44695
 Alpha virt. eigenvalues --    0.45901   0.47941   0.48672   0.52386   0.54895
 Alpha virt. eigenvalues --    0.63494   0.70771   0.74882   0.77964   0.81022
 Alpha virt. eigenvalues --    0.83199   0.85255   0.89635   0.92026   0.92723
 Alpha virt. eigenvalues --    0.96594   0.97288   0.98665   1.00266   1.01240
 Alpha virt. eigenvalues --    1.03369   1.06607   1.07752   1.10918   1.12926
 Alpha virt. eigenvalues --    1.14280   1.16362   1.19038   1.20954   1.23935
 Alpha virt. eigenvalues --    1.26402   1.29302   1.30696   1.32002   1.33301
 Alpha virt. eigenvalues --    1.35583   1.36478   1.37260   1.38323   1.39054
 Alpha virt. eigenvalues --    1.40163   1.43659   1.44174   1.47095   1.48426
 Alpha virt. eigenvalues --    1.49846   1.50694   1.55896   1.60825   1.63721
 Alpha virt. eigenvalues --    1.65600   1.66442   1.71602   1.75342   1.83092
 Alpha virt. eigenvalues --    1.83702   1.84905   1.88539   1.90073   1.90802
 Alpha virt. eigenvalues --    1.95704   1.96909   2.00448   2.01546   2.02046
 Alpha virt. eigenvalues --    2.04143   2.10401   2.14671   2.17116   2.20886
 Alpha virt. eigenvalues --    2.23266   2.24461   2.31071   2.31994   2.34393
 Alpha virt. eigenvalues --    2.42380   2.42648   2.45055   2.48484   2.49849
 Alpha virt. eigenvalues --    2.54194   2.54679   2.58884   2.61357   2.68087
 Alpha virt. eigenvalues --    2.68546   2.72473   2.75120   2.77346   2.82463
 Alpha virt. eigenvalues --    2.85091   2.86213   2.89890   2.95092   2.99161
 Alpha virt. eigenvalues --    3.00208   3.01270   3.11268   3.13163   3.25215
 Alpha virt. eigenvalues --    3.27213   3.33126   3.33805   3.49290   3.71405
 Alpha virt. eigenvalues --    3.79716   3.82920   4.08225   4.24789   4.33107
 Alpha virt. eigenvalues --    4.44228   4.44786   4.50338   4.59303   4.69649
 Alpha virt. eigenvalues --    4.79465
  Beta  occ. eigenvalues --  -19.64915 -19.61746 -19.61570 -14.85899 -14.78449
  Beta  occ. eigenvalues --  -14.77319 -10.69881 -10.56942 -10.56638  -1.22724
  Beta  occ. eigenvalues --   -1.16408  -1.12049  -1.08607  -0.96564  -0.93095
  Beta  occ. eigenvalues --   -0.75197  -0.69349  -0.66919  -0.65294  -0.57186
  Beta  occ. eigenvalues --   -0.55978  -0.54100  -0.53026  -0.50624  -0.48216
  Beta  occ. eigenvalues --   -0.45884  -0.43987  -0.39231  -0.38074  -0.36624
  Beta  occ. eigenvalues --   -0.36352  -0.34414  -0.32123  -0.31898
  Beta virt. eigenvalues --   -0.01209   0.02202   0.04164   0.04385   0.05049
  Beta virt. eigenvalues --    0.06654   0.06872   0.07786   0.08710   0.08991
  Beta virt. eigenvalues --    0.11079   0.11392   0.11725   0.12629   0.14971
  Beta virt. eigenvalues --    0.15662   0.17753   0.19275   0.20181   0.20310
  Beta virt. eigenvalues --    0.21960   0.22312   0.22810   0.23443   0.24100
  Beta virt. eigenvalues --    0.24718   0.25582   0.25771   0.26882   0.27076
  Beta virt. eigenvalues --    0.28243   0.29369   0.29744   0.29868   0.31156
  Beta virt. eigenvalues --    0.32069   0.33530   0.33907   0.34302   0.35522
  Beta virt. eigenvalues --    0.35695   0.38823   0.40132   0.40681   0.41712
  Beta virt. eigenvalues --    0.44713   0.46240   0.48306   0.48689   0.52678
  Beta virt. eigenvalues --    0.55158   0.63950   0.71154   0.74951   0.78912
  Beta virt. eigenvalues --    0.81483   0.83502   0.85540   0.89870   0.92247
  Beta virt. eigenvalues --    0.93120   0.96891   0.97723   0.99486   1.00770
  Beta virt. eigenvalues --    1.03012   1.04022   1.07037   1.08432   1.11219
  Beta virt. eigenvalues --    1.13336   1.14371   1.16892   1.19225   1.21317
  Beta virt. eigenvalues --    1.24152   1.26669   1.29396   1.31195   1.32157
  Beta virt. eigenvalues --    1.33706   1.35874   1.36650   1.37458   1.38610
  Beta virt. eigenvalues --    1.39500   1.40354   1.43980   1.44725   1.47813
  Beta virt. eigenvalues --    1.48761   1.50548   1.51101   1.56183   1.61155
  Beta virt. eigenvalues --    1.63934   1.65882   1.66797   1.71683   1.75675
  Beta virt. eigenvalues --    1.83305   1.83997   1.85206   1.88700   1.90363
  Beta virt. eigenvalues --    1.90998   1.96032   1.97310   2.00953   2.01963
  Beta virt. eigenvalues --    2.02376   2.04533   2.11053   2.15047   2.17586
  Beta virt. eigenvalues --    2.21296   2.24143   2.25018   2.31566   2.32384
  Beta virt. eigenvalues --    2.34821   2.42532   2.43129   2.45599   2.49130
  Beta virt. eigenvalues --    2.50206   2.54693   2.55198   2.59095   2.61761
  Beta virt. eigenvalues --    2.68733   2.68950   2.72910   2.75740   2.77737
  Beta virt. eigenvalues --    2.82723   2.85415   2.86505   2.90262   2.95507
  Beta virt. eigenvalues --    2.99424   3.00605   3.01738   3.11681   3.13668
  Beta virt. eigenvalues --    3.25499   3.27592   3.33681   3.34090   3.49301
  Beta virt. eigenvalues --    3.71673   3.79943   3.82953   4.08441   4.24950
  Beta virt. eigenvalues --    4.33125   4.44768   4.45141   4.50336   4.60211
  Beta virt. eigenvalues --    4.70218   4.79522
          Condensed to atoms (all electrons):
               1          2          3          4          5          6
     1  N    7.569262  -0.375810   0.175391  -0.090274  -0.243914   0.003840
     2  N   -0.375810   8.279672  -0.151786   0.166780  -0.341510  -0.043258
     3  C    0.175391  -0.151786   5.755744   0.026465  -0.013310   0.394959
     4  C   -0.090274   0.166780   0.026465   5.615353   0.102508  -0.020346
     5  N   -0.243914  -0.341510  -0.013310   0.102508   7.991518   0.002290
     6  H    0.003840  -0.043258   0.394959  -0.020346   0.002290   0.444684
     7  H   -0.002897   0.007501  -0.032063   0.401996  -0.046062   0.000116
     8  H    0.014262   0.123796  -0.002939  -0.002649   0.004642  -0.000056
     9  C    0.223309  -0.028137  -0.008423   0.000356  -0.067430  -0.000132
    10  O   -0.114894  -0.027649   0.019114  -0.018583   0.015338  -0.000064
    11  O   -0.100251   0.008957   0.000752  -0.005554  -0.038250   0.000016
    12  O    0.015730  -0.181750  -0.011802   0.013666   0.007060  -0.000155
    13  H   -0.005411   0.013657  -0.000937   0.000714  -0.005549   0.000004
    14  H   -0.003363   0.008084   0.001961  -0.000547  -0.000316  -0.000010
               7          8          9         10         11         12
     1  N   -0.002897   0.014262   0.223309  -0.114894  -0.100251   0.015730
     2  N    0.007501   0.123796  -0.028137  -0.027649   0.008957  -0.181750
     3  C   -0.032063  -0.002939  -0.008423   0.019114   0.000752  -0.011802
     4  C    0.401996  -0.002649   0.000356  -0.018583  -0.005554   0.013666
     5  N   -0.046062   0.004642  -0.067430   0.015338  -0.038250   0.007060
     6  H    0.000116  -0.000056  -0.000132  -0.000064   0.000016  -0.000155
     7  H    0.463701  -0.000047   0.000225  -0.000014  -0.000086   0.000059
     8  H   -0.000047   0.257940   0.000496   0.001670   0.001296   0.105262
     9  C    0.000225   0.000496   4.479233   0.242831   0.389263   0.010806
    10  O   -0.000014   0.001670   0.242831   8.594352  -0.085761  -0.124542
    11  O   -0.000086   0.001296   0.389263  -0.085761   8.531023  -0.002759
    12  O    0.000059   0.105262   0.010806  -0.124542  -0.002759   8.847352
    13  H   -0.000000  -0.002597   0.007350   0.151877   0.001972   0.091013
    14  H   -0.000000  -0.006858  -0.000456   0.004889   0.000223   0.269008
              13         14
     1  N   -0.005411  -0.003363
     2  N    0.013657   0.008084
     3  C   -0.000937   0.001961
     4  C    0.000714  -0.000547
     5  N   -0.005549  -0.000316
     6  H    0.000004  -0.000010
     7  H   -0.000000  -0.000000
     8  H   -0.002597  -0.006858
     9  C    0.007350  -0.000456
    10  O    0.151877   0.004889
    11  O    0.001972   0.000223
    12  O    0.091013   0.269008
    13  H    0.246899  -0.007030
    14  H   -0.007030   0.292721
          Atomic-Atomic Spin Densities.
               1          2          3          4          5          6
     1  N    0.167207  -0.147625   0.080438   0.052887  -0.187980  -0.000366
     2  N   -0.147625   0.636994  -0.263020  -0.016804   0.031401   0.001504
     3  C    0.080438  -0.263020   0.334218   0.086741  -0.032622  -0.004787
     4  C    0.052887  -0.016804   0.086741  -0.002991  -0.167728   0.003772
     5  N   -0.187980   0.031401  -0.032622  -0.167728   0.738081  -0.000079
     6  H   -0.000366   0.001504  -0.004787   0.003772  -0.000079  -0.008553
     7  H    0.001659   0.001112  -0.002012   0.003625  -0.003827   0.000008
     8  H   -0.017953   0.029816  -0.008591   0.004773  -0.000570   0.000025
     9  C    0.091542  -0.020740  -0.001370   0.004987  -0.021784  -0.000005
    10  O   -0.022146   0.018228  -0.004684   0.000618   0.002585   0.000011
    11  O   -0.029868   0.003944  -0.000351  -0.003790   0.022394  -0.000001
    12  O    0.022415  -0.037235   0.020460  -0.007287   0.001453  -0.000029
    13  H   -0.001258   0.001571  -0.000506   0.000035   0.000325  -0.000000
    14  H    0.000127  -0.001048   0.000211   0.000103  -0.000064   0.000000
               7          8          9         10         11         12
     1  N    0.001659  -0.017953   0.091542  -0.022146  -0.029868   0.022415
     2  N    0.001112   0.029816  -0.020740   0.018228   0.003944  -0.037235
     3  C   -0.002012  -0.008591  -0.001370  -0.004684  -0.000351   0.020460
     4  C    0.003625   0.004773   0.004987   0.000618  -0.003790  -0.007287
     5  N   -0.003827  -0.000570  -0.021784   0.002585   0.022394   0.001453
     6  H    0.000008   0.000025  -0.000005   0.000011  -0.000001  -0.000029
     7  H   -0.000567   0.000000  -0.000046   0.000004  -0.000004  -0.000006
     8  H    0.000000  -0.001567  -0.000373   0.000408  -0.000153  -0.002918
     9  C   -0.000046  -0.000373   0.136491  -0.025496  -0.055041   0.002622
    10  O    0.000004   0.000408  -0.025496   0.037197   0.007781  -0.002284
    11  O   -0.000004  -0.000153  -0.055041   0.007781   0.133546   0.000156
    12  O   -0.000006  -0.002918   0.002622  -0.002284   0.000156   0.012950
    13  H    0.000000   0.000336  -0.000171   0.001172   0.000116  -0.000700
    14  H    0.000000  -0.000497   0.000077  -0.000354  -0.000017   0.001566
              13         14
     1  N   -0.001258   0.000127
     2  N    0.001571  -0.001048
     3  C   -0.000506   0.000211
     4  C    0.000035   0.000103
     5  N    0.000325  -0.000064
     6  H   -0.000000   0.000000
     7  H    0.000000   0.000000
     8  H    0.000336  -0.000497
     9  C   -0.000171   0.000077
    10  O    0.001172  -0.000354
    11  O    0.000116  -0.000017
    12  O   -0.000700   0.001566
    13  H    0.000446  -0.000015
    14  H   -0.000015  -0.001056
 Mulliken charges and spin densities:
               1          2
     1  N   -0.064981   0.009079
     2  N   -0.458547   0.238098
     3  C   -0.153126   0.204125
     4  C   -0.189885  -0.041061
     5  N   -0.367016   0.381585
     6  H    0.218112  -0.008500
     7  H    0.207573  -0.000055
     8  H    0.505784   0.002737
     9  C    0.750709   0.110692
    10  O   -0.658565   0.013040
    11  O   -0.700839   0.078710
    12  O   -1.038949   0.011164
    13  H    0.508037   0.001349
    14  H    0.441693  -0.000967
 Sum of Mulliken charges =  -1.00000   1.00000
 Mulliken charges and spin densities with hydrogens summed into heavy atoms:
               1          2
     1  N   -0.064981   0.009079
     2  N   -0.458547   0.238098
     3  C    0.064986   0.195626
     4  C    0.017687  -0.041115
     5  N   -0.367016   0.381585
     9  C    0.750709   0.110692
    10  O   -0.150527   0.014390
    11  O   -0.700839   0.078710
    12  O   -0.091471   0.012935
 APT charges:
               1
     1  N   -0.386691
     2  N   -0.384025
     3  C   -0.610877
     4  C   -0.518637
     5  N   -0.358005
     6  H    0.705040
     7  H    0.778176
     8  H    0.413631
     9  C    0.384469
    10  O   -0.545351
    11  O   -0.451245
    12  O   -1.291797
    13  H    0.468956
    14  H    0.796357
 Sum of APT charges =  -1.00000
 APT charges with hydrogens summed into heavy atoms:
               1
     1  N   -0.386691
     2  N   -0.384025
     3  C    0.094162
     4  C    0.259539
     5  N   -0.358005
     9  C    0.384469
    10  O   -0.076395
    11  O   -0.451245
    12  O   -0.081809
 Electronic spatial extent (au):  <R**2>=           1134.3642
 Charge=             -1.0000 electrons
 Dipole moment (field-independent basis, Debye):
    X=             -5.7943    Y=              6.9614    Z=              1.8213  Tot=              9.2386
 Quadrupole moment (field-independent basis, Debye-Ang):
   XX=            -63.1274   YY=            -74.6925   ZZ=            -55.1127
   XY=              1.4381   XZ=              3.9311   YZ=              6.8979
 Traceless Quadrupole moment (field-independent basis, Debye-Ang):
   XX=              1.1835   YY=            -10.3816   ZZ=              9.1981
   XY=              1.4381   XZ=              3.9311   YZ=              6.8979
 Octapole moment (field-independent basis, Debye-Ang**2):
  XXX=            -34.9476  YYY=             41.4692  ZZZ=              6.2799  XYY=            -16.8121
  XXY=             17.7904  XXZ=              9.2925  XZZ=             11.4367  YZZ=              8.5966
  YYZ=              5.3456  XYZ=              9.6580
 Hexadecapole moment (field-independent basis, Debye-Ang**3):
 XXXX=           -801.0532 YYYY=           -675.0775 ZZZZ=            -83.2981 XXXY=             19.1831
 XXXZ=              9.4554 YYYX=              5.7888 YYYZ=             41.9694 ZZZX=              9.0626
 ZZZY=             18.9755 XXYY=           -256.3817 XXZZ=           -158.7395 YYZZ=            -97.1419
 XXYZ=              8.8413 YYXZ=             17.2801 ZZXY=             12.9999
 N-N= 4.658443982639D+02 E-N=-2.132132637244D+03  KE= 5.031545287921D+02
  Exact polarizability:       0.000       0.000       0.000       0.000       0.000       0.000
 Approx polarizability:     110.877      -6.160     110.382      -1.843      -8.108      63.941
                          Isotropic Fermi Contact Couplings
        Atom                 a.u.       MegaHertz       Gauss      10(-4) cm-1
     1  N(14)             -0.00501      -1.61747      -0.57715      -0.53953
     2  N(14)              0.06671      21.55308       7.69067       7.18933
     3  C(13)              0.02157      24.25025       8.65309       8.08901
     4  C(13)             -0.01498     -16.83598      -6.00750      -5.61588
     5  N(14)              0.09294      30.02941      10.71524      10.01673
     6  H(1)              -0.00287     -12.81005      -4.57094      -4.27297
     7  H(1)              -0.00024      -1.05277      -0.37565      -0.35117
     8  H(1)               0.00329      14.69716       5.24431       4.90244
     9  C(13)              0.01580      17.75960       6.33707       5.92396
    10  O(17)              0.00441      -2.67569      -0.95475      -0.89251
    11  O(17)              0.01968     -11.93072      -4.25718      -3.97966
    12  O(17)              0.00650      -3.93735      -1.40495      -1.31336
    13  H(1)               0.00079       3.52277       1.25701       1.17507
    14  H(1)              -0.00026      -1.17425      -0.41900      -0.39169
 --------------------------------------------------------
       Center         ----  Spin Dipole Couplings  ----
                      3XX-RR        3YY-RR        3ZZ-RR
 --------------------------------------------------------
     1   Atom       -0.097825     -0.094926      0.192751
     2   Atom       -0.330114     -0.307302      0.637415
     3   Atom       -0.081234     -0.073225      0.154459
     4   Atom        0.007954      0.013903     -0.021857
     5   Atom       -0.392397     -0.347519      0.739916
     6   Atom       -0.006502      0.011012     -0.004510
     7   Atom        0.005740     -0.000169     -0.005571
     8   Atom        0.017114      0.002965     -0.020079
     9   Atom       -0.060137     -0.056888      0.117025
    10   Atom       -0.050295     -0.044505      0.094801
    11   Atom       -0.149561     -0.135234      0.284795
    12   Atom        0.009826      0.005860     -0.015687
    13   Atom        0.004791      0.003669     -0.008460
    14   Atom       -0.000119      0.000534     -0.000415
 --------------------------------------------------------
                        XY            XZ            YZ
 --------------------------------------------------------
     1   Atom        0.002944      0.031157      0.062264
     2   Atom        0.000234      0.017735      0.109616
     3   Atom        0.001607      0.015623      0.054229
     4   Atom       -0.005041     -0.000616      0.000356
     5   Atom        0.020707      0.094440      0.235534
     6   Atom       -0.013973      0.002954     -0.000966
     7   Atom        0.002532     -0.001807     -0.001385
     8   Atom        0.030839      0.003233      0.004325
     9   Atom       -0.002012      0.018776      0.049845
    10   Atom       -0.002928      0.009650      0.027545
    11   Atom        0.013068      0.042370      0.122420
    12   Atom        0.031694     -0.006923     -0.005655
    13   Atom        0.001106      0.000738      0.001410
    14   Atom        0.003415      0.002351      0.002955
 --------------------------------------------------------


 ---------------------------------------------------------------------------------
              Anisotropic Spin Dipole Couplings in Principal Axis System
 ---------------------------------------------------------------------------------

       Atom             a.u.   MegaHertz   Gauss  10(-4) cm-1        Axes

              Baa    -0.1092    -4.213    -1.503    -1.405  0.3807  0.8971 -0.2242
     1 N(14)  Bbb    -0.0996    -3.840    -1.370    -1.281  0.9192 -0.3936 -0.0141
              Bcc     0.2088     8.053     2.874     2.686  0.1009  0.2007  0.9744
 
              Baa    -0.3307   -12.755    -4.551    -4.255  0.9866  0.1590 -0.0361
     2 N(14)  Bbb    -0.3196   -12.325    -4.398    -4.111 -0.1620  0.9807 -0.1093
              Bcc     0.6503    25.080     8.949     8.366  0.0180  0.1137  0.9934
 
              Baa    -0.0863   -11.585    -4.134    -3.864  0.4129  0.8824 -0.2255
     3 C(13)  Bbb    -0.0814   -10.918    -3.896    -3.642  0.9086 -0.4161  0.0355
              Bcc     0.1677    22.503     8.030     7.506  0.0625  0.2196  0.9736
 
              Baa    -0.0219    -2.935    -1.047    -0.979  0.0194 -0.0072  0.9998
     4 C(13)  Bbb     0.0051     0.682     0.243     0.227  0.8680  0.4964 -0.0133
              Bcc     0.0168     2.253     0.804     0.752 -0.4962  0.8681  0.0159
 
              Baa    -0.4005   -15.448    -5.512    -5.153  0.9641 -0.2644 -0.0252
     5 N(14)  Bbb    -0.3961   -15.275    -5.450    -5.095  0.2529  0.9429 -0.2165
              Bcc     0.7966    30.723    10.963    10.248  0.0810  0.2024  0.9759
 
              Baa    -0.0147    -7.834    -2.795    -2.613  0.8628  0.4614 -0.2067
     6 H(1)   Bbb    -0.0043    -2.286    -0.816    -0.763  0.1346  0.1845  0.9736
              Bcc     0.0190    10.120     3.611     3.376 -0.4873  0.8678 -0.0970
 
              Baa    -0.0060    -3.220    -1.149    -1.074  0.1106  0.1830  0.9769
     7 H(1)   Bbb    -0.0010    -0.543    -0.194    -0.181 -0.3779  0.9168 -0.1290
              Bcc     0.0071     3.763     1.343     1.255  0.9192  0.3549 -0.1705
 
              Baa    -0.0225   -12.019    -4.289    -4.009 -0.4799  0.6756 -0.5597
     8 H(1)   Bbb    -0.0196   -10.453    -3.730    -3.487 -0.4049  0.3955  0.8244
              Bcc     0.0421    22.473     8.019     7.496  0.7783  0.6223  0.0837
 
              Baa    -0.0739    -9.918    -3.539    -3.308  0.4836  0.8341 -0.2653
     9 C(13)  Bbb    -0.0580    -7.784    -2.778    -2.597  0.8705 -0.4900  0.0462
              Bcc     0.1319    17.702     6.317     5.905  0.0915  0.2533  0.9631
 
              Baa    -0.0550     3.979     1.420     1.327  0.7450  0.6459 -0.1668
    10 O(17)  Bbb    -0.0456     3.298     1.177     1.100 -0.6645  0.7407 -0.0996
              Bcc     0.1006    -7.278    -2.597    -2.428  0.0592  0.1850  0.9809
 
              Baa    -0.1685    12.191     4.350     4.066 -0.1046  0.9625 -0.2502
    11 O(17)  Bbb    -0.1536    11.111     3.965     3.706  0.9901  0.0771 -0.1172
              Bcc     0.3220   -23.302    -8.315    -7.773  0.0936  0.2600  0.9611
 
              Baa    -0.0240     1.734     0.619     0.578 -0.6909  0.7176 -0.0876
    12 O(17)  Bbb    -0.0170     1.233     0.440     0.411  0.0524  0.1705  0.9840
              Bcc     0.0410    -2.967    -1.059    -0.990  0.7210  0.6753 -0.1554
 
              Baa    -0.0086    -4.615    -1.647    -1.539 -0.0455 -0.1096  0.9929
    13 H(1)   Bbb     0.0030     1.624     0.579     0.542 -0.5535  0.8302  0.0663
              Bcc     0.0056     2.991     1.067     0.998  0.8316  0.5466  0.0985
 
              Baa    -0.0033    -1.759    -0.628    -0.587 -0.5977  0.7505 -0.2821
    14 H(1)   Bbb    -0.0026    -1.385    -0.494    -0.462 -0.5670 -0.1469  0.8105
              Bcc     0.0059     3.144     1.122     1.049  0.5669  0.6444  0.5133
 

 ---------------------------------------------------------------------------------

 D2PCM: PCM CHGder 2nd derivatives, FixD1E=F FixD2E=F DoIter=F DoCFld=F I1PDM=0
 Calling FoFJK, ICntrl=    100127 FMM=F ISym2X=0 I1Cent= 0 IOpClX= 1 NMat=1 NMatS=1 NMatT=0.
 ***** Axes restored to original set *****
 -------------------------------------------------------------------
 Center     Atomic                   Forces (Hartrees/Bohr)
 Number     Number              X              Y              Z
 -------------------------------------------------------------------
      1        7           0.003002679   -0.001758736   -0.002470146
      2        7           0.011464819   -0.009438668    0.022697038
      3        6          -0.000203375   -0.001260018   -0.004024436
      4        6          -0.000351691   -0.001173944    0.001651205
      5        7          -0.000392432   -0.000547900    0.000482908
      6        1           0.000164453   -0.000207607   -0.001121294
      7        1          -0.000091144    0.000003538    0.001052910
      8        1           0.002001887    0.013738950   -0.008535966
      9        6           0.009851433   -0.015736286    0.000231834
     10        8          -0.000353203   -0.001558852   -0.000679112
     11        8           0.000326431    0.002232927    0.004923955
     12        8          -0.016836989    0.008484050   -0.015521628
     13        1          -0.011353224    0.010131261   -0.001465832
     14        1           0.002770357   -0.002908713    0.002778565
 -------------------------------------------------------------------
 Cartesian Forces:  Max     0.022697038 RMS     0.007360977
 FormGI is forming the generalized inverse of G from B-inverse, IUseBI=4.

 GradGradGradGradGradGradGradGradGradGradGradGradGradGradGradGradGradGrad
 Berny optimization.
 Internal  Forces:  Max     0.027271081 RMS     0.005545782
 Search for a saddle point.
 Step number   1 out of a maximum of   76
 All quantities printed in internal units (Hartrees-Bohrs-Radians)
 Swapping is turned off.
 Second derivative matrix not updated -- analytic derivatives used.
 ITU=  0
     Eigenvalues ---   -0.00781   0.00205   0.00477   0.00786   0.00946
     Eigenvalues ---    0.01121   0.01279   0.02274   0.02469   0.02817
     Eigenvalues ---    0.03006   0.03995   0.04883   0.06104   0.07110
     Eigenvalues ---    0.07996   0.09574   0.10164   0.10904   0.20086
     Eigenvalues ---    0.21551   0.24506   0.26366   0.27306   0.29360
     Eigenvalues ---    0.30274   0.30805   0.38423   0.38650   0.41767
     Eigenvalues ---    0.44425   0.45836   0.47319   0.52773   0.53812
     Eigenvalues ---    0.71550
 Eigenvectors required to have negative eigenvalues:
                          R10       R5        R14       R13       D28
   1                    0.54375  -0.52810  -0.47721   0.28298   0.19284
                          A20       A21       D24       R11       A6
   1                    0.18816  -0.09869   0.07474  -0.06137  -0.05842
 RFO step:  Lambda0=2.027605991D-03 Lambda=-1.07340919D-02.
 Linear search not attempted -- option 19 set.
 Maximum step size (   0.300) exceeded in Quadratic search.
    -- Step size scaled by   0.588
 Iteration  1 RMS(Cart)=  0.04029184 RMS(Int)=  0.00173713
 Iteration  2 RMS(Cart)=  0.00149258 RMS(Int)=  0.00051029
 Iteration  3 RMS(Cart)=  0.00000371 RMS(Int)=  0.00051028
 Iteration  4 RMS(Cart)=  0.00000000 RMS(Int)=  0.00051028
 Variable       Old X    -DE/DX   Delta X   Delta X   Delta X     New X
                                 (Linear)    (Quad)   (Total)
    R1        2.62947   0.00394   0.00000   0.00320   0.00308   2.63255
    R2        2.60312  -0.00083   0.00000  -0.00481  -0.00484   2.59828
    R3        2.59763  -0.00152   0.00000   0.00585   0.00567   2.60329
    R4        2.58359   0.00066   0.00000   0.00704   0.00693   2.59052
    R5        2.29011   0.02727   0.00000  -0.08605  -0.08583   2.20428
    R6        2.59844   0.00113   0.00000  -0.00215  -0.00200   2.59644
    R7        2.03969   0.00001   0.00000  -0.00049  -0.00049   2.03921
    R8        2.56211  -0.00179   0.00000  -0.00102  -0.00081   2.56130
    R9        2.04131   0.00004   0.00000   0.00001   0.00001   2.04132
   R10        2.20088   0.01998   0.00000   0.18097   0.18122   2.38210
   R11        2.48662   0.01404   0.00000  -0.00832  -0.00860   2.47802
   R12        2.35371  -0.00166   0.00000  -0.00251  -0.00251   2.35119
   R13        2.04235   0.01122   0.00000   0.10537   0.10536   2.14771
   R14        2.49399   0.00603   0.00000  -0.13284  -0.13287   2.36112
   R15        1.82735  -0.00260   0.00000  -0.00131  -0.00131   1.82604
    A1        1.96998   0.00240   0.00000  -0.00049  -0.00079   1.96920
    A2        2.16542   0.00102   0.00000  -0.00533  -0.00577   2.15965
    A3        2.14629  -0.00336   0.00000   0.00678   0.00737   2.15366
    A4        1.81427  -0.00386   0.00000   0.00156   0.00128   1.81555
    A5        1.90899   0.00438   0.00000   0.03240   0.03243   1.94142
    A6        2.32289  -0.00129   0.00000  -0.04259  -0.04240   2.28049
    A7        1.89344   0.00196   0.00000  -0.00382  -0.00426   1.88918
    A8        2.10922  -0.00094   0.00000   0.00125   0.00132   2.11054
    A9        2.28042  -0.00100   0.00000   0.00293   0.00301   2.28343
   A10        1.94717   0.00025   0.00000   0.00345   0.00338   1.95055
   A11        2.23935   0.00003   0.00000  -0.00291  -0.00289   2.23647
   A12        2.09666  -0.00029   0.00000  -0.00051  -0.00049   2.09617
   A13        1.79852  -0.00062   0.00000   0.00205   0.00176   1.80028
   A14        2.85146  -0.00567   0.00000  -0.03106  -0.03051   2.82095
   A15        2.04335  -0.00177   0.00000  -0.00462  -0.00578   2.03757
   A16        2.09910   0.00014   0.00000  -0.00698  -0.00651   2.09259
   A17        2.14068   0.00167   0.00000   0.01184   0.01231   2.15298
   A18        1.88651   0.01376   0.00000   0.07738   0.07683   1.96333
   A19        1.44986  -0.00249   0.00000  -0.00152  -0.00229   1.44757
   A20        2.07666  -0.00241   0.00000  -0.00679  -0.00921   2.06745
   A21        2.08134  -0.00050   0.00000  -0.08722  -0.08706   1.99428
   A22        3.03395  -0.00800   0.00000  -0.02192  -0.02255   3.01140
   A23        3.33154  -0.00474   0.00000  -0.04651  -0.04609   3.28545
    D1       -0.05166   0.00249   0.00000   0.05028   0.05023  -0.00142
    D2        2.50467   0.00101   0.00000   0.02213   0.02193   2.52660
    D3       -3.13599   0.00142   0.00000   0.03147   0.03149  -3.10450
    D4       -0.57967  -0.00006   0.00000   0.00332   0.00319  -0.57648
    D5        0.03846  -0.00146   0.00000  -0.03392  -0.03385   0.00461
    D6        3.12352  -0.00023   0.00000  -0.01580  -0.01568   3.10784
    D7       -0.07891   0.00142   0.00000   0.03183   0.03140  -0.04751
    D8        3.05060   0.00442   0.00000   0.05343   0.05324   3.10384
    D9        3.12558   0.00003   0.00000   0.01145   0.01103   3.13661
   D10       -0.02810   0.00304   0.00000   0.03305   0.03287   0.00477
   D11        0.04285  -0.00245   0.00000  -0.04532  -0.04526  -0.00241
   D12       -3.11310  -0.00089   0.00000  -0.02177  -0.02182  -3.13492
   D13       -2.30408  -0.00298   0.00000  -0.05426  -0.05394  -2.35802
   D14        0.82315  -0.00142   0.00000  -0.03070  -0.03050   0.79265
   D15        0.80299   0.00180   0.00000  -0.00873  -0.00810   0.79489
   D16        3.12015  -0.00034   0.00000  -0.01115  -0.01145   3.10870
   D17       -0.02199   0.00159   0.00000   0.02757   0.02759   0.00560
   D18        3.11512   0.00164   0.00000   0.03204   0.03199  -3.13608
   D19        3.13586  -0.00018   0.00000   0.00094   0.00104   3.13690
   D20       -0.01022  -0.00013   0.00000   0.00541   0.00544  -0.00478
   D21       -0.00964  -0.00009   0.00000   0.00360   0.00351  -0.00612
   D22        3.13603  -0.00014   0.00000  -0.00046  -0.00048   3.13555
   D23       -0.31020   0.00045   0.00000   0.00320   0.00381  -0.30640
   D24       -2.39929   0.00287   0.00000   0.10615   0.10638  -2.29292
   D25        0.70385   0.00032   0.00000  -0.06610  -0.06595   0.63790
   D26       -2.42534  -0.00275   0.00000  -0.08811  -0.08847  -2.51381
   D27       -0.56995   0.00368   0.00000   0.04371   0.04337  -0.52659
   D28        1.48855  -0.00322   0.00000   0.01410   0.01623   1.50479
         Item               Value     Threshold  Converged?
 Maximum Force            0.027271     0.000450     NO 
 RMS     Force            0.005546     0.000300     NO 
 Maximum Displacement     0.142266     0.001800     NO 
 RMS     Displacement     0.040448     0.001200     NO 
 Predicted change in Energy=-3.877497D-03
 GradGradGradGradGradGradGradGradGradGradGradGradGradGradGradGradGradGrad

                          Input orientation:                          
 ---------------------------------------------------------------------
 Center     Atomic      Atomic             Coordinates (Angstroms)
 Number     Number       Type             X           Y           Z
 ---------------------------------------------------------------------
      1          7           0        0.295312   -0.411602   -0.026291
      2          7           0        0.491353    0.946409   -0.267246
      3          6           0        1.849059    1.108525   -0.169458
      4          6           0        2.408263   -0.112627    0.120186
      5          7           0        1.469555   -1.085990    0.212127
      6          1           0        2.303019    2.078012   -0.305380
      7          1           0        3.451347   -0.350006    0.270183
      8          1           0       -0.267342    1.349322   -1.056334
      9          6           0       -0.936842   -1.026219   -0.069124
     10          8           0       -1.972636   -0.256202   -0.300948
     11          8           0       -1.024773   -2.253033    0.118555
     12          8           0       -1.340246    1.572080   -1.679427
     13          1           0       -1.738916    0.576625   -1.038135
     14          1           0       -1.348277    1.455741   -2.638665
 ---------------------------------------------------------------------
                    Distance matrix (angstroms):
                    1          2          3          4          5
     1  N    0.000000
     2  N    1.393085   0.000000
     3  C    2.178396   1.370842   0.000000
     4  C    2.139019   2.224006   1.373977   0.000000
     5  N    1.374950   2.305932   2.259541   1.355383   0.000000
     6  H    3.210445   2.136379   1.079102   2.234072   3.312610
     7  H    3.170528   3.275834   2.210865   1.080218   2.114838
     8  H    2.116228   1.166454   2.307310   3.268081   3.249084
     9  C    1.377604   2.443410   3.511188   3.472782   2.423514
    10  O    2.289798   2.742016   4.060187   4.403436   3.577775
    11  O    2.270346   3.561447   4.431922   4.045625   2.755434
    12  O    3.056616   2.395928   3.559010   4.486442   4.305611
    13  H    2.477600   2.388537   3.729755   4.360719   3.823837
    14  H    3.607334   3.044222   4.054688   4.917584   4.746324
                    6          7          8          9         10
     6  H    0.000000
     7  H    2.746853   0.000000
     8  H    2.775189   4.298373   0.000000
     9  C    4.493191   4.452931   2.658197   0.000000
    10  O    4.871325   5.454776   2.460965   1.311311   0.000000
    11  O    5.478309   4.866225   3.864069   1.244198   2.249835
    12  O    3.926493   5.518582   1.260551   3.083337   2.375444
    13  H    4.373595   5.432234   1.662204   2.037501   1.136517
    14  H    4.377603   5.895635   1.919250   3.596102   2.964034
                   11         12         13         14
    11  O    0.000000
    12  O    4.238366   0.000000
    13  H    3.139250   1.249449   0.000000
    14  H    4.632702   0.966301   1.867389   0.000000
 Stoichiometry    C3H5N3O3(1-,2)
 Framework group  C1[X(C3H5N3O3)]
 Deg. of freedom    36
 Full point group                 C1      NOp   1
 Largest Abelian subgroup         C1      NOp   1
 Largest concise Abelian subgroup C1      NOp   1
                         Standard orientation:                         
 ---------------------------------------------------------------------
 Center     Atomic      Atomic             Coordinates (Angstroms)
 Number     Number       Type             X           Y           Z
 ---------------------------------------------------------------------
      1          7           0       -0.258523   -0.407990   -0.081670
      2          7           0       -0.551100    0.931155   -0.330214
      3          6           0       -1.911894    1.006771   -0.182793
      4          6           0       -2.380254   -0.245105    0.135420
      5          7           0       -1.376432   -1.152580    0.212189
      6          1           0       -2.433993    1.940507   -0.324244
      7          1           0       -3.400739   -0.549426    0.316721
      8          1           0        0.296119    1.629023    0.064520
      9          6           0        1.018394   -0.924978   -0.081795
     10          8           0        1.989601   -0.098524   -0.387193
     11          8           0        1.201448   -2.125422    0.189228
     12          8           0        1.437695    2.104673    0.308551
     13          1           0        1.812094    0.949008    0.016341
     14          1           0        1.641473    2.370846    1.214842
 ---------------------------------------------------------------------
 Rotational constants (GHZ):           2.2811737           1.6386806           0.9875383
 Standard basis: 6-31+G(d,p) (6D, 7F)
 There are   196 symmetry adapted cartesian basis functions of A   symmetry.
 There are   196 symmetry adapted basis functions of A   symmetry.
   196 basis functions,   323 primitive gaussians,   196 cartesian basis functions
    35 alpha electrons       34 beta electrons
       nuclear repulsion energy       464.8068102099 Hartrees.
 NAtoms=   14 NActive=   14 NUniq=   14 SFac= 1.00D+00 NAtFMM=   60 NAOKFM=F Big=F
 Integral buffers will be    131072 words long.
 Raffenetti 2 integral format.
 Two-electron integral symmetry is turned on.
 ------------------------------------------------------------------------------
 Polarizable Continuum Model (PCM)
 =================================
 Model                : PCM.
 Atomic radii         : SMD-Coulomb.
 Polarization charges : Total charges.
 Charge compensation  : None.
 Solution method      : Matrix inversion.
 Cavity type          : VdW (van der Waals Surface) (Alpha=1.000).
 Cavity algorithm     : GePol (No added spheres)
                        Default sphere list used, NSphG=   14.
                        Lebedev-Laikov grids with approx.  5.0 points / Ang**2.
                        Smoothing algorithm: York/Karplus (Gamma=1.0000).
                        Polarization charges: spherical gaussians, with
                                              point-specific exponents (IZeta= 3).
                        Self-potential: point-specific (ISelfS= 7).
                        Self-field    : sphere-specific E.n sum rule (ISelfD= 2).
 1st derivatives      : Analytical E(r).r(x)/FMM algorithm (CHGder, D1EAlg=3).
                        Cavity 1st derivative terms included.
 Solvent              : Water, Eps=  78.355300 Eps(inf)=   1.777849
 ------------------------------------------------------------------------------
 Spheres list:
 ISph  on   Nord     Re0    Alpha      Xe            Ye            Ze
    1   N      1    1.8900  1.000     -0.258523     -0.407990     -0.081670
    2   N      2    1.8900  1.000     -0.551100      0.931155     -0.330214
    3   C      3    1.8500  1.000     -1.911894      1.006771     -0.182793
    4   C      4    1.8500  1.000     -2.380254     -0.245105      0.135420
    5   N      5    1.8900  1.000     -1.376432     -1.152580      0.212189
    6   H      6    1.2000  1.000     -2.433993      1.940507     -0.324244
    7   H      7    1.2000  1.000     -3.400739     -0.549426      0.316721
    8   H      8    1.2000  1.000      0.296119      1.629023      0.064520
    9   C      9    1.8500  1.000      1.018394     -0.924978     -0.081795
   10   O     10    1.5200  1.000      1.989601     -0.098524     -0.387193
   11   O     11    1.5200  1.000      1.201448     -2.125422      0.189228
   12   O     12    1.5200  1.000      1.437695      2.104673      0.308551
   13   H     13    1.2000  1.000      1.812094      0.949008      0.016341
   14   H     14    1.2000  1.000      1.641473      2.370846      1.214842
 ------------------------------------------------------------------------------
 ------------------------------------------------------------------------------
 Atomic radii for non-electrostatic terms: SMD-CDS.
 ------------------------------------------------------------------------------
 Nuclear repulsion after PCM non-electrostatic terms =      464.8138043025 Hartrees.
 One-electron integrals computed using PRISM.
 NBasis=   196 RedAO= T EigKep=  2.54D-05  NBF=   196
 NBsUse=   196 1.00D-06 EigRej= -1.00D+00 NBFU=   196
 Initial guess from the checkpoint file:  "/home/gau/soft/scratch/Gau-59984.chk"
 B after Tr=    -0.000000    0.000000    0.000000
         Rot=    0.999866    0.000227   -0.001009    0.016342 Ang=   1.88 deg.
 Initial guess <Sx>= 0.0000 <Sy>= 0.0000 <Sz>= 0.5000 <S**2>= 0.7627 S= 0.5063
 ExpMin= 4.38D-02 ExpMax= 5.48D+03 ExpMxC= 8.25D+02 IAcc=3 IRadAn=         5 AccDes= 0.00D+00
 Harris functional with IExCor= 1009 and IRadAn=       5 diagonalized for initial guess.
 HarFok:  IExCor= 1009 AccDes= 0.00D+00 IRadAn=         5 IDoV= 1 UseB2=F ITyADJ=14
 ICtDFT=  3500011 ScaDFX=  1.000000  1.000000  1.000000  1.000000
 FoFCou: FMM=F IPFlag=           0 FMFlag=      100000 FMFlg1=           0
         NFxFlg=           0 DoJE=T BraDBF=F KetDBF=T FulRan=T
         wScrn=  0.000000 ICntrl=       500 IOpCl=  0 I1Cent=   200000004 NGrid=           0
         NMat0=    1 NMatS0=      1 NMatT0=    0 NMatD0=    1 NMtDS0=    0 NMtDT0=    0
 Petite list used in FoFCou.
 Requested convergence on RMS density matrix=1.00D-08 within 128 cycles.
 Requested convergence on MAX density matrix=1.00D-06.
 Requested convergence on             energy=1.00D-06.
 No special actions if energy rises.
 Inv3:  Mode=1 IEnd=     3817152.
 Iteration    1 A*A^-1 deviation from unit magnitude is 4.22D-15 for   1124.
 Iteration    1 A*A^-1 deviation from orthogonality  is 1.98D-15 for   1122    609.
 Iteration    1 A^-1*A deviation from unit magnitude is 3.89D-15 for   1121.
 Iteration    1 A^-1*A deviation from orthogonality  is 1.04D-14 for    665    629.
 Error on total polarization charges =  0.05670
 SCF Done:  E(UM062X) =  -507.167968744     A.U. after   15 cycles
            NFock= 15  Conv=0.84D-08     -V/T= 2.0081
 <Sx>= 0.0000 <Sy>= 0.0000 <Sz>= 0.5000 <S**2>= 0.7627 S= 0.5063
 <L.S>=  0.00000000000    
 SMD-CDS (non-electrostatic) energy       (kcal/mol) =       4.39
 (included in total energy above)
 Annihilation of the first spin contaminant:
 S**2 before annihilation     0.7627,   after     0.7501
 D1PCM: PCM CHGder 1st derivatives, ID1Alg=3 FixD1E=F DoIter=F DoCFld=F I1PDM=0.
 Calling FoFJK, ICntrl=      2127 FMM=F ISym2X=0 I1Cent= 0 IOpClX= 1 NMat=1 NMatS=1 NMatT=0.
 ***** Axes restored to original set *****
 -------------------------------------------------------------------
 Center     Atomic                   Forces (Hartrees/Bohr)
 Number     Number              X              Y              Z
 -------------------------------------------------------------------
      1        7           0.001666051   -0.000827422   -0.002431869
      2        7           0.006559493   -0.006821130    0.011863838
      3        6          -0.000040843   -0.000693890   -0.002012581
      4        6           0.000020952   -0.000541525    0.000891263
      5        7          -0.000160716    0.000058703    0.000382655
      6        1           0.000110420   -0.000147184   -0.000811119
      7        1          -0.000070737    0.000009645    0.000612789
      8        1           0.003042051    0.008421608   -0.002039556
      9        6           0.003769155   -0.007076145    0.000811230
     10        8          -0.000343928   -0.004694644    0.001037539
     11        8          -0.000066352    0.000533769    0.002891688
     12        8          -0.011707152    0.004681547   -0.009838655
     13        1          -0.004441619    0.008951810   -0.002707881
     14        1           0.001663225   -0.001855142    0.001350658
 -------------------------------------------------------------------
 Cartesian Forces:  Max     0.011863838 RMS     0.004360838

 GradGradGradGradGradGradGradGradGradGradGradGradGradGradGradGradGradGrad
 Berny optimization.
 FormGI is forming the generalized inverse of G from B-inverse, IUseBI=4.
 Internal  Forces:  Max     0.014768746 RMS     0.003236011
 Search for a saddle point.
 Step number   2 out of a maximum of   76
 All quantities printed in internal units (Hartrees-Bohrs-Radians)
 Swapping is turned off.
 Update second derivatives using D2CorX and points    1    2
 ITU=  0  0
     Eigenvalues ---   -0.01508   0.00213   0.00532   0.00783   0.00954
     Eigenvalues ---    0.01254   0.01312   0.02294   0.02459   0.02811
     Eigenvalues ---    0.02984   0.03990   0.04896   0.06119   0.07104
     Eigenvalues ---    0.08007   0.09542   0.10160   0.10901   0.20074
     Eigenvalues ---    0.21497   0.24496   0.26359   0.27274   0.29337
     Eigenvalues ---    0.29548   0.30500   0.38422   0.38650   0.41731
     Eigenvalues ---    0.44405   0.45787   0.47304   0.52771   0.53811
     Eigenvalues ---    0.71527
 Eigenvectors required to have negative eigenvalues:
                          R10       R14       R5        R13       A20
   1                    0.56266  -0.50095  -0.49249   0.32648   0.14765
                          D28       A21       D24       R11       A6
   1                    0.14027  -0.08563   0.07713  -0.06369  -0.05702
 RFO step:  Lambda0=2.477148532D-04 Lambda=-4.88909249D-03.
 Linear search not attempted -- option 19 set.
 Iteration  1 RMS(Cart)=  0.04241743 RMS(Int)=  0.00441715
 Iteration  2 RMS(Cart)=  0.00309795 RMS(Int)=  0.00163269
 Iteration  3 RMS(Cart)=  0.00001713 RMS(Int)=  0.00163261
 Iteration  4 RMS(Cart)=  0.00000005 RMS(Int)=  0.00163261
 Variable       Old X    -DE/DX   Delta X   Delta X   Delta X     New X
                                 (Linear)    (Quad)   (Total)
    R1        2.63255   0.00199   0.00000  -0.00050  -0.00141   2.63114
    R2        2.59828  -0.00031   0.00000   0.00069   0.00063   2.59891
    R3        2.60329  -0.00002   0.00000  -0.00732  -0.00808   2.59522
    R4        2.59052   0.00046   0.00000  -0.00190  -0.00208   2.58844
    R5        2.20428   0.01477   0.00000   0.14087   0.14144   2.34572
    R6        2.59644   0.00044   0.00000   0.00126   0.00154   2.59799
    R7        2.03921   0.00002   0.00000   0.00046   0.00046   2.03967
    R8        2.56130  -0.00088   0.00000   0.00050   0.00088   2.56218
    R9        2.04132   0.00002   0.00000   0.00004   0.00004   2.04136
   R10        2.38210   0.01338   0.00000  -0.03873  -0.03806   2.34403
   R11        2.47802   0.00638   0.00000   0.00938   0.00913   2.48715
   R12        2.35119  -0.00007   0.00000   0.00111   0.00111   2.35231
   R13        2.14771   0.00990   0.00000   0.01451   0.01469   2.16240
   R14        2.36112   0.00251   0.00000   0.04425   0.04450   2.40562
   R15        1.82604  -0.00118   0.00000   0.00037   0.00037   1.82641
    A1        1.96920   0.00082   0.00000   0.00522   0.00521   1.97441
    A2        2.15965   0.00082   0.00000   0.00172  -0.00082   2.15882
    A3        2.15366  -0.00162   0.00000  -0.00523  -0.00375   2.14991
    A4        1.81555  -0.00175   0.00000  -0.00590  -0.00578   1.80977
    A5        1.94142   0.00222   0.00000   0.02954   0.02936   1.97079
    A6        2.28049  -0.00084   0.00000  -0.00876  -0.00907   2.27142
    A7        1.88918   0.00096   0.00000   0.00575   0.00522   1.89440
    A8        2.11054  -0.00047   0.00000  -0.00250  -0.00227   2.10827
    A9        2.28343  -0.00049   0.00000  -0.00334  -0.00309   2.28033
   A10        1.95055  -0.00002   0.00000  -0.00304  -0.00307   1.94748
   A11        2.23647   0.00009   0.00000   0.00256   0.00258   2.23904
   A12        2.09617  -0.00007   0.00000   0.00048   0.00050   2.09667
   A13        1.80028  -0.00001   0.00000  -0.00199  -0.00242   1.79786
   A14        2.82095  -0.00275   0.00000  -0.00344  -0.00193   2.81901
   A15        2.03757  -0.00075   0.00000  -0.00074  -0.00327   2.03430
   A16        2.09259   0.00004   0.00000   0.00765   0.00885   2.10144
   A17        2.15298   0.00070   0.00000  -0.00707  -0.00590   2.14708
   A18        1.96333   0.00730   0.00000   0.07225   0.07128   2.03461
   A19        1.44757  -0.00205   0.00000  -0.02183  -0.02384   1.42373
   A20        2.06745  -0.00177   0.00000  -0.14305  -0.14811   1.91934
   A21        1.99428  -0.00037   0.00000  -0.07293  -0.07851   1.91577
   A22        3.01140  -0.00392   0.00000  -0.00697  -0.00785   3.00355
   A23        3.28545  -0.00257   0.00000  -0.05058  -0.05103   3.23442
    D1       -0.00142   0.00145   0.00000   0.04135   0.04099   0.03957
    D2        2.52660   0.00061   0.00000   0.05161   0.05118   2.57778
    D3       -3.10450   0.00068   0.00000  -0.00671  -0.00742  -3.11192
    D4       -0.57648  -0.00016   0.00000   0.00355   0.00277  -0.57372
    D5        0.00461  -0.00092   0.00000  -0.03108  -0.03083  -0.02622
    D6        3.10784  -0.00010   0.00000   0.01697   0.01737   3.12521
    D7       -0.04751   0.00108   0.00000   0.07414   0.07290   0.02540
    D8        3.10384   0.00240   0.00000   0.09160   0.09125  -3.08810
    D9        3.13661   0.00017   0.00000   0.02084   0.01950  -3.12708
   D10        0.00477   0.00149   0.00000   0.03830   0.03785   0.04262
   D11       -0.00241  -0.00135   0.00000  -0.03395  -0.03369  -0.03610
   D12       -3.13492  -0.00054   0.00000  -0.02432  -0.02431   3.12395
   D13       -2.35802  -0.00175   0.00000  -0.06757  -0.06686  -2.42488
   D14        0.79265  -0.00093   0.00000  -0.05794  -0.05748   0.73517
   D15        0.79489   0.00068   0.00000  -0.03910  -0.04047   0.75443
   D16        3.10870  -0.00030   0.00000  -0.01664  -0.01820   3.09050
   D17        0.00560   0.00089   0.00000   0.01706   0.01706   0.02266
   D18       -3.13608   0.00091   0.00000   0.01856   0.01840  -3.11768
   D19        3.13690  -0.00004   0.00000   0.00616   0.00645  -3.13984
   D20       -0.00478  -0.00002   0.00000   0.00766   0.00779   0.00301
   D21       -0.00612   0.00002   0.00000   0.00823   0.00804   0.00192
   D22        3.13555  -0.00001   0.00000   0.00686   0.00682  -3.14081
   D23       -0.30640   0.00024   0.00000   0.02698   0.03051  -0.27588
   D24       -2.29292   0.00195   0.00000   0.13688   0.13115  -2.16177
   D25        0.63790  -0.00052   0.00000  -0.11436  -0.11442   0.52348
   D26       -2.51381  -0.00189   0.00000  -0.13239  -0.13320  -2.64701
   D27       -0.52659   0.00214   0.00000   0.07152   0.06845  -0.45814
   D28        1.50479  -0.00182   0.00000  -0.10650  -0.10162   1.40317
         Item               Value     Threshold  Converged?
 Maximum Force            0.014769     0.000450     NO 
 RMS     Force            0.003236     0.000300     NO 
 Maximum Displacement     0.142682     0.001800     NO 
 RMS     Displacement     0.042444     0.001200     NO 
 Predicted change in Energy=-2.672713D-03
 GradGradGradGradGradGradGradGradGradGradGradGradGradGradGradGradGradGrad

                          Input orientation:                          
 ---------------------------------------------------------------------
 Center     Atomic      Atomic             Coordinates (Angstroms)
 Number     Number       Type             X           Y           Z
 ---------------------------------------------------------------------
      1          7           0        0.306700   -0.431316   -0.045180
      2          7           0        0.489124    0.931367   -0.265248
      3          6           0        1.846429    1.094691   -0.180128
      4          6           0        2.414571   -0.119497    0.124867
      5          7           0        1.480430   -1.097696    0.218825
      6          1           0        2.296556    2.064687   -0.326690
      7          1           0        3.457883   -0.348796    0.285614
      8          1           0       -0.324467    1.403363   -1.075258
      9          6           0       -0.918765   -1.050488   -0.075095
     10          8           0       -1.955345   -0.290358   -0.357827
     11          8           0       -1.018322   -2.263382    0.186582
     12          8           0       -1.384860    1.647583   -1.670690
     13          1           0       -1.760635    0.608082   -1.039222
     14          1           0       -1.290424    1.442792   -2.610508
 ---------------------------------------------------------------------
                    Distance matrix (angstroms):
                    1          2          3          4          5
     1  N    0.000000
     2  N    1.392341   0.000000
     3  C    2.172021   1.369743   0.000000
     4  C    2.137584   2.227970   1.374794   0.000000
     5  N    1.375282   2.309569   2.258247   1.355847   0.000000
     6  H    3.204499   2.134245   1.079346   2.233493   3.311241
     7  H    3.169572   3.279603   2.212997   1.080240   2.115569
     8  H    2.196698   1.241301   2.368402   3.355851   3.344787
     9  C    1.373330   2.438455   3.501303   3.466679   2.417593
    10  O    2.287895   2.734340   4.050114   4.399813   3.576153
    11  O    2.272853   3.561315   4.429213   4.047815   2.757467
    12  O    3.134562   2.449500   3.601207   4.558758   4.395078
    13  H    2.518401   2.401035   3.739752   4.395091   3.872578
    14  H    3.555840   2.988076   3.983437   4.863128   4.704980
                    6          7          8          9         10
     6  H    0.000000
     7  H    2.747453   0.000000
     8  H    2.804901   4.384998   0.000000
     9  C    4.483962   4.447194   2.715677   0.000000
    10  O    4.860645   5.451648   2.458284   1.316143   0.000000
    11  O    5.475769   4.869483   3.939377   1.244788   2.251048
    12  O    3.941210   5.591495   1.240409   3.169031   2.409290
    13  H    4.369234   5.468431   1.642057   2.095028   1.144292
[...]
 ! D1    D(5,1,2,3)              2.9759         -DE/DX =    0.0                 !
 ! D2    D(5,1,2,8)            155.2021         -DE/DX =    0.0                 !
 ! D3    D(9,1,2,3)            179.636          -DE/DX =    0.0                 !
 ! D4    D(9,1,2,8)            -28.1378         -DE/DX =    0.0                 !
 ! D5    D(2,1,5,4)             -2.218          -DE/DX =    0.0                 !
 ! D6    D(9,1,5,4)           -178.9198         -DE/DX =    0.0                 !
 ! D7    D(2,1,9,10)             4.5825         -DE/DX =    0.0                 !
 ! D8    D(2,1,9,11)          -174.7385         -DE/DX =    0.0                 !
 ! D9    D(5,1,9,10)          -179.0862         -DE/DX =    0.0                 !
 ! D10   D(5,1,9,11)             1.5927         -DE/DX =    0.0                 !
 ! D11   D(1,2,3,4)             -2.4663         -DE/DX =    0.0                 !
 ! D12   D(1,2,3,6)            178.3554         -DE/DX =    0.0                 !
 ! D13   D(8,2,3,4)           -147.6428         -DE/DX =    0.0                 !
 ! D14   D(8,2,3,6)             33.1789         -DE/DX =    0.0                 !
 ! D15   D(1,2,8,12)            27.7716         -DE/DX =    0.0                 !
 ! D16   D(3,2,8,12)           170.0024         -DE/DX =    0.0                 !
 ! D17   D(2,3,4,5)              1.2628         -DE/DX =    0.0                 !
 ! D18   D(2,3,4,7)           -178.4784         -DE/DX =    0.0                 !
 ! D19   D(6,3,4,5)           -179.6671         -DE/DX =    0.0                 !
 ! D20   D(6,3,4,7)              0.5916         -DE/DX =    0.0                 !
 ! D21   D(3,4,5,1)              0.5586         -DE/DX =    0.0                 !
 ! D22   D(7,4,5,1)           -179.6761         -DE/DX =    0.0                 !
 ! D23   D(2,8,12,13)           -5.1371         -DE/DX =    0.0                 !
 ! D24   D(2,8,12,14)         -113.5745         -DE/DX =    0.0                 !
 ! D25   D(1,9,10,13)           21.685          -DE/DX =    0.0                 !
 ! D26   D(11,9,10,13)        -159.0116         -DE/DX =    0.0                 !
 ! D27   D(9,10,12,8)          -21.6797         -DE/DX =    0.0                 !
 ! D28   D(9,10,12,14)          85.3145         -DE/DX =    0.0                 !
 --------------------------------------------------------------------------------
 GradGradGradGradGradGradGradGradGradGradGradGradGradGradGradGradGradGrad


 ----------------------------------------------------------------------

 Electric dipole moment (input orientation):
 (Debye = 10**-18 statcoulomb cm , SI units = C m)
                  (au)            (Debye)         (10**-30 SI)
   Tot        0.387036D+01      0.983747D+01      0.328143D+02
   x          0.224709D+01      0.571153D+01      0.190516D+02
   y          0.276010D+01      0.701547D+01      0.234011D+02
   z         -0.152058D+01     -0.386492D+01     -0.128920D+02

 Dipole polarizability, Alpha (input orientation).
 (esu units = cm**3 , SI units = C**2 m**2 J**-1)
 Alpha(0;0):
               (au)            (10**-24 esu)      (10**-40 SI)
   iso        0.118733D+03      0.175945D+02      0.195765D+02
   aniso      0.773693D+02      0.114649D+02      0.127565D+02
   xx         0.144998D+03      0.214865D+02      0.239069D+02
   yx         0.144432D+02      0.214026D+01      0.238136D+01
   yy         0.134810D+03      0.199768D+02      0.222272D+02
   zx         0.918861D+01      0.136161D+01      0.151500D+01
   zy        -0.182152D+02     -0.269921D+01     -0.300328D+01
   zz         0.763927D+02      0.113202D+02      0.125955D+02

 ----------------------------------------------------------------------

 Dipole orientation:
     7          0.62202418          0.81650400         -0.19842855
     7         -0.14070181         -0.36990293          2.02057228
     6          1.82589574          0.02793102          3.64809512
     6          3.70016969          1.30352390          2.37849365
     7          3.02041938          1.81559975         -0.03815131
     1          1.74604057         -0.64895610          5.57052782
     1          5.52935967          1.88490846          3.07346423
     1         -2.47827094         -0.49503234          2.34444976
     6         -0.79301952          0.87831176         -2.37593579
     8         -3.07187481         -0.11136739         -2.27312864
     8          0.09563204          1.81847530         -4.34213890
     8         -4.75455785         -0.59881625          1.91688412
     1         -4.03325979         -0.30982881         -0.32826995
     1         -5.56623104          0.92864008          2.50613372

 Electric dipole moment (dipole orientation):
 (Debye = 10**-18 statcoulomb cm , SI units = C m)
                  (au)            (Debye)         (10**-30 SI)
   Tot        0.387036D+01      0.983747D+01      0.328143D+02
   x          0.000000D+00      0.000000D+00      0.000000D+00
   y          0.000000D+00      0.000000D+00      0.000000D+00
   z          0.387036D+01      0.983747D+01      0.328143D+02

 Dipole polarizability, Alpha (dipole orientation).
 (esu units = cm**3 , SI units = C**2 m**2 J**-1)
 Alpha(0;0):
               (au)            (10**-24 esu)      (10**-40 SI)
   iso        0.118733D+03      0.175945D+02      0.195765D+02
   aniso      0.773693D+02      0.114649D+02      0.127565D+02
   xx         0.128838D+03      0.190918D+02      0.212425D+02
   yx         0.177275D+02      0.262695D+01      0.292287D+01
   yy         0.801599D+02      0.118785D+02      0.132166D+02
   zx         0.138151D+02      0.204718D+01      0.227780D+01
   zy        -0.170283D+02     -0.252333D+01     -0.280759D+01
   zz         0.147202D+03      0.218131D+02      0.242704D+02

 ----------------------------------------------------------------------
 Unable to Open any file for archive entry.
 1\1\GINC-NODE01\Freq\UM062X\6-31+G(d,p)\C3H5N3O3(1-,2)\GAU\07-Dec-2023
 \0\\#N Geom=AllCheck Guess=TCheck SCRF=Check GenChk UM062X/6-31+G(d,p)
  Freq\\TS\\-1,2\N,0.3169747035,-0.4470437526,-0.075767969\N,0.50616613
 72,0.9089219938,-0.3237160205\C,1.8576055968,1.0801045595,-0.208006775
 6\C,2.419988277,-0.1223912879,0.1504089655\N,1.4854043917,-1.099489137
 3,0.250745298\H,2.3097375188,2.045555845,-0.3767768498\H,3.4586721051,
 -0.3431836885,0.3485133138\H,-0.3516410362,1.4408854212,-1.062011632\C
 ,-0.9099013458,-1.066960408,-0.0811359281\O,-1.948072131,-0.3372006776
 ,-0.4291716483\O,-1.0096483651,-2.2646053696,0.2458700642\O,-1.4123786
 535,1.6724613491,-1.6333083661\H,-1.7673870966,0.6146443342,-1.0539867
 337\H,-1.3166443121,1.5093343288,-2.5816132284\\Version=ES64L-G16RevC.
 01\State=2-A\HF=-507.1708653\S2=0.762552\S2-1=0.\S2A=0.750065\RMSD=2.3
 37e-09\RMSF=3.285e-05\ZeroPoint=0.0893396\Thermal=0.0971805\ETot=-507.
 0736848\HTot=-507.0727406\GTot=-507.1152024\Dipole=2.2470888,2.7600968
 ,-1.5205752\DipoleDeriv=-1.3642661,-0.7869267,-0.015711,-0.6048536,-0.
 2335904,0.0006875,-0.0009835,0.0161632,-0.1003466,-0.9792758,1.3303918
 ,-0.5402964,0.2809289,-0.8187723,0.2575942,-0.4235703,0.2816225,-0.531
 3342,0.1430632,-0.6906313,0.1689704,0.0969609,-0.1030178,0.028667,0.00
 62234,-0.0248481,-0.2585324,0.0138932,0.3346104,-0.0678213,-0.3381353,
 0.5001813,-0.2266673,0.1377251,-0.1035977,-0.1357036,-0.2932656,-0.318
 0897,0.0899537,0.4336143,-0.8241089,0.1818643,-0.1100718,0.0697502,-0.
 3626136,0.1184257,-0.0384192,-0.0091357,-0.0599267,0.0763498,0.0360745
 ,-0.0139251,0.0285294,0.2599281,-0.0009318,0.0020238,-0.0342216,0.0287
 183,0.1490755,0.0262623,-0.0411044,0.0134123,0.2219834,1.5770153,-0.92
 29521,0.9139107,-0.5471878,0.7540326,-0.3669025,0.8845497,-0.5118234,0
 .972506,3.6394398,0.5807673,0.3503605,0.9247203,3.4310285,-0.7043042,0
 .1481082,-0.7323594,0.7646943,-1.9765954,0.1876962,-0.2868496,0.881983
 4,-1.6791773,0.6547493,-0.3797655,0.583609,-1.0121317,-1.1140751,-0.25
 37493,-0.0069027,-1.1917765,-2.6759604,0.4111509,0.242704,0.5077455,-0
 .7988558,-1.5664742,0.3460202,-0.446981,0.2118494,-1.5681419,0.576618,
 -0.5084927,0.7191911,-1.287504,0.4086524,0.2128822,-0.1504204,-0.13076
 68,1.597571,-0.8250733,0.0221675,-0.798818,0.9308469,0.3943945,0.01637
 65,0.0351444,0.0138711,0.3945302,-0.0507207,0.0364353,-0.0485768,0.337
 0631\Polar=144.997827,14.4431832,134.8099683,9.1886062,-18.2151909,76.
 3926753\Quadrupole=-0.3902214,-8.9219756,9.312197,1.0951255,1.0899956,
 3.1071963\PG=C01 [X(C3H5N3O3)]\NImag=1\\0.78930031,0.12623968,0.615372
 66,0.07430486,-0.11328869,0.10071192,-0.10406469,-0.03774839,-0.012676
 36,0.61476350,0.01226366,-0.22122637,0.04311974,-0.00151083,0.41660570
 ,-0.02461000,0.03820715,-0.04051879,0.12491880,-0.10863570,0.13465471,
 -0.05959366,-0.05614678,0.00634363,-0.32028574,-0.04067974,-0.03144898
 ,0.62011702,-0.03736834,-0.04222912,0.00609931,0.00244394,-0.10226042,
 0.02169287,0.07939702,0.84564945,0.00039851,-0.00006728,0.00074775,-0.
 03500089,0.01674978,-0.05067740,0.05133741,-0.16695994,0.14926107,-0.1
 0043985,-0.01216618,-0.01214481,-0.08113436,0.01700930,-0.01744767,-0.
 13929793,0.12989261,-0.04205921,0.84433342,-0.03032312,-0.00561544,-0.
 00354243,0.03923069,0.00365967,0.01036998,0.12079047,-0.30536038,0.072
 87669,-0.09862346,0.60640389,-0.00749742,0.00085360,0.00206085,-0.0211
 1416,0.00453158,0.01470758,-0.03934544,0.07429197,-0.08667279,0.124581
 93,-0.12625217,0.16588137,-0.17981230,0.08632737,-0.04082851,-0.014183
 90,0.02523278,-0.00809786,0.01054161,-0.06344068,0.01266141,-0.1968523
 9,-0.11677108,0.00611743,0.44102910,0.02249541,-0.13643155,0.02771049,
 0.03079381,-0.04579953,0.01543995,-0.02116116,-0.08880557,0.02579087,-
 0.09019682,-0.21276302,0.02486654,0.07603846,0.45586757,-0.02787888,0.
 03727904,-0.04640861,-0.00836176,0.01333217,-0.00768820,0.00320865,0.0
 1806434,0.02077066,0.00045049,0.02160117,-0.05463478,0.03607076,-0.083
 30188,0.08756086,-0.00729683,-0.00040713,-0.00125431,-0.00671432,-0.02
 830694,0.00604000,-0.10838383,-0.11160786,0.01612786,0.01296563,0.0109
 8998,-0.00102818,-0.00108434,0.00419275,-0.00192296,0.10969751,0.00230
 190,0.00104678,0.00109252,0.00085403,0.00348447,-0.00166567,-0.1187363
 1,-0.31041960,0.05231028,-0.01357864,-0.00873204,0.00034171,0.00170191
 ,-0.00123180,0.00201177,0.12727078,0.31584871,-0.00261811,0.00032989,0
 .00373476,0.00046806,-0.00476431,-0.00247739,0.01622302,0.05307707,-0.
 03435007,0.00509010,0.00363047,0.00045222,-0.00133026,0.00227157,0.005
 73173,-0.01883781,-0.05357624,0.02905745,-0.00205841,-0.00313582,-0.00
 032200,0.00099428,-0.00024631,-0.00102029,-0.00150943,-0.00251513,0.00
 021702,-0.34047306,0.06328434,-0.05825616,-0.01458483,0.00524611,-0.00
 263964,-0.00027306,0.00039616,0.00024211,0.35792431,-0.00659310,-0.003
 84810,0.00150872,0.00187680,-0.00491271,0.00382966,0.02353154,0.005288
 60,0.00200051,0.06786202,-0.07390445,0.01962761,-0.02152104,0.01000876
 ,-0.00667492,-0.00068919,-0.00001411,-0.00071603,-0.06382794,0.0652826
 0,0.00030622,0.00225889,0.00579952,-0.00148535,0.00205105,0.00567754,-
 0.00570315,-0.00159070,0.00070749,-0.05974427,0.01897148,-0.04331113,0
 .00415934,-0.00272257,-0.00399779,0.00048010,-0.00057650,-0.00251210,0
 .06196834,-0.01867310,0.03642481,0.00863712,0.00602065,0.00871829,-0.0
 1433282,-0.01377496,0.00682174,-0.01876852,-0.00281519,-0.00062786,0.0
 0554074,-0.00316041,-0.00002874,0.00209452,-0.01000268,0.00190358,0.00
 018099,0.00047613,0.00083922,0.00044969,-0.00071762,-0.00024646,0.0234
 0996,0.01394730,-0.01430282,0.00920795,-0.02007891,-0.04298546,0.00425
 733,0.00760552,0.00884559,-0.00819090,-0.00686973,0.00009206,0.0000091
 9,-0.00117549,0.00154238,0.00044540,0.00015666,-0.00048352,-0.00014819
 ,-0.00024269,0.00105876,0.00060573,0.04033073,0.07389730,0.00649873,0.
 00526497,0.00018192,-0.00220573,0.01521973,-0.02706858,-0.00390308,-0.
 01319514,0.00421674,0.00613886,-0.00153320,0.00163795,0.00226749,-0.00
 668675,0.00190555,0.00005558,0.00034245,-0.00033500,0.00039018,-0.0013
 4401,0.00042740,-0.04307745,0.00930418,0.03710541,-0.25538567,-0.07872
 877,-0.01380461,-0.01445991,0.00279430,-0.00133222,0.01794223,0.002157
 60,0.00126319,0.00185357,0.01663299,-0.00432402,-0.03593407,-0.0153709
 2,0.00035432,0.00200039,0.00013265,0.00039003,0.00100476,0.00004762,0.
 00005468,0.02339461,-0.00668151,0.01205486,0.59901877,-0.05880556,-0.1
 4764320,0.01256279,-0.04478574,-0.00416476,-0.00344591,0.01372157,-0.0
 0830656,0.00214880,0.00775145,0.00187130,0.00039436,0.00919525,0.00963
 420,-0.00088808,-0.00060752,0.00039603,0.00016266,0.00161875,0.0017286
 9,0.00007753,0.00569182,-0.00714434,0.00516425,0.00420179,0.79886787,-
 0.01151491,0.01471637,-0.04577010,0.00844474,-0.00363434,-0.00439369,-
 0.00068159,0.00222478,-0.00205924,-0.00202743,0.00147557,-0.00027797,-
 0.00802780,-0.00368665,-0.00582753,0.00020894,0.00005442,0.00068399,-0
 .00046173,-0.00021674,0.00095588,0.00030399,0.00281902,0.00015457,0.05
 881594,-0.17514094,0.24158455,-0.07102744,0.02759341,-0.01601469,0.013
 20058,-0.00581734,0.00265607,-0.00762406,0.00062686,-0.00034596,-0.002
 63735,-0.00028561,-0.00024316,-0.00755616,-0.00374898,-0.00108937,-0.0
 0033361,-0.00014421,-0.00011814,-0.00089398,-0.00084279,-0.00000152,-0
 .00827802,0.00376884,-0.00426432,-0.23681515,0.08112805,-0.04133951,0.
 35235404,0.00096076,0.00809522,-0.00209450,-0.01316618,0.01356335,-0.0
 0586389,0.00722666,0.00028916,0.00028576,-0.00161809,0.00340303,-0.000
 97050,0.00708614,-0.00635900,0.00418775,0.00019433,0.00002672,0.000103
 56,0.00016884,0.00008302,-0.00006555,0.01922567,-0.00436571,0.01004649
 ,0.07913381,-0.14775347,0.04426120,-0.10173843,0.31479481,-0.01305633,
 0.00488512,0.00891301,0.00683100,-0.00492070,0.00136744,-0.00285576,-0
 .00024466,0.00015758,-0.00027090,-0.00029658,0.00118044,-0.00349334,0.
 00105752,0.00389651,-0.00011972,-0.00003189,-0.00006841,-0.00016712,-0
 .00026819,-0.00026163,-0.01221488,0.00280486,-0.00754124,-0.03900466,0
 .04219264,-0.07723110,0.05096671,-0.14183265,0.11317054,-0.01327278,-0
 .05405702,0.01101742,-0.00429975,0.00104407,-0.00034813,-0.00213519,-0
 .00354153,0.00042164,0.00073355,-0.00360020,0.00118057,-0.00166085,-0.
 00404346,0.00121100,-0.00067127,-0.00020318,-0.00011424,-0.00030838,-0
 .00001949,-0.00006491,-0.00477892,0.00146733,-0.00292576,-0.09343113,-
 0.03340820,0.00657772,0.00740865,0.05692291,-0.02168600,0.11158896,-0.
 03819368,-0.05872349,0.01965431,0.00758898,-0.01709020,0.00347433,-0.0
 1019187,0.00070509,0.00002849,-0.00160302,-0.00787405,0.00220968,-0.00
 215115,0.01578583,-0.00529193,-0.00105759,-0.00006228,-0.00038956,-0.0
 0069925,-0.00017668,-0.00011741,-0.00921323,0.00524009,-0.00496806,-0.
 02834647,-0.47925956,0.11163977,0.03428361,-0.07534433,0.03605976,0.04
 289422,0.61086947,0.00570564,0.01340218,0.01003793,-0.00265648,0.00587
 290,0.00356771,0.00194125,-0.00047444,0.00135224,0.00069080,0.00171480
 ,-0.00062739,0.00117509,-0.00503372,-0.00026687,0.00021985,-0.00000336
 ,0.00009997,0.00015135,0.00004697,0.00001646,0.00224694,-0.00164584,0.
 00111425,0.00564745,0.11155989,-0.10042880,-0.01289988,0.03388423,0.00
 400125,-0.00018170,-0.15940999,0.07760259,-0.00146183,-0.00683935,-0.0
 0238738,-0.06705332,0.03188379,-0.05588867,0.01089867,0.00691211,-0.00
 478285,-0.00531458,0.00215378,-0.00020708,-0.00136252,0.00532476,-0.00
 113440,-0.00010769,-0.00048108,-0.00022308,-0.00029652,0.00096312,0.00
 034620,-0.00566558,-0.01416716,0.04652181,-0.02228691,-0.00298563,0.00
 099845,0.01817978,-0.03474423,0.02298182,0.00478639,0.00257864,-0.0006
 1644,0.11792764,0.00158298,0.00191234,-0.00142600,0.02016392,0.0067212
 7,0.01429855,-0.00091502,-0.00191063,0.00245965,0.00195378,0.00016465,
 -0.00016782,0.00186171,-0.00074447,0.00016747,0.00009837,0.00009520,0.
 00006789,0.00019137,-0.00019045,-0.00018662,0.00269320,-0.02537679,-0.
 00450331,-0.02789735,0.01328602,-0.00437463,-0.00039947,-0.07992733,0.
 06282365,0.00553115,-0.01129631,0.00235965,-0.01507785,0.12803590,-0.0
 0449335,-0.00236560,-0.00096425,-0.04938134,0.01843261,-0.02293956,0.0
 0322116,0.00635849,-0.00299310,-0.00371306,0.00041914,-0.00039770,-0.0
 0198372,0.00336294,-0.00097426,-0.00013022,-0.00028571,-0.00003487,-0.
 00028467,0.00064843,0.00002108,0.02000330,-0.01258840,-0.01789765,0.01
 208659,-0.00826435,0.00344446,0.00274942,0.05746396,-0.02609201,-0.002
 65069,0.00941351,-0.00270667,-0.03008605,0.05007437,0.59514713,-0.0030
 6753,0.00317247,-0.00095351,0.00325556,-0.00252103,0.00146426,-0.00193
 010,-0.00096241,0.00054806,0.00102990,-0.00039000,0.00024537,-0.000518
 17,0.00007636,-0.00008013,0.00003047,0.00004192,-0.00001958,0.00004477
 ,-0.00015471,-0.00004320,-0.02290989,-0.01144110,-0.00338473,0.0141508
 2,0.01751950,-0.01101140,-0.05675843,-0.01682654,0.01130603,-0.0042515
 0,0.00415973,-0.00150901,-0.02083774,0.00421049,-0.00364348,0.09273412
 ,-0.00860897,0.00353339,-0.00063567,0.01279431,-0.00600289,0.00751367,
 -0.00461809,-0.00124264,0.00053219,0.00008173,-0.00138856,0.00025554,-
 0.00241910,-0.00072989,-0.00094456,-0.00022054,0.00004071,-0.00005075,
 -0.00024552,-0.00038545,-0.00003866,-0.03327498,0.00501732,-0.01541356
 ,0.05330004,-0.03168232,0.01007006,-0.03396049,-0.01975162,-0.00395057
 ,-0.00937214,0.01779972,-0.00249244,0.01869977,0.00158200,-0.02509573,
 0.00204227,0.02250760,0.00468849,-0.00185887,0.00170489,-0.00795149,0.
 00296512,-0.00558678,0.00202938,0.00051225,-0.00043818,0.00037290,0.00
 061755,0.00004238,0.00119345,0.00106717,-0.00012306,0.00015889,-0.0000
 2172,-0.00000036,0.00016528,0.00023221,0.00007338,0.01440667,-0.005888
 53,0.01448420,-0.03186168,0.01256617,-0.01046759,0.02015454,0.00174139
 ,-0.02329711,0.00754017,-0.01186832,0.00617506,-0.02177384,-0.04324625
 ,-0.01527009,0.00623131,0.03118833,0.04035862,-0.00045644,-0.00012415,
 0.00000199,-0.00568510,0.00262925,-0.00170704,0.00002892,0.00082101,-0
 .00015830,-0.00030728,0.00007163,-0.00008096,-0.00011572,0.00035634,-0
 .00009167,-0.00001004,-0.00003206,0.00000868,-0.00002014,0.00008479,-0
 .00002600,0.01102612,-0.00661980,-0.01416644,-0.00105231,-0.00023553,-
 0.00028541,0.00078114,-0.00282564,0.00078316,0.00029224,-0.00004892,0.
 00008514,-0.02740579,0.00600272,0.05830609,-0.00097228,0.00580172,0.00
 464592,0.02389668,0.00010111,0.00005970,0.00003146,0.00154356,0.000407
 89,0.00052769,0.00017618,-0.00024296,0.00003509,0.00010506,0.00004335,
 0.00000873,0.00003491,0.00002610,0.00001227,-0.00000610,0.00000472,0.0
 0000198,0.00000708,-0.00001849,0.00000642,-0.00147912,-0.00103486,0.00
 230196,-0.00137579,0.00017011,-0.00020789,-0.00046344,-0.00675384,0.00
 172168,0.00038554,-0.00057329,0.00021915,0.00577934,-0.03235142,-0.097
 57366,0.00107305,0.01070263,0.01199350,-0.00588137,0.02956037,-0.00023
 346,0.00038322,-0.00023080,0.00017095,-0.00031961,0.00137543,-0.000366
 50,0.00014379,-0.00002275,0.00008227,-0.00005244,-0.00004101,0.0001165
 3,-0.00013548,0.00005578,0.00000198,0.00000793,0.00001807,0.00001733,-
 0.00000110,-0.00002092,0.00095166,-0.00099181,-0.00838551,-0.00033986,
 0.00091019,-0.00036743,-0.00021019,-0.00114725,0.00180473,0.00002291,-
 0.00043458,0.00006229,0.04625152,-0.07834662,-0.50834251,0.00085002,-0
 .00093785,-0.00765536,-0.04731516,0.08092160,0.52174999\\-0.00000669,0
 .00000287,-0.00000773,0.00004310,-0.00005888,-0.00004191,-0.00001103,0
 .00003154,-0.00002346,0.00001219,0.00000851,-0.00002025,0.00001518,0.0
 0000091,-0.00001150,-0.00000597,0.00000891,-0.00002160,0.00001240,0.00
 001303,-0.00003744,-0.00004511,0.00004852,0.00009454,0.00001707,-0.000
 00423,0.00001457,0.00000679,0.00005948,-0.00003327,0.00001320,-0.00001
 349,0.00000697,-0.00001405,-0.00001358,-0.00002538,-0.00000206,-0.0000
 6834,0.00007971,-0.00003502,-0.00001526,0.00002675\\\@
 The archive entry for this job was punched.


 GARBAGE IN, GARBAGE OUT
 Job cpu time:       0 days  1 hours  1 minutes 13.2 seconds.
 Elapsed time:       0 days  0 hours  1 minutes 17.1 seconds.
 File lengths (MBytes):  RWF=    149 Int=      0 D2E=      0 Chk=     11 Scr=      1
 Normal termination of Gaussian 16 at Thu Dec  7 10:15:45 2023.
