 Entering Gaussian System, Link 0=/opt/soft/g16/g16
 Initial command:
 /opt/soft/g16/l1.exe "/scratch/gongke2021/RC/Gau-9995.inp" -scrdir="/scratch/gongke2021/RC/"
 Entering Link 1 = /opt/soft/g16/l1.exe PID=      9996.
  
 Copyright (c) 1988,1990,1992,1993,1995,1998,2003,2009,2016,
            Gaussian, Inc.  All Rights Reserved.
  
 This is part of the Gaussian(R) 16 program.  It is based on
 the Gaussian(R) 09 system (copyright 2009, Gaussian, Inc.),
 the Gaussian(R) 03 system (copyright 2003, Gaussian, Inc.),
 the Gaussian(R) 98 system (copyright 1998, Gaussian, Inc.),
 the Gaussian(R) 94 system (copyright 1995, Gaussian, Inc.),
 the Gaussian 92(TM) system (copyright 1992, Gaussian, Inc.),
 the Gaussian 90(TM) system (copyright 1990, Gaussian, Inc.),
 the Gaussian 88(TM) system (copyright 1988, Gaussian, Inc.),
 the Gaussian 86(TM) system (copyright 1986, Carnegie Mellon
 University), and the Gaussian 82(TM) system (copyright 1983,
 Carnegie Mellon University). Gaussian is a federally registered
 trademark of Gaussian, Inc.
  
 This software contains proprietary and confidential information,
 including trade secrets, belonging to Gaussian, Inc.
  
 This software is provided under written license and may be
 used, copied, transmitted, or stored only in accord with that
 written license.
  
 The following legend is applicable only to US Government
 contracts under FAR:
  
                    RESTRICTED RIGHTS LEGEND
  
 Use, reproduction and disclosure by the US Government is
 subject to restrictions as set forth in subparagraphs (a)
 and (c) of the Commercial Computer Software - Restricted
 Rights clause in FAR 52.227-19.
  
 Gaussian, Inc.
 340 Quinnipiac St., Bldg. 40, Wallingford CT 06492
  
  
 ---------------------------------------------------------------
 Warning -- This program may not be used in any manner that
 competes with the business of Gaussian, Inc. or will provide
 assistance to any competitor of Gaussian, Inc.  The licensee
 of this program is prohibited from giving any competitor of
 Gaussian, Inc. access to this program.  By using this program,
 the user acknowledges that Gaussian, Inc. is engaged in the
 business of creating and licensing software in the field of
 computational chemistry and represents and warrants to the
 licensee that it is not a competitor of Gaussian, Inc. and that
 it will not use this program in any manner prohibited above.
 ---------------------------------------------------------------
  

 Cite this work as:
 Gaussian 16, Revision A.03,
 M. J. Frisch, G. W. Trucks, H. B. Schlegel, G. E. Scuseria, 
 M. A. Robb, J. R. Cheeseman, G. Scalmani, V. Barone, 
 G. A. Petersson, H. Nakatsuji, X. Li, M. Caricato, A. V. Marenich, 
 J. Bloino, B. G. Janesko, R. Gomperts, B. Mennucci, H. P. Hratchian, 
 J. V. Ortiz, A. F. Izmaylov, J. L. Sonnenberg, D. Williams-Young, 
 F. Ding, F. Lipparini, F. Egidi, J. Goings, B. Peng, A. Petrone, 
 T. Henderson, D. Ranasinghe, V. G. Zakrzewski, J. Gao, N. Rega, 
 G. Zheng, W. Liang, M. Hada, M. Ehara, K. Toyota, R. Fukuda, 
 J. Hasegawa, M. Ishida, T. Nakajima, Y. Honda, O. Kitao, H. Nakai, 
 T. Vreven, K. Throssell, J. A. Montgomery, Jr., J. E. Peralta, 
 F. Ogliaro, M. J. Bearpark, J. J. Heyd, E. N. Brothers, K. N. Kudin, 
 V. N. Staroverov, T. A. Keith, R. Kobayashi, J. Normand, 
 K. Raghavachari, A. P. Rendell, J. C. Burant, S. S. Iyengar, 
 J. Tomasi, M. Cossi, J. M. Millam, M. Klene, C. Adamo, R. Cammi, 
 J. W. Ochterski, R. L. Martin, K. Morokuma, O. Farkas, 
 J. B. Foresman, and D. J. Fox, Gaussian, Inc., Wallingford CT, 2016.
 
 ******************************************
 Gaussian 16:  ES64L-G16RevA.03 25-Dec-2016
                11-Jul-2023 
 ******************************************
 %mem=10GB
 %nprocshared=24
 Will use up to   24 processors via shared memory.
 -----------------------------------------------------
 # opt freq 6-31+g(d,p) m062x scrf=(SMD,solvent=water)
 -----------------------------------------------------
 1/18=20,19=15,26=3,38=1/1,3;
 2/9=110,12=2,17=6,18=5,40=1/2;
 3/5=1,6=6,7=111,11=2,25=1,30=1,70=32201,71=1,72=1,74=-55/1,2,3;
 4//1;
 5/5=2,38=5,53=1/2;
 6/7=2,8=2,9=2,10=2,28=1/1;
 7//1,2,3,16;
 1/18=20,19=15,26=3/3(2);
 2/9=110/2;
 99//99;
 2/9=110/2;
 3/5=1,6=6,7=111,11=2,25=1,30=1,70=32205,71=1,72=1,74=-55/1,2,3;
 4/5=5,16=3,69=1/1;
 5/5=2,38=5,53=1/2;
 7//1,2,3,16;
 1/18=20,19=15,26=3/3(-5);
 2/9=110/2;
 6/7=2,8=2,9=2,10=2,19=2,28=1/1;
 99/9=1/99;
 ----
 test
 ----
 Symbolic Z-matrix:
 Charge = -1 Multiplicity = 2
 N                    -0.7585   -1.04543   0.29844 
 N                     0.03582   0.10544   0.34414 
 C                    -0.81032   1.16094   0.08555 
 C                    -2.04206   0.61337  -0.19919 
 N                    -2.02951  -0.73554  -0.15354 
 H                    -0.43513   2.17026   0.08257 
 H                    -2.95249   1.13659  -0.46027 
 H                    -0.26221  -1.79193  -0.18915 
 C                     1.47858   0.00853  -0.01646 
 O                     2.04805   1.10501  -0.06258 
 O                     1.8467   -1.16542  -0.19689 
 H                     0.94223  -3.4456   -0.84797 
 O                     0.73912  -2.7597   -0.19441 
 H                     1.56144  -2.45969   0.20596 
 
 Add virtual bond connecting atoms O13        and H8         Dist= 2.63D+00.
 Add virtual bond connecting atoms H14        and O11        Dist= 2.62D+00.

 GradGradGradGradGradGradGradGradGradGradGradGradGradGradGradGradGradGrad
 Berny optimization.
 Initialization pass.
                           ----------------------------
                           !    Initial Parameters    !
                           ! (Angstroms and Degrees)  !
 --------------------------                            --------------------------
 ! Name  Definition              Value          Derivative Info.                !
 --------------------------------------------------------------------------------
 ! R1    R(1,2)                  1.3991         estimate D2E/DX2                !
 ! R2    R(1,5)                  1.3841         estimate D2E/DX2                !
 ! R3    R(1,8)                  1.0204         estimate D2E/DX2                !
 ! R4    R(2,3)                  1.3773         estimate D2E/DX2                !
 ! R5    R(2,9)                  1.4903         estimate D2E/DX2                !
 ! R6    R(3,4)                  1.3777         estimate D2E/DX2                !
 ! R7    R(3,6)                  1.0768         estimate D2E/DX2                !
 ! R8    R(4,5)                  1.3497         estimate D2E/DX2                !
 ! R9    R(4,7)                  1.082          estimate D2E/DX2                !
 ! R10   R(8,13)                 1.3926         estimate D2E/DX2                !
 ! R11   R(9,10)                 1.2364         estimate D2E/DX2                !
 ! R12   R(9,11)                 1.2435         estimate D2E/DX2                !
 ! R13   R(11,14)                1.3852         estimate D2E/DX2                !
 ! R14   R(12,13)                0.9689         estimate D2E/DX2                !
 ! R15   R(13,14)                0.9626         estimate D2E/DX2                !
 ! A1    A(2,1,5)              110.3547         estimate D2E/DX2                !
 ! A2    A(2,1,8)              109.952          estimate D2E/DX2                !
 ! A3    A(5,1,8)              117.024          estimate D2E/DX2                !
 ! A4    A(1,2,3)              105.9898         estimate D2E/DX2                !
 ! A5    A(1,2,9)              119.2244         estimate D2E/DX2                !
 ! A6    A(3,2,9)              126.81           estimate D2E/DX2                !
 ! A7    A(2,3,4)              106.4675         estimate D2E/DX2                !
 ! A8    A(2,3,6)              120.318          estimate D2E/DX2                !
 ! A9    A(4,3,6)              133.1164         estimate D2E/DX2                !
 ! A10   A(3,4,5)              112.4515         estimate D2E/DX2                !
 ! A11   A(3,4,7)              127.5845         estimate D2E/DX2                !
 ! A12   A(5,4,7)              119.9499         estimate D2E/DX2                !
 ! A13   A(1,5,4)              104.084          estimate D2E/DX2                !
 ! A14   A(1,8,13)             149.305          estimate D2E/DX2                !
 ! A15   A(2,9,10)             113.4067         estimate D2E/DX2                !
 ! A16   A(2,9,11)             112.5257         estimate D2E/DX2                !
 ! A17   A(10,9,11)            134.0657         estimate D2E/DX2                !
 ! A18   A(9,11,14)            141.1644         estimate D2E/DX2                !
 ! A19   A(8,13,12)            130.1825         estimate D2E/DX2                !
 ! A20   A(8,13,14)            113.3357         estimate D2E/DX2                !
 ! A21   A(12,13,14)           108.7901         estimate D2E/DX2                !
 ! A22   A(11,14,13)           110.2536         estimate D2E/DX2                !
 ! D1    D(5,1,2,3)              7.8384         estimate D2E/DX2                !
 ! D2    D(5,1,2,9)           -143.1465         estimate D2E/DX2                !
 ! D3    D(8,1,2,3)            138.399          estimate D2E/DX2                !
 ! D4    D(8,1,2,9)            -12.5859         estimate D2E/DX2                !
 ! D5    D(2,1,5,4)             -8.0928         estimate D2E/DX2                !
 ! D6    D(8,1,5,4)           -134.8051         estimate D2E/DX2                !
 ! D7    D(2,1,8,13)            74.2948         estimate D2E/DX2                !
 ! D8    D(5,1,8,13)          -158.7954         estimate D2E/DX2                !
 ! D9    D(1,2,3,4)             -4.2488         estimate D2E/DX2                !
 ! D10   D(1,2,3,6)            178.8969         estimate D2E/DX2                !
 ! D11   D(9,2,3,4)            143.8328         estimate D2E/DX2                !
 ! D12   D(9,2,3,6)            -33.0216         estimate D2E/DX2                !
 ! D13   D(1,2,9,10)           173.5297         estimate D2E/DX2                !
 ! D14   D(1,2,9,11)            -6.9059         estimate D2E/DX2                !
 ! D15   D(3,2,9,10)            29.1482         estimate D2E/DX2                !
 ! D16   D(3,2,9,11)          -151.2874         estimate D2E/DX2                !
 ! D17   D(2,3,4,5)             -0.7497         estimate D2E/DX2                !
 ! D18   D(2,3,4,7)           -179.3659         estimate D2E/DX2                !
 ! D19   D(6,3,4,5)            175.5296         estimate D2E/DX2                !
 ! D20   D(6,3,4,7)             -3.0866         estimate D2E/DX2                !
 ! D21   D(3,4,5,1)              5.4167         estimate D2E/DX2                !
 ! D22   D(7,4,5,1)           -175.8489         estimate D2E/DX2                !
 ! D23   D(1,8,13,12)          173.2178         estimate D2E/DX2                !
 ! D24   D(1,8,13,14)          -41.3451         estimate D2E/DX2                !
 ! D25   D(2,9,11,14)          -28.8427         estimate D2E/DX2                !
 ! D26   D(10,9,11,14)         150.601          estimate D2E/DX2                !
 ! D27   D(9,11,14,13)          73.4118         estimate D2E/DX2                !
 ! D28   D(8,13,14,11)         -42.2857         estimate D2E/DX2                !
 ! D29   D(12,13,14,11)        110.4677         estimate D2E/DX2                !
 --------------------------------------------------------------------------------
 Trust Radius=3.00D-01 FncErr=1.00D-07 GrdErr=1.00D-06 EigMax=2.50D+02 EigMin=1.00D-04
 Number of steps in this run=     76 maximum allowed number of steps=    100.
 GradGradGradGradGradGradGradGradGradGradGradGradGradGradGradGradGradGrad

                          Input orientation:                          
 ---------------------------------------------------------------------
 Center     Atomic      Atomic             Coordinates (Angstroms)
 Number     Number       Type             X           Y           Z
 ---------------------------------------------------------------------
      1          7           0       -0.758500   -1.045433    0.298439
      2          7           0        0.035823    0.105438    0.344135
      3          6           0       -0.810319    1.160941    0.085546
      4          6           0       -2.042061    0.613365   -0.199190
      5          7           0       -2.029507   -0.735535   -0.153535
      6          1           0       -0.435132    2.170262    0.082572
      7          1           0       -2.952494    1.136589   -0.460271
      8          1           0       -0.262206   -1.791934   -0.189153
      9          6           0        1.478576    0.008533   -0.016462
     10          8           0        2.048046    1.105012   -0.062580
     11          8           0        1.846696   -1.165417   -0.196892
     12          1           0        0.942234   -3.445596   -0.847969
     13          8           0        0.739116   -2.759699   -0.194412
     14          1           0        1.561438   -2.459692    0.205962
 ---------------------------------------------------------------------
                    Distance matrix (angstroms):
                    1          2          3          4          5
     1  N    0.000000
     2  N    1.399122   0.000000
     3  C    2.217227   1.377284   0.000000
     4  C    2.155638   2.206987   1.377716   0.000000
     5  N    1.384116   2.284841   2.267201   1.349731   0.000000
     6  H    3.239114   2.133943   1.076802   2.255114   3.322865
     7  H    3.185980   3.261960   2.210752   1.082042   2.109701
     8  H    1.020450   1.993298   3.015851   2.992231   2.059272
     9  C    2.492893   1.490288   2.564662   3.576884   3.588742
    10  O    3.554075   2.283332   2.862747   4.121814   4.474631
    11  O    2.654580   2.277508   3.542801   4.276272   3.900209
    12  H    3.157140   3.853899   5.016281   5.079576   4.081411
    13  O    2.329048   2.998944   4.224990   4.371788   3.429895
    14  H    2.718601   2.987722   4.329978   4.753213   3.999605
                    6          7          8          9         10
     6  H    0.000000
     7  H    2.774936   0.000000
     8  H    3.975265   3.985900   0.000000
     9  C    2.888799   4.593894   2.510344   0.000000
    10  O    2.705919   5.016429   3.707503   1.236402   0.000000
    11  O    4.051123   5.329242   2.200012   1.243473   2.283294
    12  H    5.856697   6.026246   2.149259   3.593059   4.748440
    13  O    5.075440   5.373986   1.392567   2.870815   4.082483
    14  H    5.043609   5.809706   1.981841   2.479612   3.607772
                   11         12         13         14
    11  O    0.000000
    12  H    2.537945   0.000000
    13  O    1.941256   0.968942   0.000000
    14  H    1.385212   1.570411   0.962558   0.000000
 Stoichiometry    C3H5N3O3(1-,2)
 Framework group  C1[X(C3H5N3O3)]
 Deg. of freedom    36
 Full point group                 C1      NOp   1
 Largest Abelian subgroup         C1      NOp   1
 Largest concise Abelian subgroup C1      NOp   1
                         Standard orientation:                         
 ---------------------------------------------------------------------
 Center     Atomic      Atomic             Coordinates (Angstroms)
 Number     Number       Type             X           Y           Z
 ---------------------------------------------------------------------
      1          7           0       -0.529603   -0.938002    0.359626
      2          7           0       -0.311433    0.443972    0.350122
      3          6           0       -1.524016    1.017353    0.037411
      4          6           0       -2.391437   -0.020893   -0.222834
      5          7           0       -1.798733   -1.228291   -0.110286
      6          1           0       -1.621488    2.088467   -0.014711
      7          1           0       -3.432087    0.045206   -0.511785
      8          1           0        0.251767   -1.416973   -0.089112
      9          6           0        1.039811    0.964868   -0.001680
     10          8           0        1.080901    2.196610   -0.100738
     11          8           0        1.882919    0.058921   -0.122743
     12          1           0        2.067412   -2.414175   -0.662119
     13          8           0        1.572627   -1.855753   -0.043895
     14          1           0        2.175057   -1.212470    0.343122
 ---------------------------------------------------------------------
 Rotational constants (GHZ):           2.4064357           1.6535666           1.0016964
 Standard basis: 6-31+G(d,p) (6D, 7F)
 There are   196 symmetry adapted cartesian basis functions of A   symmetry.
 There are   196 symmetry adapted basis functions of A   symmetry.
   196 basis functions,   323 primitive gaussians,   196 cartesian basis functions
    35 alpha electrons       34 beta electrons
       nuclear repulsion energy       469.1859637444 Hartrees.
 NAtoms=   14 NActive=   14 NUniq=   14 SFac= 1.00D+00 NAtFMM=   60 NAOKFM=F Big=F
 Integral buffers will be    131072 words long.
 Raffenetti 2 integral format.
 Two-electron integral symmetry is turned on.
 ------------------------------------------------------------------------------
 Polarizable Continuum Model (PCM)
 =================================
 Model                : PCM.
 Atomic radii         : SMD-Coulomb.
 Polarization charges : Total charges.
 Charge compensation  : None.
 Solution method      : On-the-fly selection.
 Cavity type          : VdW (van der Waals Surface) (Alpha=1.000).
 Cavity algorithm     : GePol (No added spheres)
                        Default sphere list used, NSphG=   14.
                        Lebedev-Laikov grids with approx.  5.0 points / Ang**2.
                        Smoothing algorithm: York/Karplus (Gamma=1.0000).
                        Polarization charges: spherical gaussians, with
                                              point-specific exponents (IZeta= 3).
                        Self-potential: point-specific (ISelfS= 7).
                        Self-field    : sphere-specific E.n sum rule (ISelfD= 2).
 1st derivatives      : Analytical E(r).r(x)/FMM algorithm (CHGder, D1EAlg=3).
                        Cavity 1st derivative terms included.
 Solvent              : Water, Eps=  78.355300 Eps(inf)=   1.777849
 ------------------------------------------------------------------------------
 Spheres list:
 ISph  on   Nord     Re0    Alpha      Xe            Ye            Ze
    1   N      1    1.8900  1.000     -0.529603     -0.938002      0.359626
    2   N      2    1.8900  1.000     -0.311433      0.443972      0.350122
    3   C      3    1.8500  1.000     -1.524016      1.017353      0.037411
    4   C      4    1.8500  1.000     -2.391437     -0.020893     -0.222834
    5   N      5    1.8900  1.000     -1.798733     -1.228291     -0.110286
    6   H      6    1.2000  1.000     -1.621488      2.088467     -0.014711
    7   H      7    1.2000  1.000     -3.432087      0.045206     -0.511785
    8   H      8    1.2000  1.000      0.251767     -1.416973     -0.089112
    9   C      9    1.8500  1.000      1.039811      0.964868     -0.001680
   10   O     10    1.5200  1.000      1.080901      2.196610     -0.100738
   11   O     11    1.5200  1.000      1.882919      0.058921     -0.122743
   12   H     12    1.2000  1.000      2.067412     -2.414175     -0.662119
   13   O     13    1.5200  1.000      1.572627     -1.855753     -0.043895
   14   H     14    1.2000  1.000      2.175057     -1.212470      0.343122
 ------------------------------------------------------------------------------
 ------------------------------------------------------------------------------
 Atomic radii for non-electrostatic terms: SMD-CDS.
 ------------------------------------------------------------------------------
 Nuclear repulsion after PCM non-electrostatic terms =      469.1931772169 Hartrees.
 One-electron integrals computed using PRISM.
 NBasis=   196 RedAO= T EigKep=  4.31D-05  NBF=   196
 NBsUse=   196 1.00D-06 EigRej= -1.00D+00 NBFU=   196
 ExpMin= 4.38D-02 ExpMax= 5.48D+03 ExpMxC= 8.25D+02 IAcc=3 IRadAn=         5 AccDes= 0.00D+00
 Harris functional with IExCor= 1009 and IRadAn=       5 diagonalized for initial guess.
 HarFok:  IExCor= 1009 AccDes= 0.00D+00 IRadAn=         5 IDoV= 1 UseB2=F ITyADJ=14
 ICtDFT=  3500011 ScaDFX=  1.000000  1.000000  1.000000  1.000000
 FoFCou: FMM=F IPFlag=           0 FMFlag=      100000 FMFlg1=           0
         NFxFlg=           0 DoJE=T BraDBF=F KetDBF=T FulRan=T
         wScrn=  0.000000 ICntrl=       500 IOpCl=  0 I1Cent=   200000004 NGrid=           0
         NMat0=    1 NMatS0=      1 NMatT0=    0 NMatD0=    1 NMtDS0=    0 NMtDT0=    0
 Petite list used in FoFCou.
 Initial guess <Sx>= 0.0000 <Sy>= 0.0000 <Sz>= 0.5000 <S**2>= 0.7500 S= 0.5000
 Requested convergence on RMS density matrix=1.00D-08 within 128 cycles.
 Requested convergence on MAX density matrix=1.00D-06.
 Requested convergence on             energy=1.00D-06.
 No special actions if energy rises.
 Inv3:  Mode=1 IEnd=     3851067.
 Iteration    1 A*A^-1 deviation from unit magnitude is 3.55D-15 for    765.
 Iteration    1 A*A^-1 deviation from orthogonality  is 2.11D-15 for   1026    947.
 Iteration    1 A^-1*A deviation from unit magnitude is 3.55D-15 for    765.
 Iteration    1 A^-1*A deviation from orthogonality  is 3.31D-15 for    250    121.
 Error on total polarization charges =  0.05615
 SCF Done:  E(UM062X) =  -507.090650222     A.U. after   18 cycles
            NFock= 18  Conv=0.72D-08     -V/T= 2.0067
 <Sx>= 0.0000 <Sy>= 0.0000 <Sz>= 0.5000 <S**2>= 0.7646 S= 0.5073
 <L.S>=  0.00000000000    
 SMD-CDS (non-electrostatic) energy       (kcal/mol) =       4.53
 (included in total energy above)
 Annihilation of the first spin contaminant:
 S**2 before annihilation     0.7646,   after     0.7501

 **********************************************************************

            Population analysis using the SCF density.

 **********************************************************************

 Orbital symmetries:
 Alpha Orbitals:
       Occupied  (A) (A) (A) (A) (A) (A) (A) (A) (A) (A) (A) (A)
                 (A) (A) (A) (A) (A) (A) (A) (A) (A) (A) (A) (A)
                 (A) (A) (A) (A) (A) (A) (A) (A) (A) (A) (A)
       Virtual   (A) (A) (A) (A) (A) (A) (A) (A) (A) (A) (A) (A)
                 (A) (A) (A) (A) (A) (A) (A) (A) (A) (A) (A) (A)
                 (A) (A) (A) (A) (A) (A) (A) (A) (A) (A) (A) (A)
                 (A) (A) (A) (A) (A) (A) (A) (A) (A) (A) (A) (A)
                 (A) (A) (A) (A) (A) (A) (A) (A) (A) (A) (A) (A)
                 (A) (A) (A) (A) (A) (A) (A) (A) (A) (A) (A) (A)
                 (A) (A) (A) (A) (A) (A) (A) (A) (A) (A) (A) (A)
                 (A) (A) (A) (A) (A) (A) (A) (A) (A) (A) (A) (A)
                 (A) (A) (A) (A) (A) (A) (A) (A) (A) (A) (A) (A)
                 (A) (A) (A) (A) (A) (A) (A) (A) (A) (A) (A) (A)
                 (A) (A) (A) (A) (A) (A) (A) (A) (A) (A) (A) (A)
                 (A) (A) (A) (A) (A) (A) (A) (A) (A) (A) (A) (A)
                 (A) (A) (A) (A) (A) (A) (A) (A) (A) (A) (A) (A)
                 (A) (A) (A) (A) (A)
 Beta  Orbitals:
       Occupied  (A) (A) (A) (A) (A) (A) (A) (A) (A) (A) (A) (A)
                 (A) (A) (A) (A) (A) (A) (A) (A) (A) (A) (A) (A)
                 (A) (A) (A) (A) (A) (A) (A) (A) (A) (A)
       Virtual   (A) (A) (A) (A) (A) (A) (A) (A) (A) (A) (A) (A)
                 (A) (A) (A) (A) (A) (A) (A) (A) (A) (A) (A) (A)
                 (A) (A) (A) (A) (A) (A) (A) (A) (A) (A) (A) (A)
                 (A) (A) (A) (A) (A) (A) (A) (A) (A) (A) (A) (A)
                 (A) (A) (A) (A) (A) (A) (A) (A) (A) (A) (A) (A)
                 (A) (A) (A) (A) (A) (A) (A) (A) (A) (A) (A) (A)
                 (A) (A) (A) (A) (A) (A) (A) (A) (A) (A) (A) (A)
                 (A) (A) (A) (A) (A) (A) (A) (A) (A) (A) (A) (A)
                 (A) (A) (A) (A) (A) (A) (A) (A) (A) (A) (A) (A)
                 (A) (A) (A) (A) (A) (A) (A) (A) (A) (A) (A) (A)
                 (A) (A) (A) (A) (A) (A) (A) (A) (A) (A) (A) (A)
                 (A) (A) (A) (A) (A) (A) (A) (A) (A) (A) (A) (A)
                 (A) (A) (A) (A) (A) (A) (A) (A) (A) (A) (A) (A)
                 (A) (A) (A) (A) (A) (A)
 The electronic state is 2-A.
 Alpha  occ. eigenvalues --  -19.61476 -19.61129 -19.60431 -14.81532 -14.79865
 Alpha  occ. eigenvalues --  -14.76878 -10.69226 -10.56709 -10.56511  -1.21371
 Alpha  occ. eigenvalues --   -1.16030  -1.14158  -1.08945  -0.98357  -0.90289
 Alpha  occ. eigenvalues --   -0.74668  -0.69308  -0.66975  -0.66015  -0.57008
 Alpha  occ. eigenvalues --   -0.55571  -0.54445  -0.52520  -0.50492  -0.49159
 Alpha  occ. eigenvalues --   -0.48101  -0.41023  -0.40799  -0.38603  -0.36539
 Alpha  occ. eigenvalues --   -0.35863  -0.35151  -0.33853  -0.31120  -0.17106
 Alpha virt. eigenvalues --    0.02791   0.04261   0.05166   0.05534   0.06340
 Alpha virt. eigenvalues --    0.06609   0.07430   0.08751   0.09503   0.10407
 Alpha virt. eigenvalues --    0.12156   0.12954   0.13687   0.14660   0.15647
 Alpha virt. eigenvalues --    0.16922   0.17679   0.20017   0.20701   0.21767
 Alpha virt. eigenvalues --    0.22501   0.23479   0.23821   0.24869   0.25569
 Alpha virt. eigenvalues --    0.25859   0.26297   0.26926   0.27133   0.28737
 Alpha virt. eigenvalues --    0.29578   0.29699   0.30489   0.30879   0.31641
 Alpha virt. eigenvalues --    0.32468   0.33953   0.34671   0.36009   0.37622
 Alpha virt. eigenvalues --    0.38135   0.39147   0.41046   0.41818   0.42849
 Alpha virt. eigenvalues --    0.46896   0.47600   0.49598   0.51011   0.54242
 Alpha virt. eigenvalues --    0.65886   0.73242   0.76440   0.79720   0.81033
 Alpha virt. eigenvalues --    0.82995   0.88381   0.89540   0.91067   0.92477
 Alpha virt. eigenvalues --    0.94739   0.96067   0.98464   0.98844   1.02182
 Alpha virt. eigenvalues --    1.04490   1.05169   1.07260   1.07923   1.13598
 Alpha virt. eigenvalues --    1.14360   1.16051   1.17661   1.19460   1.20156
 Alpha virt. eigenvalues --    1.23423   1.24641   1.28578   1.29648   1.31621
 Alpha virt. eigenvalues --    1.34852   1.36089   1.38165   1.39343   1.41005
 Alpha virt. eigenvalues --    1.42068   1.45251   1.45852   1.48189   1.50140
 Alpha virt. eigenvalues --    1.52427   1.53909   1.57766   1.61466   1.62099
 Alpha virt. eigenvalues --    1.68931   1.70385   1.76600   1.78748   1.81594
 Alpha virt. eigenvalues --    1.83282   1.84862   1.87477   1.90285   1.94223
 Alpha virt. eigenvalues --    1.97427   2.00211   2.03136   2.05407   2.08214
 Alpha virt. eigenvalues --    2.10401   2.11118   2.15518   2.18508   2.24928
 Alpha virt. eigenvalues --    2.25859   2.28875   2.29429   2.32809   2.36340
 Alpha virt. eigenvalues --    2.39104   2.44254   2.46827   2.52093   2.53348
 Alpha virt. eigenvalues --    2.55651   2.56838   2.60570   2.65173   2.66193
 Alpha virt. eigenvalues --    2.70286   2.71387   2.73973   2.77322   2.80929
 Alpha virt. eigenvalues --    2.84931   2.86926   2.91177   2.92510   3.04149
 Alpha virt. eigenvalues --    3.06850   3.10409   3.15385   3.17396   3.22579
 Alpha virt. eigenvalues --    3.30365   3.32707   3.42223   3.55163   3.73304
 Alpha virt. eigenvalues --    3.78488   3.84131   4.08621   4.21928   4.32058
 Alpha virt. eigenvalues --    4.41346   4.47917   4.49876   4.58094   4.68778
 Alpha virt. eigenvalues --    4.76070
  Beta  occ. eigenvalues --  -19.61433 -19.61103 -19.60380 -14.81164 -14.79413
  Beta  occ. eigenvalues --  -14.76343 -10.69190 -10.56638 -10.56489  -1.20943
  Beta  occ. eigenvalues --   -1.15029  -1.14035  -1.08810  -0.96866  -0.89309
  Beta  occ. eigenvalues --   -0.73341  -0.68818  -0.66504  -0.65566  -0.55939
  Beta  occ. eigenvalues --   -0.54902  -0.53542  -0.52376  -0.50028  -0.48270
  Beta  occ. eigenvalues --   -0.46990  -0.40707  -0.40166  -0.37507  -0.35357
  Beta  occ. eigenvalues --   -0.34522  -0.32475  -0.30739  -0.30439
  Beta virt. eigenvalues --   -0.00172   0.02618   0.04209   0.05010   0.05222
  Beta virt. eigenvalues --    0.06552   0.07246   0.07432   0.08598   0.08995
  Beta virt. eigenvalues --    0.11133   0.11853   0.12789   0.13506   0.14314
  Beta virt. eigenvalues --    0.15846   0.16551   0.17363   0.20088   0.20700
  Beta virt. eigenvalues --    0.21777   0.22603   0.23478   0.23976   0.24992
  Beta virt. eigenvalues --    0.25566   0.25925   0.26183   0.26800   0.27157
  Beta virt. eigenvalues --    0.28722   0.29602   0.29749   0.30603   0.30990
  Beta virt. eigenvalues --    0.31723   0.32463   0.33783   0.34650   0.35817
  Beta virt. eigenvalues --    0.37470   0.38177   0.39089   0.41352   0.41854
  Beta virt. eigenvalues --    0.42843   0.47093   0.47780   0.50112   0.51192
  Beta virt. eigenvalues --    0.54570   0.66218   0.73570   0.75691   0.80962
  Beta virt. eigenvalues --    0.81380   0.83224   0.88623   0.90057   0.91286
  Beta virt. eigenvalues --    0.92577   0.95060   0.96499   0.98587   1.00562
  Beta virt. eigenvalues --    1.04059   1.04737   1.05493   1.07891   1.08921
  Beta virt. eigenvalues --    1.13733   1.14742   1.16273   1.17666   1.19694
  Beta virt. eigenvalues --    1.20244   1.23857   1.24898   1.28788   1.30093
  Beta virt. eigenvalues --    1.31886   1.35098   1.36248   1.38427   1.39493
  Beta virt. eigenvalues --    1.41103   1.42115   1.45674   1.46551   1.48767
  Beta virt. eigenvalues --    1.50593   1.52921   1.54124   1.58369   1.61816
  Beta virt. eigenvalues --    1.62740   1.69208   1.70463   1.76702   1.78863
  Beta virt. eigenvalues --    1.81841   1.83486   1.85178   1.87723   1.90762
  Beta virt. eigenvalues --    1.94514   1.97700   2.00491   2.03460   2.05643
  Beta virt. eigenvalues --    2.08396   2.10754   2.11784   2.16122   2.18895
  Beta virt. eigenvalues --    2.25638   2.26651   2.29203   2.30032   2.33118
  Beta virt. eigenvalues --    2.36515   2.39524   2.44625   2.47052   2.52454
  Beta virt. eigenvalues --    2.53847   2.56142   2.57259   2.60855   2.65498
  Beta virt. eigenvalues --    2.66587   2.70555   2.71714   2.74508   2.77738
  Beta virt. eigenvalues --    2.81248   2.85493   2.87213   2.91768   2.92908
  Beta virt. eigenvalues --    3.04482   3.07237   3.10537   3.15574   3.17672
  Beta virt. eigenvalues --    3.22868   3.30581   3.33074   3.42302   3.55195
  Beta virt. eigenvalues --    3.73728   3.78638   3.84395   4.09099   4.22105
  Beta virt. eigenvalues --    4.32119   4.41646   4.47883   4.49913   4.58584
  Beta virt. eigenvalues --    4.69594   4.76162
          Condensed to atoms (all electrons):
               1          2          3          4          5          6
     1  N    8.232613  -0.623428  -0.328578   0.314888  -0.573328   0.017180
     2  N   -0.623428   7.825000   0.079341  -0.061247   0.234469  -0.044115
     3  C   -0.328578   0.079341   6.411798  -0.280610   0.175636   0.396858
     4  C    0.314888  -0.061247  -0.280610   5.765468   0.013609  -0.017084
     5  N   -0.573328   0.234469   0.175636   0.013609   7.597289  -0.004998
     6  H    0.017180  -0.044115   0.396858  -0.017084  -0.004998   0.440594
     7  H    0.029238  -0.012685  -0.026302   0.399262  -0.062361   0.000380
     8  H    0.355166  -0.055181   0.003821   0.005870  -0.050862  -0.000123
     9  C   -0.076027   0.279240  -0.284650   0.046303  -0.002372  -0.007689
    10  O    0.017674  -0.176642  -0.002869   0.001158   0.003155  -0.000437
    11  O    0.109814  -0.296637   0.057602  -0.009515  -0.001915  -0.000236
    12  H    0.007406  -0.001853   0.000957  -0.001206   0.003182  -0.000000
    13  O   -0.162606   0.069501  -0.009235   0.002290  -0.004384   0.000089
    14  H    0.001178   0.009402  -0.000395  -0.000013   0.001292  -0.000001
               7          8          9         10         11         12
     1  N    0.029238   0.355166  -0.076027   0.017674   0.109814   0.007406
     2  N   -0.012685  -0.055181   0.279240  -0.176642  -0.296637  -0.001853
     3  C   -0.026302   0.003821  -0.284650  -0.002869   0.057602   0.000957
     4  C    0.399262   0.005870   0.046303   0.001158  -0.009515  -0.001206
     5  N   -0.062361  -0.050862  -0.002372   0.003155  -0.001915   0.003182
     6  H    0.000380  -0.000123  -0.007689  -0.000437  -0.000236  -0.000000
     7  H    0.472140  -0.000143  -0.000681  -0.000099   0.000065  -0.000000
     8  H   -0.000143   0.308352   0.002252   0.001417   0.002777   0.000726
     9  C   -0.000681   0.002252   4.511713   0.410971   0.288843  -0.000414
    10  O   -0.000099   0.001417   0.410971   8.591445  -0.112485   0.000189
    11  O    0.000065   0.002777   0.288843  -0.112485   9.157858   0.021889
    12  H   -0.000000   0.000726  -0.000414   0.000189   0.021889   0.298278
    13  O    0.000049  -0.045235   0.032398  -0.005830  -0.467481   0.256914
    14  H   -0.000000   0.001101   0.000389   0.000335   0.000772  -0.011775
              13         14
     1  N   -0.162606   0.001178
     2  N    0.069501   0.009402
     3  C   -0.009235  -0.000395
     4  C    0.002290  -0.000013
     5  N   -0.004384   0.001292
     6  H    0.000089  -0.000001
     7  H    0.000049  -0.000000
     8  H   -0.045235   0.001101
     9  C    0.032398   0.000389
    10  O   -0.005830   0.000335
    11  O   -0.467481   0.000772
    12  H    0.256914  -0.011775
    13  O    8.887401   0.284476
    14  H    0.284476   0.264452
          Atomic-Atomic Spin Densities.
               1          2          3          4          5          6
     1  N    0.342602  -0.103564   0.275095  -0.065944  -0.183554  -0.002976
     2  N   -0.103564   0.443108  -0.372082   0.072313   0.041143   0.003857
     3  C    0.275095  -0.372082   0.565612   0.024274  -0.112447  -0.007083
     4  C   -0.065944   0.072313   0.024274  -0.151768  -0.037441   0.003360
     5  N   -0.183554   0.041143  -0.112447  -0.037441   0.675753   0.000954
     6  H   -0.002976   0.003857  -0.007083   0.003360   0.000954  -0.012682
     7  H    0.001043   0.000476  -0.001511   0.003741  -0.002630   0.000007
     8  H    0.036475  -0.035556   0.019140  -0.007136  -0.006905   0.000002
     9  C   -0.119111   0.150880  -0.119314   0.023093   0.014488   0.001782
    10  O    0.007340  -0.019484   0.027473  -0.003117  -0.000709   0.000005
    11  O    0.025855  -0.033391   0.028139  -0.006984  -0.004723   0.000050
    12  H    0.000495  -0.000333   0.000233  -0.000114  -0.000144   0.000000
    13  O   -0.006079   0.012326  -0.027215   0.010054   0.003984   0.000001
    14  H   -0.001433   0.000850   0.000882  -0.000275   0.000070   0.000000
               7          8          9         10         11         12
     1  N    0.001043   0.036475  -0.119111   0.007340   0.025855   0.000495
     2  N    0.000476  -0.035556   0.150880  -0.019484  -0.033391  -0.000333
     3  C   -0.001511   0.019140  -0.119314   0.027473   0.028139   0.000233
     4  C    0.003741  -0.007136   0.023093  -0.003117  -0.006984  -0.000114
     5  N   -0.002630  -0.006905   0.014488  -0.000709  -0.004723  -0.000144
     6  H    0.000007   0.000002   0.001782   0.000005   0.000050   0.000000
     7  H    0.002734   0.000001   0.000005   0.000002  -0.000001   0.000000
     8  H    0.000001   0.027552  -0.013051   0.000327   0.007451  -0.000045
     9  C    0.000005  -0.013051   0.136613  -0.031564  -0.038035  -0.000258
    10  O    0.000002   0.000327  -0.031564   0.035392   0.007073  -0.000002
    11  O   -0.000001   0.007451  -0.038035   0.007073   0.045343  -0.000153
    12  H    0.000000  -0.000045  -0.000258  -0.000002  -0.000153  -0.000954
    13  O    0.000003  -0.019536   0.022785  -0.000758  -0.009247   0.000629
    14  H   -0.000000   0.000610  -0.001003   0.000010  -0.000229  -0.000068
              13         14
     1  N   -0.006079  -0.001433
     2  N    0.012326   0.000850
     3  C   -0.027215   0.000882
     4  C    0.010054  -0.000275
     5  N    0.003984   0.000070
     6  H    0.000001   0.000000
     7  H    0.000003  -0.000000
     8  H   -0.019536   0.000610
     9  C    0.022785  -0.001003
    10  O   -0.000758   0.000010
    11  O   -0.009247  -0.000229
    12  H    0.000629  -0.000068
    13  O    0.023205   0.000532
    14  H    0.000532  -0.000718
 Mulliken charges and spin densities:
               1          2
     1  N   -0.321189   0.206244
     2  N   -0.225166   0.160541
     3  C   -0.193373   0.301197
     4  C   -0.179175  -0.135944
     5  N   -0.328412   0.387841
     6  H    0.219583  -0.012724
     7  H    0.201137   0.003870
     8  H    0.470061   0.009332
     9  C    0.799724   0.027311
    10  O   -0.727983   0.021987
    11  O   -0.751351   0.021148
    12  H    0.425705  -0.000715
    13  O   -0.838348   0.010684
    14  H    0.448788  -0.000773
 Sum of Mulliken charges =  -1.00000   1.00000
 Mulliken charges and spin densities with hydrogens summed into heavy atoms:
               1          2
     1  N    0.148872   0.215575
     2  N   -0.225166   0.160541
     3  C    0.026210   0.288473
     4  C    0.021962  -0.132074
     5  N   -0.328412   0.387841
     9  C    0.799724   0.027311
    10  O   -0.727983   0.021987
    11  O   -0.751351   0.021148
    13  O    0.036145   0.009197
 Electronic spatial extent (au):  <R**2>=           1119.0849
 Charge=             -1.0000 electrons
 Dipole moment (field-independent basis, Debye):
    X=             -1.4396    Y=             -2.4133    Z=             -1.2141  Tot=              3.0612
 Quadrupole moment (field-independent basis, Debye-Ang):
   XX=            -60.9609   YY=            -71.9487   ZZ=            -56.4867
   XY=            -17.9252   XZ=              1.3040   YZ=              4.1784
 Traceless Quadrupole moment (field-independent basis, Debye-Ang):
   XX=              2.1712   YY=             -8.8166   ZZ=              6.6454
   XY=            -17.9252   XZ=              1.3040   YZ=              4.1784
 Octapole moment (field-independent basis, Debye-Ang**2):
  XXX=              6.3013  YYY=            -28.8912  ZZZ=             -2.5370  XYY=              5.3863
  XXY=             -9.9066  XXZ=             -4.7911  XZZ=             11.5825  YZZ=             -3.2685
  YYZ=             -8.0490  XYZ=              8.1356
 Hexadecapole moment (field-independent basis, Debye-Ang**3):
 XXXX=           -777.1256 YYYY=           -648.0368 ZZZZ=            -77.4081 XXXY=            -92.4843
 XXXZ=             18.4336 YYYX=           -105.1475 YYYZ=             30.1450 ZZZX=             -2.5024
 ZZZY=              5.1722 XXYY=           -247.9335 XXZZ=           -153.0339 YYZZ=           -108.9070
 XXYZ=             11.4370 YYXZ=            -16.0728 ZZXY=             -8.9453
 N-N= 4.691931772169D+02 E-N=-2.139869486062D+03  KE= 5.036955195801D+02
                          Isotropic Fermi Contact Couplings
        Atom                 a.u.       MegaHertz       Gauss      10(-4) cm-1
     1  N(14)              0.11469      37.05543      13.22230      12.36036
     2  N(14)              0.08650      27.95012       9.97330       9.32316
     3  C(13)              0.04034      45.34705      16.18096      15.12615
     4  C(13)             -0.03237     -36.38851     -12.98433     -12.13790
     5  N(14)              0.10092      32.60840      11.63549      10.87699
     6  H(1)              -0.00432     -19.31497      -6.89206      -6.44278
     7  H(1)               0.00093       4.16583       1.48647       1.38957
     8  H(1)               0.01040      46.47356      16.58292      15.50191
     9  C(13)              0.02009      22.58934       8.06044       7.53499
    10  O(17)              0.00434      -2.63381      -0.93981      -0.87854
    11  O(17)              0.00817      -4.95272      -1.76726      -1.65205
    12  H(1)              -0.00032      -1.42033      -0.50681      -0.47377
    13  O(17)              0.00416      -2.52344      -0.90043      -0.84173
    14  H(1)              -0.00021      -0.93525      -0.33372      -0.31197
 --------------------------------------------------------
       Center         ----  Spin Dipole Couplings  ----
                      3XX-RR        3YY-RR        3ZZ-RR
 --------------------------------------------------------
     1   Atom       -0.294460     -0.293978      0.588439
     2   Atom       -0.260886     -0.253735      0.514620
     3   Atom       -0.117776     -0.125076      0.242852
     4   Atom        0.035807      0.063049     -0.098856
     5   Atom       -0.361384     -0.407712      0.769096
     6   Atom       -0.019430      0.023451     -0.004021
     7   Atom        0.001176      0.005174     -0.006350
     8   Atom        0.022313     -0.002607     -0.019706
     9   Atom        0.033506     -0.018615     -0.014891
    10   Atom       -0.021900     -0.027890      0.049789
    11   Atom        0.012076     -0.042088      0.030012
    12   Atom        0.001865     -0.000207     -0.001658
    13   Atom        0.005354     -0.009299      0.003945
    14   Atom        0.004868      0.000272     -0.005140
 --------------------------------------------------------
                        XY            XZ            YZ
 --------------------------------------------------------
     1   Atom        0.017009     -0.115338     -0.089989
     2   Atom        0.006493     -0.023051      0.024700
     3   Atom       -0.005638     -0.072471      0.000921
     4   Atom       -0.003767      0.039410     -0.004452
     5   Atom        0.018530     -0.256245     -0.075342
     6   Atom       -0.004246     -0.003650     -0.004390
     7   Atom       -0.001342      0.002180     -0.000210
     8   Atom       -0.033780     -0.012505      0.007882
     9   Atom        0.027262      0.034910      0.014773
    10   Atom        0.020018      0.053787      0.042691
    11   Atom        0.022609      0.078046      0.031155
    12   Atom       -0.004225     -0.002151      0.002071
    13   Atom       -0.022709      0.025097     -0.019037
    14   Atom       -0.001692      0.001028     -0.000014
 --------------------------------------------------------


 ---------------------------------------------------------------------------------
              Anisotropic Spin Dipole Couplings in Principal Axis System
 ---------------------------------------------------------------------------------

       Atom             a.u.   MegaHertz   Gauss  10(-4) cm-1        Axes

              Baa    -0.3124   -12.049    -4.299    -4.019  0.8631 -0.5013  0.0604
     1 N(14)  Bbb    -0.3001   -11.573    -4.129    -3.860  0.4886  0.8594  0.1505
              Bcc     0.6125    23.622     8.429     7.879 -0.1274 -0.1004  0.9868
 
              Baa    -0.2661   -10.262    -3.662    -3.423  0.8474 -0.5293  0.0418
     2 N(14)  Bbb    -0.2500    -9.642    -3.441    -3.216  0.5302  0.8478 -0.0114
              Bcc     0.5161    19.904     7.102     6.639 -0.0294  0.0318  0.9991
 
              Baa    -0.1348   -18.084    -6.453    -6.032  0.8593  0.4845  0.1637
     3 C(13)  Bbb    -0.1221   -16.387    -5.847    -5.466 -0.4749  0.8748 -0.0965
              Bcc     0.2569    34.471    12.300    11.498 -0.1900  0.0052  0.9818
 
              Baa    -0.1096   -14.708    -5.248    -4.906 -0.2611  0.0192  0.9651
     4 C(13)  Bbb     0.0452     6.066     2.165     2.023  0.9337  0.2588  0.2474
              Bcc     0.0644     8.642     3.084     2.883 -0.2451  0.9657 -0.0855
 
              Baa    -0.4177   -16.110    -5.748    -5.374  0.9036 -0.3932  0.1701
     5 N(14)  Bbb    -0.4116   -15.876    -5.665    -5.296  0.3729  0.9173  0.1395
              Bcc     0.8293    31.985    11.413    10.669 -0.2109 -0.0626  0.9755
 
              Baa    -0.0208   -11.123    -3.969    -3.710  0.9640  0.1161  0.2394
     6 H(1)   Bbb    -0.0036    -1.917    -0.684    -0.639 -0.2526  0.1163  0.9606
              Bcc     0.0244    13.040     4.653     4.350 -0.0837  0.9864 -0.1414
 
              Baa    -0.0069    -3.702    -1.321    -1.235 -0.2614 -0.0123  0.9652
     7 H(1)   Bbb     0.0013     0.690     0.246     0.230  0.9107  0.3283  0.2508
              Bcc     0.0056     3.012     1.075     1.005 -0.3200  0.9445 -0.0747
 
              Baa    -0.0263   -14.024    -5.004    -4.678  0.5928  0.7829  0.1889
     8 H(1)   Bbb    -0.0227   -12.136    -4.331    -4.048  0.0591 -0.2763  0.9593
              Bcc     0.0490    26.160     9.335     8.726  0.8032 -0.5575 -0.2100
 
              Baa    -0.0332    -4.459    -1.591    -1.487 -0.4164 -0.1326  0.8995
     9 C(13)  Bbb    -0.0303    -4.061    -1.449    -1.355 -0.3755  0.9261 -0.0373
              Bcc     0.0635     8.520     3.040     2.842  0.8280  0.3533  0.4354
 
              Baa    -0.0516     3.735     1.333     1.246  0.7605  0.3465 -0.5492
    10 O(17)  Bbb    -0.0448     3.242     1.157     1.081 -0.4812  0.8686 -0.1184
              Bcc     0.0964    -6.977    -2.490    -2.327  0.4360  0.3543  0.8273
 
              Baa    -0.0594     4.296     1.533     1.433 -0.6005 -0.4300  0.6742
    11 O(17)  Bbb    -0.0499     3.613     1.289     1.205 -0.4782  0.8689  0.1282
              Bcc     0.1093    -7.909    -2.822    -2.638  0.6409  0.2454  0.7273
 
              Baa    -0.0036    -1.930    -0.689    -0.644  0.5057  0.8088 -0.3001
    12 H(1)   Bbb    -0.0027    -1.427    -0.509    -0.476  0.4594  0.0420  0.8872
              Bcc     0.0063     3.356     1.198     1.120  0.7302 -0.5865 -0.3504
 
              Baa    -0.0259     1.872     0.668     0.625  0.5505  0.8321  0.0679
    13 O(17)  Bbb    -0.0198     1.432     0.511     0.478 -0.5336  0.2880  0.7952
              Bcc     0.0457    -3.304    -1.179    -1.102  0.6421 -0.4740  0.6025
 
              Baa    -0.0052    -2.801    -0.999    -0.934 -0.1060 -0.0300  0.9939
    14 H(1)   Bbb    -0.0003    -0.141    -0.050    -0.047  0.3015  0.9515  0.0608
              Bcc     0.0055     2.942     1.050     0.981  0.9475 -0.3062  0.0918
 

 ---------------------------------------------------------------------------------

 D1PCM: PCM CHGder 1st derivatives, ID1Alg=3 FixD1E=F DoIter=F DoCFld=F I1PDM=0.
 Calling FoFJK, ICntrl=      2127 FMM=F ISym2X=0 I1Cent= 0 IOpClX= 1 NMat=1 NMatS=1 NMatT=0.
 ***** Axes restored to original set *****
 -------------------------------------------------------------------
 Center     Atomic                   Forces (Hartrees/Bohr)
 Number     Number              X              Y              Z
 -------------------------------------------------------------------
      1        7          -0.029035182    0.028836573    0.008562699
      2        7           0.016175330   -0.003146894   -0.002231600
      3        6          -0.003893874    0.006709440   -0.002269257
      4        6          -0.002094289    0.005080381   -0.001500227
      5        7           0.007083445    0.006498910    0.004845383
      6        1          -0.002818754    0.002125189    0.000331183
      7        1           0.000983521    0.001173256    0.000165993
      8        1           0.002660131   -0.015283517   -0.002349795
      9        6          -0.037915738    0.004738582    0.009861408
     10        8           0.012499524    0.008067837   -0.003554149
     11        8           0.085874048    0.116273741   -0.000171887
     12        1          -0.001969380   -0.001794305    0.003707075
     13        8          -0.047227206   -0.153867735   -0.016263555
     14        1          -0.000321576   -0.005411459    0.000866729
 -------------------------------------------------------------------
 Cartesian Forces:  Max     0.153867735 RMS     0.034984903

 GradGradGradGradGradGradGradGradGradGradGradGradGradGradGradGradGradGrad
 Berny optimization.
 FormGI is forming the generalized inverse of G from B-inverse, IUseBI=4.
 Internal  Forces:  Max     0.115100573 RMS     0.025908517
 Search for a local minimum.
 Step number   1 out of a maximum of   76
 All quantities printed in internal units (Hartrees-Bohrs-Radians)
 Mixed Optimization -- RFO/linear search
 Second derivative matrix not updated -- first step.
 ITU=  0
     Eigenvalues ---    0.00677   0.01173   0.01613   0.01842   0.02131
     Eigenvalues ---    0.02203   0.02253   0.02377   0.02622   0.03460
     Eigenvalues ---    0.03782   0.12044   0.12822   0.14948   0.15357
     Eigenvalues ---    0.15954   0.15996   0.16925   0.19206   0.19989
     Eigenvalues ---    0.22152   0.22560   0.24999   0.32416   0.35749
     Eigenvalues ---    0.36383   0.37807   0.42694   0.43988   0.48034
     Eigenvalues ---    0.48911   0.53041   0.53347   0.53594   0.81360
     Eigenvalues ---    0.88470
 RFO step:  Lambda=-1.31865651D-01 EMin= 6.76699887D-03
 Linear search not attempted -- first point.
 Maximum step size (   0.300) exceeded in Quadratic search.
    -- Step size scaled by   0.498
 Iteration  1 RMS(Cart)=  0.05967733 RMS(Int)=  0.00223562
 Iteration  2 RMS(Cart)=  0.00182310 RMS(Int)=  0.00056368
 Iteration  3 RMS(Cart)=  0.00000700 RMS(Int)=  0.00056365
 Iteration  4 RMS(Cart)=  0.00000001 RMS(Int)=  0.00056365
 Variable       Old X    -DE/DX   Delta X   Delta X   Delta X     New X
                                 (Linear)    (Quad)   (Total)
    R1        2.64396   0.03064   0.00000   0.02517   0.02500   2.66896
    R2        2.61560  -0.00043   0.00000   0.00028   0.00036   2.61596
    R3        1.92837   0.05827   0.00000   0.05272   0.05299   1.98136
    R4        2.60269   0.01151   0.00000   0.00925   0.00912   2.61181
    R5        2.81624  -0.00048   0.00000  -0.00533  -0.00571   2.81053
    R6        2.60351  -0.00543   0.00000  -0.00556  -0.00560   2.59791
    R7        2.03486   0.00101   0.00000   0.00102   0.00102   2.03588
    R8        2.55062   0.00251   0.00000   0.00099   0.00109   2.55171
    R9        2.04476  -0.00030   0.00000  -0.00030  -0.00030   2.04446
   R10        2.63157   0.04153   0.00000   0.07976   0.08006   2.71163
   R11        2.33646   0.01304   0.00000   0.00639   0.00639   2.34285
   R12        2.34982   0.00393   0.00000   0.00134   0.00114   2.35096
   R13        2.61767   0.11510   0.00000   0.20658   0.20663   2.82431
   R14        1.83103  -0.00163   0.00000  -0.00122  -0.00122   1.82982
   R15        1.81897   0.08548   0.00000   0.06496   0.06519   1.88416
    A1        1.92605  -0.01266   0.00000  -0.01645  -0.01673   1.90932
    A2        1.91902   0.02642   0.00000   0.05297   0.05247   1.97149
    A3        2.04245  -0.00300   0.00000  -0.00426  -0.00383   2.03862
    A4        1.84987  -0.00166   0.00000   0.00233   0.00269   1.85256
    A5        2.08086   0.02273   0.00000   0.03060   0.03005   2.11091
    A6        2.21325  -0.01835   0.00000  -0.02514  -0.02509   2.18816
    A7        1.85821   0.00238   0.00000   0.00189   0.00163   1.85984
    A8        2.09995   0.00172   0.00000   0.00427   0.00442   2.10436
    A9        2.32332  -0.00404   0.00000  -0.00606  -0.00595   2.31737
   A10        1.96265   0.00042   0.00000  -0.00247  -0.00254   1.96011
   A11        2.22677  -0.00172   0.00000  -0.00131  -0.00131   2.22546
   A12        2.09352   0.00143   0.00000   0.00405   0.00405   2.09757
   A13        1.81661   0.01210   0.00000   0.01588   0.01602   1.83263
   A14        2.60586   0.00266   0.00000   0.01325   0.01193   2.61779
   A15        1.97932   0.00676   0.00000   0.00966   0.01017   1.98949
   A16        1.96394   0.00478   0.00000   0.00468   0.00364   1.96759
   A17        2.33989  -0.01154   0.00000  -0.01429  -0.01378   2.32611
   A18        2.46378  -0.02700   0.00000  -0.03876  -0.03888   2.42490
   A19        2.27211   0.02122   0.00000   0.02416   0.02352   2.29563
   A20        1.97808  -0.06819   0.00000  -0.09458  -0.09526   1.88282
   A21        1.89875   0.02850   0.00000   0.03321   0.03249   1.93124
   A22        1.92429   0.07235   0.00000   0.12375   0.12444   2.04873
    D1        0.13681  -0.00240   0.00000  -0.00373  -0.00359   0.13322
    D2       -2.49838   0.00011   0.00000  -0.00711  -0.00721  -2.50559
    D3        2.41552   0.00465   0.00000   0.01984   0.02048   2.43600
    D4       -0.21967   0.00716   0.00000   0.01647   0.01687  -0.20280
    D5       -0.14125   0.00507   0.00000   0.01019   0.00999  -0.13125
    D6       -2.35279  -0.01793   0.00000  -0.04556  -0.04531  -2.39810
    D7        1.29669  -0.01302   0.00000  -0.02919  -0.02892   1.26777
    D8       -2.77150  -0.00921   0.00000  -0.00755  -0.00679  -2.77829
    D9       -0.07416  -0.00235   0.00000  -0.00568  -0.00567  -0.07982
   D10        3.12234  -0.00317   0.00000  -0.00700  -0.00691   3.11543
   D11        2.51036   0.01131   0.00000   0.02049   0.01990   2.53026
   D12       -0.57634   0.01049   0.00000   0.01917   0.01866  -0.55767
   D13        3.02866   0.01049   0.00000   0.02562   0.02517   3.05384
   D14       -0.12053   0.01127   0.00000   0.03114   0.03145  -0.08908
   D15        0.50873   0.00423   0.00000   0.00731   0.00717   0.51590
   D16       -2.64046   0.00502   0.00000   0.01283   0.01345  -2.62702
   D17       -0.01308   0.00593   0.00000   0.01264   0.01245  -0.00064
   D18       -3.13053  -0.00046   0.00000  -0.00101  -0.00097  -3.13150
   D19        3.06357   0.00721   0.00000   0.01473   0.01443   3.07800
   D20       -0.05387   0.00082   0.00000   0.00108   0.00101  -0.05286
   D21        0.09454  -0.00549   0.00000  -0.01268  -0.01255   0.08199
   D22       -3.06914   0.00031   0.00000  -0.00027  -0.00031  -3.06945
   D23        3.02322   0.01162   0.00000   0.02696   0.02670   3.04993
   D24       -0.72161  -0.02266   0.00000  -0.04609  -0.04507  -0.76668
   D25       -0.50340   0.01233   0.00000   0.01928   0.01799  -0.48541
   D26        2.62848   0.01347   0.00000   0.02651   0.02604   2.65453
   D27        1.28128  -0.01039   0.00000  -0.04576  -0.04801   1.23327
   D28       -0.73803   0.02935   0.00000   0.07412   0.07230  -0.66572
   D29        1.92802   0.00797   0.00000   0.02419   0.02432   1.95235
         Item               Value     Threshold  Converged?
 Maximum Force            0.115101     0.000450     NO 
 RMS     Force            0.025909     0.000300     NO 
 Maximum Displacement     0.263312     0.001800     NO 
 RMS     Displacement     0.060200     0.001200     NO 
 Predicted change in Energy=-5.646177D-02
 GradGradGradGradGradGradGradGradGradGradGradGradGradGradGradGradGradGrad

                          Input orientation:                          
 ---------------------------------------------------------------------
 Center     Atomic      Atomic             Coordinates (Angstroms)
 Number     Number       Type             X           Y           Z
 ---------------------------------------------------------------------
      1          7           0       -0.754093   -1.046643    0.291481
      2          7           0        0.040844    0.119702    0.341021
      3          6           0       -0.812171    1.177209    0.087503
      4          6           0       -2.038844    0.629761   -0.204943
      5          7           0       -2.023039   -0.719519   -0.154697
      6          1           0       -0.445858    2.190343    0.093843
      7          1           0       -2.949367    1.153794   -0.463403
      8          1           0       -0.276120   -1.847282   -0.187949
      9          6           0        1.485654    0.075958   -0.009082
     10          8           0        2.036208    1.186762   -0.017112
     11          8           0        1.891388   -1.078610   -0.232853
     12          1           0        0.914714   -3.584934   -0.821624
     13          8           0        0.723587   -2.876659   -0.189630
     14          1           0        1.568807   -2.483048    0.163633
 ---------------------------------------------------------------------
                    Distance matrix (angstroms):
                    1          2          3          4          5
     1  N    0.000000
     2  N    1.412352   0.000000
     3  C    2.233942   1.382109   0.000000
     4  C    2.169643   2.209827   1.374755   0.000000
     5  N    1.384308   2.282463   2.263281   1.350307   0.000000
     6  H    3.257629   2.141385   1.077342   2.249954   3.319121
     7  H    3.198594   3.264630   2.207183   1.081881   2.112507
     8  H    1.048491   2.061383   3.083953   3.040266   2.079586
     9  C    2.523299   1.487267   2.549918   3.573114   3.600682
    10  O    3.587353   2.290929   2.850315   4.117229   4.486682
    11  O    2.697132   2.278113   3.535616   4.285561   3.931640
    12  H    3.235250   3.979915   5.146519   5.183383   4.157618
    13  O    2.400826   3.118638   4.343869   4.463881   3.492624
    14  H    2.734130   3.023317   4.367188   4.779181   4.014066
                    6          7          8          9         10
     6  H    0.000000
     7  H    2.766318   0.000000
     8  H    4.051003   4.028471   0.000000
     9  C    2.865651   4.586671   2.614325   0.000000
    10  O    2.679577   5.005619   3.818569   1.239782   0.000000
    11  O    4.031812   5.335700   2.300210   1.244075   2.280226
    12  H    6.003588   6.124949   2.199788   3.793195   4.967300
    13  O    5.207923   5.459862   1.434934   3.054716   4.273655
    14  H    5.089629   5.833841   1.982818   2.566175   3.703868
                   11         12         13         14
    11  O    0.000000
    12  H    2.753580   0.000000
    13  O    2.144436   0.968298   0.000000
    14  H    1.494558   1.616392   0.997057   0.000000
 Stoichiometry    C3H5N3O3(1-,2)
 Framework group  C1[X(C3H5N3O3)]
 Deg. of freedom    36
 Full point group                 C1      NOp   1
 Largest Abelian subgroup         C1      NOp   1
 Largest concise Abelian subgroup C1      NOp   1
                         Standard orientation:                         
 ---------------------------------------------------------------------
 Center     Atomic      Atomic             Coordinates (Angstroms)
 Number     Number       Type             X           Y           Z
 ---------------------------------------------------------------------
      1          7           0       -0.482824   -0.971418    0.357649
      2          7           0       -0.327467    0.432299    0.344186
      3          6           0       -1.569388    0.953437    0.033903
      4          6           0       -2.389555   -0.118178   -0.228620
      5          7           0       -1.745608   -1.298657   -0.105601
      6          1           0       -1.719923    2.019113   -0.014446
      7          1           0       -3.432572   -0.094830   -0.515040
      8          1           0        0.326163   -1.476619   -0.077833
      9          6           0        0.978281    1.053961   -0.002974
     10          8           0        0.945182    2.291436   -0.070937
     11          8           0        1.882557    0.214880   -0.164065
     12          1           0        2.207214   -2.481768   -0.616712
     13          8           0        1.690985   -1.916377   -0.023888
     14          1           0        2.244590   -1.156294    0.307651
 ---------------------------------------------------------------------
 Rotational constants (GHZ):           2.2469531           1.6522869           0.9722937
 Standard basis: 6-31+G(d,p) (6D, 7F)
 There are   196 symmetry adapted cartesian basis functions of A   symmetry.
 There are   196 symmetry adapted basis functions of A   symmetry.
   196 basis functions,   323 primitive gaussians,   196 cartesian basis functions
    35 alpha electrons       34 beta electrons
       nuclear repulsion energy       463.3519708874 Hartrees.
 NAtoms=   14 NActive=   14 NUniq=   14 SFac= 1.00D+00 NAtFMM=   60 NAOKFM=F Big=F
 Integral buffers will be    131072 words long.
 Raffenetti 2 integral format.
 Two-electron integral symmetry is turned on.
 ------------------------------------------------------------------------------
 Polarizable Continuum Model (PCM)
 =================================
 Model                : PCM.
 Atomic radii         : SMD-Coulomb.
 Polarization charges : Total charges.
 Charge compensation  : None.
 Solution method      : On-the-fly selection.
 Cavity type          : VdW (van der Waals Surface) (Alpha=1.000).
 Cavity algorithm     : GePol (No added spheres)
                        Default sphere list used, NSphG=   14.
                        Lebedev-Laikov grids with approx.  5.0 points / Ang**2.
                        Smoothing algorithm: York/Karplus (Gamma=1.0000).
                        Polarization charges: spherical gaussians, with
                                              point-specific exponents (IZeta= 3).
                        Self-potential: point-specific (ISelfS= 7).
                        Self-field    : sphere-specific E.n sum rule (ISelfD= 2).
 1st derivatives      : Analytical E(r).r(x)/FMM algorithm (CHGder, D1EAlg=3).
                        Cavity 1st derivative terms included.
 Solvent              : Water, Eps=  78.355300 Eps(inf)=   1.777849
 ------------------------------------------------------------------------------
 Spheres list:
 ISph  on   Nord     Re0    Alpha      Xe            Ye            Ze
    1   N      1    1.8900  1.000     -0.482824     -0.971418      0.357649
    2   N      2    1.8900  1.000     -0.327467      0.432299      0.344186
    3   C      3    1.8500  1.000     -1.569388      0.953437      0.033903
    4   C      4    1.8500  1.000     -2.389555     -0.118178     -0.228620
    5   N      5    1.8900  1.000     -1.745608     -1.298657     -0.105601
    6   H      6    1.2000  1.000     -1.719923      2.019113     -0.014446
    7   H      7    1.2000  1.000     -3.432572     -0.094830     -0.515040
    8   H      8    1.2000  1.000      0.326163     -1.476619     -0.077833
    9   C      9    1.8500  1.000      0.978281      1.053961     -0.002974
   10   O     10    1.5200  1.000      0.945182      2.291436     -0.070937
   11   O     11    1.5200  1.000      1.882557      0.214880     -0.164065
   12   H     12    1.2000  1.000      2.207214     -2.481768     -0.616712
   13   O     13    1.5200  1.000      1.690985     -1.916377     -0.023888
   14   H     14    1.2000  1.000      2.244590     -1.156294      0.307651
 ------------------------------------------------------------------------------
 ------------------------------------------------------------------------------
 Atomic radii for non-electrostatic terms: SMD-CDS.
 ------------------------------------------------------------------------------
 Nuclear repulsion after PCM non-electrostatic terms =      463.3592472189 Hartrees.
 One-electron integrals computed using PRISM.
 NBasis=   196 RedAO= T EigKep=  4.23D-05  NBF=   196
 NBsUse=   196 1.00D-06 EigRej= -1.00D+00 NBFU=   196
 Initial guess from the checkpoint file:  "/scratch/gongke2021/RC/Gau-9996.chk"
 B after Tr=    -0.000000    0.000000    0.000000
         Rot=    0.999726   -0.000262   -0.000107   -0.023409 Ang=  -2.68 deg.
 Initial guess <Sx>= 0.0000 <Sy>= 0.0000 <Sz>= 0.5000 <S**2>= 0.7646 S= 0.5073
 ExpMin= 4.38D-02 ExpMax= 5.48D+03 ExpMxC= 8.25D+02 IAcc=2 IRadAn=         4 AccDes= 0.00D+00
 Harris functional with IExCor= 1009 and IRadAn=       4 diagonalized for initial guess.
 HarFok:  IExCor= 1009 AccDes= 0.00D+00 IRadAn=         4 IDoV= 1 UseB2=F ITyADJ=14
 ICtDFT=  3500011 ScaDFX=  1.000000  1.000000  1.000000  1.000000
 FoFCou: FMM=F IPFlag=           0 FMFlag=      100000 FMFlg1=           0
         NFxFlg=           0 DoJE=T BraDBF=F KetDBF=T FulRan=T
         wScrn=  0.000000 ICntrl=       500 IOpCl=  0 I1Cent=   200000004 NGrid=           0
         NMat0=    1 NMatS0=      1 NMatT0=    0 NMatD0=    1 NMtDS0=    0 NMtDT0=    0
 Petite list used in FoFCou.
 Requested convergence on RMS density matrix=1.00D-08 within 128 cycles.
 Requested convergence on MAX density matrix=1.00D-06.
 Requested convergence on             energy=1.00D-06.
 No special actions if energy rises.
 Inv3:  Mode=1 IEnd=     3988227.
 Iteration    1 A*A^-1 deviation from unit magnitude is 2.89D-15 for    395.
 Iteration    1 A*A^-1 deviation from orthogonality  is 3.42D-15 for    589    429.
 Iteration    1 A^-1*A deviation from unit magnitude is 2.89D-15 for    395.
 Iteration    1 A^-1*A deviation from orthogonality  is 1.97D-15 for    609    391.
 Error on total polarization charges =  0.05585
 SCF Done:  E(UM062X) =  -507.137870120     A.U. after   15 cycles
            NFock= 15  Conv=0.62D-08     -V/T= 2.0077
 <Sx>= 0.0000 <Sy>= 0.0000 <Sz>= 0.5000 <S**2>= 0.7648 S= 0.5074
 <L.S>=  0.00000000000    
 SMD-CDS (non-electrostatic) energy       (kcal/mol) =       4.57
 (included in total energy above)
 Annihilation of the first spin contaminant:
 S**2 before annihilation     0.7648,   after     0.7501
 D1PCM: PCM CHGder 1st derivatives, ID1Alg=3 FixD1E=F DoIter=F DoCFld=F I1PDM=0.
 Calling FoFJK, ICntrl=      2127 FMM=F ISym2X=0 I1Cent= 0 IOpClX= 1 NMat=1 NMatS=1 NMatT=0.
 ***** Axes restored to original set *****
 -------------------------------------------------------------------
 Center     Atomic                   Forces (Hartrees/Bohr)
 Number     Number              X              Y              Z
 -------------------------------------------------------------------
      1        7          -0.014538706    0.021158621   -0.002212678
      2        7           0.014953754   -0.004171565   -0.003104046
      3        6          -0.001712267    0.003322692   -0.001399117
      4        6          -0.001495414    0.002324059    0.000562302
      5        7           0.005660445    0.002611395    0.003346099
      6        1          -0.002081915    0.001216388    0.000240274
      7        1           0.000762634    0.000507478   -0.000007164
      8        1          -0.000405081    0.001538952    0.005192905
      9        6          -0.039641741    0.003447717    0.008151765
     10        8           0.008716313    0.002766334   -0.002004121
     11        8           0.049269323    0.051291318    0.000401781
     12        1           0.001693086    0.000825130    0.003855823
     13        8           0.000311263   -0.079185516    0.001807635
     14        1          -0.021491694   -0.007653005   -0.014831458
 -------------------------------------------------------------------
 Cartesian Forces:  Max     0.079185516 RMS     0.018805516

 GradGradGradGradGradGradGradGradGradGradGradGradGradGradGradGradGradGrad
 Berny optimization.
 Using GEDIIS/GDIIS optimizer.
 FormGI is forming the generalized inverse of G from B-inverse, IUseBI=4.
 Internal  Forces:  Max     0.053802124 RMS     0.012339491
 Search for a local minimum.
 Step number   2 out of a maximum of   76
 All quantities printed in internal units (Hartrees-Bohrs-Radians)
 Mixed Optimization -- RFO/linear search
 Update second derivatives using D2CorX and points    1    2
 DE= -4.72D-02 DEPred=-5.65D-02 R= 8.36D-01
 TightC=F SS=  1.41D+00  RLast= 3.30D-01 DXNew= 5.0454D-01 9.9007D-01
 Trust test= 8.36D-01 RLast= 3.30D-01 DXMaxT set to 5.05D-01
 ITU=  1  0
 Use linear search instead of GDIIS.
 Linear search step of   0.601 exceeds DXMaxT=   0.505 but not scaled.
 Quartic linear search produced a step of  2.00000.
 Iteration  1 RMS(Cart)=  0.09654967 RMS(Int)=  0.02646433
 Iteration  2 RMS(Cart)=  0.02786915 RMS(Int)=  0.00311904
 Iteration  3 RMS(Cart)=  0.00033916 RMS(Int)=  0.00310296
 Iteration  4 RMS(Cart)=  0.00000090 RMS(Int)=  0.00310296
 Variable       Old X    -DE/DX   Delta X   Delta X   Delta X     New X
                                 (Linear)    (Quad)   (Total)
    R1        2.66896   0.00814   0.05000   0.00000   0.04921   2.71817
    R2        2.61596  -0.00225   0.00073   0.00000   0.00113   2.61709
    R3        1.98136   0.02927   0.10598   0.00000   0.10653   2.08789
    R4        2.61181   0.00578   0.01824   0.00000   0.01758   2.62939
    R5        2.81053  -0.01158  -0.01142   0.00000  -0.01252   2.79800
    R6        2.59791  -0.00334  -0.01119   0.00000  -0.01127   2.58664
    R7        2.03588   0.00044   0.00204   0.00000   0.00204   2.03792
    R8        2.55171   0.00088   0.00218   0.00000   0.00274   2.55445
    R9        2.04446  -0.00040  -0.00061   0.00000  -0.00061   2.04385
   R10        2.71163   0.03164   0.16012   0.00000   0.16078   2.87242
   R11        2.34285   0.00636   0.01278   0.00000   0.01278   2.35563
   R12        2.35096   0.00751   0.00227   0.00000   0.00180   2.35276
   R13        2.82431   0.05380   0.41327   0.00000   0.41363   3.23793
   R14        1.82982  -0.00278  -0.00243   0.00000  -0.00243   1.82738
   R15        1.88416   0.02052   0.13039   0.00000   0.13117   2.01533
    A1        1.90932  -0.00556  -0.03346   0.00000  -0.03465   1.87467
    A2        1.97149   0.01120   0.10493   0.00000   0.10036   2.07185
    A3        2.03862   0.00114  -0.00767   0.00000  -0.00517   2.03345
    A4        1.85256   0.00073   0.00538   0.00000   0.00703   1.85959
    A5        2.11091   0.00796   0.06010   0.00000   0.05687   2.16778
    A6        2.18816  -0.00736  -0.05018   0.00000  -0.04942   2.13874
    A7        1.85984  -0.00036   0.00326   0.00000   0.00188   1.86171
    A8        2.10436   0.00232   0.00883   0.00000   0.00961   2.11397
    A9        2.31737  -0.00193  -0.01191   0.00000  -0.01133   2.30603
   A10        1.96011  -0.00065  -0.00508   0.00000  -0.00542   1.95469
   A11        2.22546  -0.00050  -0.00262   0.00000  -0.00267   2.22279
   A12        2.09757   0.00117   0.00809   0.00000   0.00805   2.10561
   A13        1.83263   0.00602   0.03204   0.00000   0.03260   1.86523
   A14        2.61779   0.00448   0.02386   0.00000   0.01636   2.63415
   A15        1.98949   0.00473   0.02034   0.00000   0.02314   2.01263
   A16        1.96759   0.00663   0.00729   0.00000   0.00144   1.96902
   A17        2.32611  -0.01136  -0.02756   0.00000  -0.02470   2.30140
   A18        2.42490  -0.01440  -0.07776   0.00000  -0.08101   2.34389
   A19        2.29563   0.01281   0.04704   0.00000   0.04385   2.33948
   A20        1.88282  -0.03513  -0.19053   0.00000  -0.19492   1.68790
   A21        1.93124   0.01191   0.06498   0.00000   0.06266   1.99389
   A22        2.04873   0.03697   0.24888   0.00000   0.25078   2.29951
    D1        0.13322  -0.00090  -0.00718   0.00000  -0.00614   0.12708
    D2       -2.50559  -0.00054  -0.01442   0.00000  -0.01492  -2.52051
    D3        2.43600   0.00532   0.04097   0.00000   0.04438   2.48038
    D4       -0.20280   0.00568   0.03373   0.00000   0.03559  -0.16721
    D5       -0.13125   0.00194   0.01999   0.00000   0.01851  -0.11274
    D6       -2.39810  -0.00974  -0.09062   0.00000  -0.08775  -2.48585
    D7        1.26777  -0.00547  -0.05784   0.00000  -0.05583   1.21193
    D8       -2.77829  -0.00158  -0.01357   0.00000  -0.00879  -2.78707
    D9       -0.07982  -0.00097  -0.01134   0.00000  -0.01128  -0.09110
   D10        3.11543  -0.00139  -0.01382   0.00000  -0.01335   3.10209
   D11        2.53026   0.00452   0.03980   0.00000   0.03640   2.56666
   D12       -0.55767   0.00410   0.03732   0.00000   0.03433  -0.52334
   D13        3.05384   0.00635   0.05034   0.00000   0.04785   3.10169
   D14       -0.08908   0.00705   0.06290   0.00000   0.06423  -0.02485
   D15        0.51590   0.00306   0.01433   0.00000   0.01365   0.52954
   D16       -2.62702   0.00376   0.02689   0.00000   0.03002  -2.59699
   D17       -0.00064   0.00232   0.02490   0.00000   0.02358   0.02295
   D18       -3.13150  -0.00018  -0.00195   0.00000  -0.00171  -3.13321
   D19        3.07800   0.00301   0.02886   0.00000   0.02698   3.10498
   D20       -0.05286   0.00052   0.00201   0.00000   0.00168  -0.05118
   D21        0.08199  -0.00221  -0.02510   0.00000  -0.02402   0.05797
   D22       -3.06945   0.00007  -0.00061   0.00000  -0.00072  -3.07017
   D23        3.04993   0.00729   0.05341   0.00000   0.05307   3.10300
   D24       -0.76668  -0.01084  -0.09014   0.00000  -0.08274  -0.84941
   D25       -0.48541   0.00700   0.03599   0.00000   0.02957  -0.45583
   D26        2.65453   0.00790   0.05209   0.00000   0.04951   2.70403
   D27        1.23327  -0.00711  -0.09602   0.00000  -0.10781   1.12545
   D28       -0.66572   0.01252   0.14461   0.00000   0.13540  -0.53032
   D29        1.95235   0.00340   0.04864   0.00000   0.05067   2.00302
         Item               Value     Threshold  Converged?
 Maximum Force            0.053802     0.000450     NO 
 RMS     Force            0.012339     0.000300     NO 
 Maximum Displacement     0.508172     0.001800     NO 
 RMS     Displacement     0.118373     0.001200     NO 
 Predicted change in Energy=-4.756738D-03
 GradGradGradGradGradGradGradGradGradGradGradGradGradGradGradGradGradGrad

                          Input orientation:                          
 ---------------------------------------------------------------------
 Center     Atomic      Atomic             Coordinates (Angstroms)
 Number     Number       Type             X           Y           Z
 ---------------------------------------------------------------------
      1          7           0       -0.738288   -1.051873    0.271442
      2          7           0        0.054282    0.146894    0.332792
      3          6           0       -0.813194    1.208155    0.093548
      4          6           0       -2.028579    0.659726   -0.215730
      5          7           0       -2.003010   -0.690730   -0.162164
      6          1           0       -0.466255    2.228859    0.121630
      7          1           0       -2.940401    1.184275   -0.467123
      8          1           0       -0.298938   -1.955664   -0.187758
      9          6           0        1.497112    0.208400    0.006060
     10          8           0        2.010808    1.342231    0.072489
     11          8           0        1.969525   -0.900865   -0.304514
     12          1           0        0.867822   -3.853848   -0.757675
     13          8           0        0.694415   -3.106042   -0.169606
     14          1           0        1.556411   -2.522684    0.062799
 ---------------------------------------------------------------------
                    Distance matrix (angstroms):
                    1          2          3          4          5
     1  N    0.000000
     2  N    1.438393   0.000000
     3  C    2.268256   1.391411   0.000000
     4  C    2.198126   2.214088   1.368792   0.000000
     5  N    1.384904   2.275752   2.255397   1.351759   0.000000
     6  H    3.295399   2.156415   1.078421   2.239833   3.311519
     7  H    3.224149   3.268662   2.199985   1.081559   2.118336
     8  H    1.104866   2.194649   3.217661   3.135714   2.122398
     9  C    2.579870   1.480640   2.518864   3.561374   3.617677
    10  O    3.650870   2.307506   2.827262   4.106767   4.505411
    11  O    2.772504   2.274228   3.514248   4.292804   3.980635
    12  H    3.389651   4.225743   5.401321   5.390287   4.312960
    13  O    2.542985   3.353173   4.577601   4.647347   3.620758
    14  H    2.733580   3.075050   4.419856   4.801819   4.009506
                    6          7          8          9         10
     6  H    0.000000
     7  H    2.749397   0.000000
     8  H    4.199279   4.112735   0.000000
     9  C    2.819650   4.568124   2.818959   0.000000
    10  O    2.631420   4.983032   4.034695   1.246543   0.000000
    11  O    3.988709   5.336818   2.504427   1.245030   2.274932
    12  H    6.289059   6.322157   2.299834   4.181046   5.384684
    13  O    5.467463   5.630917   1.520017   3.414777   4.645280
    14  H    5.164475   5.851810   1.956172   2.732316   3.891547
                   11         12         13         14
    11  O    0.000000
    12  H    3.184212   0.000000
    13  O    2.550864   0.967010   0.000000
    14  H    1.713440   1.708604   1.066468   0.000000
 Stoichiometry    C3H5N3O3(1-,2)
 Framework group  C1[X(C3H5N3O3)]
 Deg. of freedom    36
 Full point group                 C1      NOp   1
 Largest Abelian subgroup         C1      NOp   1
 Largest concise Abelian subgroup C1      NOp   1
                         Standard orientation:                         
 ---------------------------------------------------------------------
 Center     Atomic      Atomic             Coordinates (Angstroms)
 Number     Number       Type             X           Y           Z
 ---------------------------------------------------------------------
      1          7           0       -0.298044   -1.056599    0.344999
      2          7           0       -0.385041    0.379103    0.332136
      3          6           0       -1.707318    0.693321    0.034017
      4          6           0       -2.340358   -0.489554   -0.237386
      5          7           0       -1.511902   -1.549344   -0.104124
      6          1           0       -2.042819    1.717671    0.000270
      7          1           0       -3.375889   -0.630920   -0.515703
      8          1           0        0.610036   -1.536937   -0.061690
      9          6           0        0.742387    1.278311   -0.003460
     10          8           0        0.471163    2.494987   -0.006291
     11          8           0        1.795306    0.661225   -0.249763
     12          1           0        2.699606   -2.379629   -0.522999
     13          8           0        2.093551   -1.857688    0.020492
     14          1           0        2.425544   -0.862956    0.214511
 ---------------------------------------------------------------------
 Rotational constants (GHZ):           1.9701375           1.6551118           0.9178823
 Standard basis: 6-31+G(d,p) (6D, 7F)
 There are   196 symmetry adapted cartesian basis functions of A   symmetry.
 There are   196 symmetry adapted basis functions of A   symmetry.
   196 basis functions,   323 primitive gaussians,   196 cartesian basis functions
    35 alpha electrons       34 beta electrons
       nuclear repulsion energy       453.5932386767 Hartrees.
 NAtoms=   14 NActive=   14 NUniq=   14 SFac= 1.00D+00 NAtFMM=   60 NAOKFM=F Big=F
 Integral buffers will be    131072 words long.
 Raffenetti 2 integral format.
 Two-electron integral symmetry is turned on.
 ------------------------------------------------------------------------------
 Polarizable Continuum Model (PCM)
 =================================
 Model                : PCM.
 Atomic radii         : SMD-Coulomb.
 Polarization charges : Total charges.
 Charge compensation  : None.
 Solution method      : On-the-fly selection.
 Cavity type          : VdW (van der Waals Surface) (Alpha=1.000).
 Cavity algorithm     : GePol (No added spheres)
                        Default sphere list used, NSphG=   14.
                        Lebedev-Laikov grids with approx.  5.0 points / Ang**2.
                        Smoothing algorithm: York/Karplus (Gamma=1.0000).
                        Polarization charges: spherical gaussians, with
                                              point-specific exponents (IZeta= 3).
                        Self-potential: point-specific (ISelfS= 7).
                        Self-field    : sphere-specific E.n sum rule (ISelfD= 2).
 1st derivatives      : Analytical E(r).r(x)/FMM algorithm (CHGder, D1EAlg=3).
                        Cavity 1st derivative terms included.
 Solvent              : Water, Eps=  78.355300 Eps(inf)=   1.777849
 ------------------------------------------------------------------------------
 Spheres list:
 ISph  on   Nord     Re0    Alpha      Xe            Ye            Ze
    1   N      1    1.8900  1.000     -0.298044     -1.056599      0.344999
    2   N      2    1.8900  1.000     -0.385041      0.379103      0.332136
    3   C      3    1.8500  1.000     -1.707318      0.693321      0.034017
    4   C      4    1.8500  1.000     -2.340358     -0.489554     -0.237386
    5   N      5    1.8900  1.000     -1.511902     -1.549344     -0.104124
    6   H      6    1.2000  1.000     -2.042819      1.717671      0.000270
    7   H      7    1.2000  1.000     -3.375889     -0.630920     -0.515703
    8   H      8    1.2000  1.000      0.610036     -1.536937     -0.061690
    9   C      9    1.8500  1.000      0.742387      1.278311     -0.003460
[...]
 ! D2    D(5,1,2,9)            170.6229         -DE/DX =    0.0                 !
 ! D3    D(8,1,2,3)            138.9138         -DE/DX =    0.0                 !
 ! D4    D(8,1,2,9)            -61.4502         -DE/DX =    0.0                 !
 ! D5    D(2,1,5,4)            -10.1143         -DE/DX =    0.0                 !
 ! D6    D(8,1,5,4)           -137.2178         -DE/DX =    0.0                 !
 ! D7    D(2,1,8,13)            51.9242         -DE/DX =    0.0                 !
 ! D8    D(5,1,8,13)           176.8576         -DE/DX =    0.0                 !
 ! D9    D(1,2,3,4)             -7.3076         -DE/DX =    0.0                 !
 ! D10   D(1,2,3,6)            173.9194         -DE/DX =    0.0                 !
 ! D11   D(9,2,3,4)           -165.1702         -DE/DX =    0.0                 !
 ! D12   D(9,2,3,6)             16.0568         -DE/DX =    0.0                 !
 ! D13   D(1,2,9,10)          -167.0847         -DE/DX =    0.0                 !
 ! D14   D(1,2,9,11)            14.2994         -DE/DX =    0.0                 !
 ! D15   D(3,2,9,10)           -12.1619         -DE/DX =    0.0                 !
 ! D16   D(3,2,9,11)           169.2223         -DE/DX =    0.0                 !
 ! D17   D(2,3,4,5)              1.1502         -DE/DX =    0.0                 !
 ! D18   D(2,3,4,7)           -177.9245         -DE/DX =    0.0                 !
 ! D19   D(6,3,4,5)            179.7395         -DE/DX =    0.0                 !
 ! D20   D(6,3,4,7)              0.6647         -DE/DX =    0.0                 !
 ! D21   D(3,4,5,1)              5.5991         -DE/DX =    0.0                 !
 ! D22   D(7,4,5,1)           -175.2542         -DE/DX =    0.0                 !
 ! D23   D(1,8,13,12)         -109.8103         -DE/DX =    0.0                 !
 ! D24   D(1,8,13,14)          -10.0599         -DE/DX =    0.0                 !
 ! D25   D(2,9,11,14)           39.5096         -DE/DX =    0.0                 !
 ! D26   D(10,9,11,14)        -138.9028         -DE/DX =    0.0                 !
 ! D27   D(9,11,14,13)         -53.9126         -DE/DX =    0.0                 !
 ! D28   D(8,13,14,11)          11.5453         -DE/DX =    0.0                 !
 ! D29   D(12,13,14,11)        125.7707         -DE/DX =    0.0                 !
 --------------------------------------------------------------------------------
 GradGradGradGradGradGradGradGradGradGradGradGradGradGradGradGradGradGrad


 ----------------------------------------------------------------------

 Electric dipole moment (input orientation):
 (Debye = 10**-18 statcoulomb cm , SI units = C m)
                  (au)            (Debye)         (10**-30 SI)
   Tot        0.277074D+01      0.704253D+01      0.234913D+02
   x         -0.219212D+01     -0.557182D+01     -0.185856D+02
   y          0.321651D+00      0.817556D+00      0.272707D+01
   z         -0.166378D+01     -0.422890D+01     -0.141061D+02

 Dipole polarizability, Alpha (input orientation).
 (esu units = cm**3 , SI units = C**2 m**2 J**-1)
 Alpha(0;0):
               (au)            (10**-24 esu)      (10**-40 SI)
   iso        0.110131D+03      0.163197D+02      0.181581D+02
   aniso      0.627486D+02      0.929838D+01      0.103458D+02
   xx         0.137516D+03      0.203778D+02      0.226734D+02
   yx         0.334653D+01      0.495905D+00      0.551769D+00
   yy         0.120475D+03      0.178526D+02      0.198637D+02
   zx         0.192584D+01      0.285379D+00      0.317527D+00
   zy        -0.125401D+02     -0.185826D+01     -0.206759D+01
   zz         0.723999D+02      0.107286D+02      0.119371D+02

 ----------------------------------------------------------------------

 Dipole orientation:
     7         -1.65352462          1.76938672          0.44128132
     7          0.10361081         -0.16965015         -0.03188710
     6         -0.37145941         -2.04984124          1.72275415
     6         -2.13647991         -1.07399524          3.35557437
     7         -2.83837717          1.28801642          2.71210408
     1          0.59514654         -3.84039676          1.66101444
     1         -2.92668129         -1.97513033          5.00885434
     1         -0.87684507          3.53661150          0.30787104
     6          1.34301745         -0.39165463         -2.39553061
     8          2.48835504         -2.42871588         -2.77051373
     8          1.19459375          1.50652681         -3.83204815
     1          2.88378120          6.62091642         -1.02289302
     8          1.22429725          6.23079408         -1.67259535
     1          1.41513005          4.64238726         -2.60845253

 Electric dipole moment (dipole orientation):
 (Debye = 10**-18 statcoulomb cm , SI units = C m)
                  (au)            (Debye)         (10**-30 SI)
   Tot        0.277074D+01      0.704253D+01      0.234913D+02
   x          0.000000D+00      0.000000D+00      0.000000D+00
   y          0.000000D+00      0.000000D+00      0.000000D+00
   z          0.277074D+01      0.704253D+01      0.234913D+02

 Dipole polarizability, Alpha (dipole orientation).
 (esu units = cm**3 , SI units = C**2 m**2 J**-1)
 Alpha(0;0):
               (au)            (10**-24 esu)      (10**-40 SI)
   iso        0.110131D+03      0.163197D+02      0.181581D+02
   aniso      0.627486D+02      0.929838D+01      0.103458D+02
   xx         0.962179D+02      0.142580D+02      0.158642D+02
   yx        -0.168455D+02     -0.249624D+01     -0.277745D+01
   yy         0.117403D+03      0.173973D+02      0.193571D+02
   zx        -0.288793D+02     -0.427947D+01     -0.476156D+01
   zy        -0.702896D+01     -0.104158D+01     -0.115892D+01
   zz         0.116771D+03      0.173036D+02      0.192529D+02

 ----------------------------------------------------------------------
 1\1\GINC-NODE6\Freq\UM062X\6-31+G(d,p)\C3H5N3O3(1-,2)\GONGKE2021\11-Ju
 l-2023\0\\#N Geom=AllCheck Guess=TCheck SCRF=Check GenChk UM062X/6-31+
 G(d,p) Freq\\test\\-1,2\N,-0.7712751256,-0.9515398411,0.4433599678\N,0
 .051887066,0.0902065875,-0.0228242113\C,-0.7787038167,1.1701463781,-0.
 2659810125\C,-2.0606660563,0.7048063221,-0.1058173245\N,-2.0891568823,
 -0.5954357709,0.247412564\H,-0.387024326,2.1352497347,-0.5410531855\H,
 -2.9800921363,1.2552180103,-0.2449749202\H,-0.5188275776,-1.8634502744
 ,0.0520187166\C,1.4475678145,0.0991328691,0.2229872062\O,2.0354683108,
 1.1797677069,-0.0122345263\O,1.9435241103,-0.9896379853,0.6249884894\H
 ,1.156394347,-3.4494010698,-1.2890432134\O,0.90553761,-3.3350019038,-0
 .363854907\H,1.4070763121,-2.5532267535,-0.0487938032\\Version=ES64L-G
 16RevA.03\State=2-A\HF=-507.1912455\S2=0.765266\S2-1=0.\S2A=0.75007\RM
 SD=1.821e-09\RMSF=2.666e-05\ZeroPoint=0.0962922\Thermal=0.1058279\Dipo
 le=-2.1921221,0.3216512,-1.6637779\DipoleDeriv=0.1142208,0.6477023,-0.
 298124,0.2300019,-0.6879632,0.1829751,-0.0763376,0.5107683,-0.3711109,
 -2.4083557,0.0031158,-0.0875057,0.3470244,-0.0663013,-0.1254249,-0.313
 9076,-0.0898432,-0.0749101,0.0139948,-0.1344601,-0.1096179,-0.5197653,
 -0.2255276,0.0606676,0.1168359,-0.0483745,-0.2536251,0.5522458,0.03367
 92,0.0397082,0.6673783,0.4224049,-0.0542882,-0.1777981,-0.1623281,-0.0
 707813,-0.6480594,-0.5150418,0.2434511,-0.6889681,-0.5297152,-0.076178
 8,0.0986824,-0.0955846,-0.2882876,0.1503935,-0.0059478,0.0085309,0.017
 7898,0.1520958,0.0366289,0.0121683,0.0477536,0.2807619,0.0585035,0.072
 6335,-0.0193184,0.0576788,0.1260408,0.022587,-0.0062524,0.0276294,0.20
 61262,0.3528151,-0.2068417,-0.0051158,-0.1379397,0.6742747,-0.003052,0
 .0365064,-0.132249,0.400076,4.1032017,0.0797193,0.3073653,0.1956812,3.
 2030862,-0.7009883,0.4822131,-0.7805377,0.808788,-1.7142326,-0.590848,
 0.0868421,-0.980386,-1.9841796,0.2551726,0.1628867,0.3031049,-0.761100
 4,-1.5103305,0.4638072,-0.2096865,0.7594014,-2.2426405,0.3374181,-0.36
 10006,0.3367843,-0.88061,0.4127146,-0.0306993,0.070092,-0.0428957,0.41
 0991,0.0359111,0.0408562,0.0197194,0.3356948,-0.9007588,0.0748697,-0.1
 170335,0.1017984,-1.2537141,-0.1179255,-0.0815448,-0.2026466,-0.795752
 9,0.4236472,0.1083117,0.0904123,-0.0067994,1.0011482,0.1464974,0.06669
 19,0.2658038,0.4647314\Polar=137.5164408,3.3465323,120.4752583,1.92583
 58,-12.5401358,72.3999489\Quadrupole=-8.8754204,0.2313674,8.6440529,-9
 .1797337,-1.7378121,4.4041857\PG=C01 [X(C3H5N3O3)]\NImag=0\\0.50037955
 ,-0.10707188,0.75556918,-0.04611120,0.06029030,0.16707097,-0.11921534,
 -0.02545716,0.02547666,0.75009082,-0.05465595,-0.18611067,0.03365463,-
 0.05492679,0.58090284,0.04129728,0.06029280,-0.05023106,0.03568831,-0.
 15097305,0.11288343,-0.00484127,0.01202356,-0.01819653,-0.18620142,0.0
 9397536,-0.02189128,0.68066664,0.00084608,-0.06688904,0.02250514,0.080
 54058,-0.22612265,0.04721780,0.13139919,0.75572366,0.00284077,0.021498
 13,-0.00952567,-0.01225440,0.04115924,-0.04150038,-0.05051415,-0.18617
 122,0.14226236,-0.03355261,0.03938081,0.00125985,-0.06438632,0.0429368
 5,-0.01177054,-0.36145205,-0.08047645,0.03068638,0.86005568,0.04600851
 ,-0.05546921,0.02188071,0.02188759,0.00402867,0.00252171,-0.04774626,-
 0.10060524,0.01486284,-0.13770784,0.56906717,-0.01261584,0.02201964,-0
 .00142934,-0.00150042,-0.00001763,0.01355019,0.02424914,0.01531916,-0.
 06569416,0.02250313,-0.12731273,0.16375286,-0.23494399,0.00996609,0.00
 274032,-0.09541694,-0.01407654,-0.00031536,0.00268686,-0.04293903,0.00
 725490,-0.10569982,0.01281685,-0.00731800,0.42652290,0.07265781,-0.111
 83994,-0.00357116,-0.01348047,-0.00261601,-0.00212789,-0.09984950,-0.0
 7630111,0.02793912,0.00349668,-0.28044756,0.06476588,0.00146009,0.4825
 6904,-0.05552444,0.00792730,-0.04156810,0.01218045,0.00677017,-0.00510
 268,0.02909792,0.02426227,0.02022132,-0.00343790,0.06343623,-0.0712481
 3,0.00783549,-0.10931013,0.10103170,-0.00459354,0.00403028,-0.00009026
 ,0.01225769,0.02002426,-0.00660224,-0.09979434,-0.11195273,0.03425426,
 0.00337729,-0.02130317,0.00572059,-0.00391696,-0.00202904,0.00114499,0
 .09237997,0.00090844,-0.00082406,-0.00072745,-0.00919832,-0.01418877,0
 .00425800,-0.10245452,-0.31115209,0.08225626,0.00037126,0.00153824,-0.
 00028518,0.00281317,0.00265556,0.00115462,0.11053180,0.32278442,-0.002
 03565,0.00154063,0.00279957,0.00123361,0.00207598,-0.00358643,0.031248
 04,0.08328379,-0.04303652,-0.00026843,0.00046765,0.00023120,0.00173840
 ,0.00076140,0.00599718,-0.03341007,-0.08661274,0.03999343,0.00200615,-
 0.00241565,0.00086522,-0.00383269,-0.00250738,0.00025921,-0.00880857,0
 .01548375,-0.00382129,-0.28945140,0.13153287,-0.03295177,0.00755600,-0
 .00034705,0.00014846,0.00023747,-0.00032955,0.00003912,0.29166474,0.00
 044261,-0.00569247,0.00183037,-0.00453908,-0.00184249,0.00227417,-0.00
 953277,0.01208950,-0.00241236,0.12696530,-0.13191300,0.02492204,0.0272
 2899,-0.00986558,0.00204458,0.00066158,-0.00048008,-0.00063788,-0.1423
 5692,0.13643343,0.00093590,0.00439015,0.00739995,0.00033677,0.00203314
 ,0.00594993,0.00280223,-0.00293518,0.00236516,-0.03210479,0.02437623,-
 0.04143285,-0.00642811,0.00231960,-0.00605373,-0.00025084,-0.00058131,
 -0.00236543,0.03548666,-0.02888855,0.03328530,-0.07284502,0.06688436,0
 .04097926,0.00645358,-0.02539656,-0.01072640,-0.00244326,-0.00225749,0
 .00062234,-0.00858998,-0.00105652,0.00203339,-0.00950394,0.03555229,0.
 00921800,0.00076625,-0.00034021,0.00035540,0.00037610,0.00091854,-0.00
 123552,0.08822413,0.06673237,-0.33254784,-0.12383471,0.00402940,-0.021
 22604,-0.00293419,-0.00550457,0.00157017,-0.00149859,0.00151911,0.0032
 6245,-0.00231620,0.00772624,-0.00053073,0.00274273,0.00027528,-0.00042
 274,-0.00039087,-0.00006882,0.00029338,-0.00024014,-0.07285767,0.34942
 788,0.05723056,-0.17351890,-0.07622201,-0.00845941,0.02550588,0.001234
 77,0.00732502,0.00102994,-0.00123785,-0.00617340,-0.00089984,0.0012790
 6,-0.00819142,0.01724894,-0.00242535,-0.00078024,0.00097284,0.00018051
 ,-0.00001027,0.00097335,0.00005992,-0.04179008,0.12758653,0.07836800,-
 0.03134597,-0.00965831,-0.00466891,-0.17265031,-0.00684319,0.00157848,
 -0.01981620,0.02272669,-0.01264353,0.00181311,-0.01018631,0.00129311,0
 .02499533,0.00763895,-0.00042502,0.00067060,-0.00156417,0.00088623,0.0
 0147629,0.00032448,0.00015547,0.00349321,-0.00471126,0.00013836,0.5204
 8564,-0.02290415,0.00281736,-0.00775509,0.00796514,-0.09864772,0.01860
 616,0.02224683,0.01005978,0.00041658,0.00382108,-0.00792674,0.00234967
 ,-0.00460284,-0.00357009,0.00207126,-0.00076742,-0.00164948,0.00007586
 ,0.00089951,0.00080327,-0.00023749,-0.00424703,-0.00229732,-0.00088134
 ,0.03414739,0.83791271,0.01058362,-0.00616638,-0.00185402,-0.02668264,
 0.02014499,-0.05673115,-0.00065957,-0.00213581,-0.00765834,-0.00076907
 ,-0.00082253,0.00142914,0.00578229,0.00356381,-0.00222846,0.00024987,0
 .00011413,-0.00032446,0.00033056,0.00034379,0.00133637,0.00167497,-0.0
 0119350,0.00137868,0.02594442,-0.18195159,0.27488618,-0.00223213,0.004
 52715,-0.00347677,-0.06771319,-0.05631393,0.00247460,0.00293242,-0.003
 47788,0.00240256,0.00077364,-0.00015110,-0.00006809,-0.00900380,-0.003
 85457,0.00069007,-0.00122970,-0.00115446,0.00028268,-0.00042588,0.0000
 4246,-0.00008203,-0.00153313,0.00107990,0.00042031,-0.17851895,-0.1575
 2108,0.03258304,0.22463818,0.00040175,0.00163576,0.00317967,-0.0498515
 9,-0.01739333,-0.00478149,0.00192445,-0.00278595,0.00281071,0.00086607
 ,0.00439904,-0.00078457,-0.00651122,-0.00288827,-0.00007250,0.00033991
 ,0.00154232,-0.00049962,-0.00022702,0.00011571,-0.00016355,0.00011340,
 0.00174376,-0.00024405,-0.15953391,-0.37602687,0.06748277,0.21993308,0
 .49765763,-0.00146775,0.00335382,0.00177814,0.00054085,-0.00194818,0.0
 1974981,-0.00131009,0.00065922,-0.00162919,-0.00009313,-0.00120076,0.0
 0009526,0.00029166,0.00034785,0.00081902,-0.00018142,-0.00049303,0.000
 26575,-0.00001244,-0.00004163,-0.00002550,0.00023023,0.00014768,-0.000
 19925,0.03536851,0.06634805,-0.09451808,-0.03731529,-0.10608611,0.0584
 7751,0.00398790,0.00430174,0.00018026,-0.05880843,0.05679736,-0.029942
 01,-0.00279653,-0.01029492,0.00120922,-0.00281962,0.00568776,-0.001205
 38,-0.00369830,-0.00149011,-0.00136695,-0.00013132,0.00039590,-0.00006
 202,-0.00079388,-0.00020229,0.00044312,0.00046378,0.00182811,0.0010801
 4,-0.15038165,0.12002081,-0.04950411,0.03189132,-0.00788234,0.00396845
 ,0.18854601,-0.00909584,0.00202504,-0.00614295,0.04551992,-0.01830960,
 0.02651136,0.00334748,0.00563001,-0.00139509,-0.00142467,-0.00609203,0
 .00134128,0.00758439,0.00410247,-0.00023376,0.00017700,0.00022048,-0.0
 0007644,0.00040108,0.00017502,-0.00016105,0.00318393,-0.00157970,0.001
 24464,0.12208577,-0.34887997,0.09614498,-0.00357525,-0.11207886,0.0407
 0410,-0.16096787,0.47881496,0.00356466,-0.00107761,0.00103583,-0.02596
 685,0.02128216,0.00418727,-0.00201993,-0.00265683,0.00531534,-0.000028
 51,0.00265204,-0.00050662,-0.00300343,-0.00120818,0.00081944,-0.000078
 04,-0.00003195,-0.00015703,-0.00031076,-0.00034876,-0.00055747,-0.0001
 0784,0.00032406,-0.00102118,-0.05016427,0.10298692,-0.11706096,0.00226
 953,0.03774922,0.01565582,0.07964208,-0.15403126,0.09695679,-0.0003953
 4,0.00035682,-0.00014362,0.00002859,0.00006226,0.00007646,0.00001766,0
 .00007903,-0.00003700,-0.00005214,0.00002089,-0.00000170,0.00009557,0.
 00015705,0.00002782,-0.00000780,0.00000803,0.00000165,0.00000325,0.000
 01739,-0.00000737,0.00047050,-0.00073358,0.00059568,-0.00045512,0.0002
 9109,-0.00017432,0.00002801,-0.00020311,0.00012050,-0.00005385,-0.0013
 9076,-0.00004756,0.04884646,0.00036247,-0.00009793,0.00007083,0.000088
 61,-0.00002942,0.00003255,0.00000916,-0.00003060,0.00000146,0.00005720
 ,-0.00002138,0.00001269,-0.00004252,-0.00013584,-0.00003157,0.00000257
 ,-0.00000405,-0.00000219,-0.00000110,-0.00001310,0.00000367,-0.0003715
 4,0.00006741,-0.00046621,-0.00038488,0.00032968,-0.00027988,-0.0000062
 9,-0.00031790,0.00014689,-0.00062913,-0.00171708,0.00008004,-0.0000023
 4,0.03593610,-0.00042903,0.00067238,0.00018140,-0.00006118,-0.00012870
 ,-0.00000412,-0.00001375,0.00004608,-0.00000810,-0.00003559,0.00005750
 ,-0.00001856,0.00008077,0.00006745,0.00003629,-0.00000834,0.00000308,-
 0.00000302,-0.00000391,0.00001300,-0.00001015,0.00092164,-0.00108121,-
 0.00026582,-0.00006408,-0.00054878,0.00017784,0.00012540,0.00023075,-0
 .00010669,0.00014397,0.00063680,0.00039762,-0.12625566,0.07434379,0.50
 236882,-0.00307937,0.00248070,0.00077681,0.00117983,-0.00111380,0.0009
 2993,-0.00008357,0.00085880,-0.00017620,-0.00030189,0.00014004,-0.0001
 2080,0.00128373,0.00084914,0.00058564,-0.00005225,0.00003724,-0.000017
 60,0.00001594,0.00011715,-0.00009410,0.00137953,-0.00249408,-0.0014162
 0,-0.00494727,0.00401036,-0.00371159,0.00035614,-0.00156877,0.00098810
 ,0.00293766,-0.01111139,-0.00192230,-0.05381216,-0.01006022,0.11824404
 ,0.19121099,0.00319953,-0.00225269,-0.00077316,0.00191147,0.00044865,0
 .00051078,0.00027163,-0.00017057,-0.00007448,0.00044047,-0.00061845,0.
 00015783,-0.00045457,-0.00082801,-0.00058452,0.00006896,-0.00002170,0.
 00000961,0.00003483,-0.00011234,0.00011210,-0.00189793,0.00095413,0.00
 080471,-0.00553223,0.01061676,-0.00584173,-0.00105641,-0.00538799,0.00
 238521,-0.00234759,-0.02364161,-0.00696531,0.00399046,-0.03180149,-0.0
 7771375,0.19639255,0.34005901,0.00116975,-0.00108363,0.00052965,0.0011
 9863,-0.00059537,0.00007849,0.00000702,-0.00005031,-0.00002596,0.00028
 928,-0.00028591,0.00004224,-0.00010324,-0.00059527,-0.00008793,0.00004
 114,-0.00002498,-0.00000474,0.00001889,-0.00006855,0.00003231,-0.00204
 821,0.00201663,-0.00225824,-0.00332706,0.00442995,-0.00274371,-0.00031
 076,-0.00278053,0.00118701,-0.00114165,-0.01285872,-0.00046305,0.14820
 386,-0.03985906,-0.48897217,-0.07397179,0.17226217,0.57277809,0.000671
 00,0.00065150,0.00040893,-0.00178588,0.00203804,-0.00105644,-0.0000663
 6,-0.00053563,0.00017614,0.00028612,0.00005669,-0.00001736,-0.00095663
 ,-0.00076128,-0.00017453,0.00003663,-0.00002462,0.00000863,-0.00002352
 ,-0.00008744,0.00004263,-0.00671176,0.00317956,0.00003097,0.00518131,-
 0.00335970,0.00435252,0.00003709,0.00219931,-0.00112817,-0.00834309,0.
 00526622,-0.00182675,0.00528638,0.01097802,0.00735572,-0.13608729,-0.1
 9502117,-0.07002585,0.14247600,0.00216826,-0.00032349,-0.00060712,-0.0
 0448932,0.00110654,-0.00140871,-0.00011004,-0.00101585,0.00060740,-0.0
 0024587,0.00079805,-0.00017188,-0.00096912,-0.00030393,-0.00017669,-0.
 00005930,0.00000196,0.00000482,-0.00009856,0.00000875,-0.00002761,0.00
 177244,0.00128516,0.00064351,0.01149098,-0.02354138,0.01059696,0.00152
 839,0.00978495,-0.00432311,-0.00521742,0.02133085,0.00124546,-0.002653
 23,-0.00216440,0.00340162,-0.17853771,-0.28724370,-0.12050643,0.175420
 50,0.28027650,0.00056141,-0.00013863,0.00003470,-0.00173037,0.00103673
 ,-0.00047808,-0.00012408,-0.00037406,0.00015201,-0.00005727,0.00026685
 ,-0.00005028,-0.00036427,-0.00020141,-0.00021056,-0.00000940,-0.000002
 28,0.00001001,-0.00003766,-0.00000356,0.00001618,-0.00012716,0.0006717
 7,0.00112876,0.00592828,-0.00591015,0.00391099,0.00000474,0.00395929,-
 0.00154963,-0.00344512,0.00831611,-0.00460181,-0.02235873,-0.03405301,
 -0.01377333,-0.04009392,-0.08428945,-0.08009199,0.06185355,0.11072178,
 0.09550303\\0.00002015,-0.00000631,0.00000909,-0.00003052,0.00001146,0
 .00001581,0.00000212,0.00000547,-0.00003358,-0.00001138,-0.00001491,0.
 00001907,-0.00001699,0.00000646,0.00002806,-0.00001451,-0.00000296,-0.
 00000451,-0.00000860,-0.00001046,0.00002248,-0.00002726,0.00000831,0.0
 0003884,0.00004239,-0.00004015,-0.00006350,-0.00001828,0.00001364,-0.0
 0003422,0.00005567,0.00006690,-0.00001132,-0.00001027,-0.00000175,0.00
 000529,0.00003415,-0.00003338,-0.00002884,-0.00001669,-0.00000231,0.00
 003735\\\@


 CHINESE FORTUNE COOKIE OF JAN 1 1967 SAY....
 ALL THINGS ARE DIFFICULT BEFORE THEY ARE EASY.
 WE LEARN SO LITTLE AND FORGET SO MUCH.
 YOU WILL OVERCOME OBSTACLES TO ACHIEVE SUCCESS.
 AH SO.
 Job cpu time:       0 days  1 hours  0 minutes 58.2 seconds.
 Elapsed time:       0 days  0 hours  2 minutes 33.2 seconds.
 File lengths (MBytes):  RWF=    152 Int=      0 D2E=      0 Chk=      9 Scr=      1
 Normal termination of Gaussian 16 at Tue Jul 11 11:38:35 2023.
