 Entering Gaussian System, Link 0=/opt/soft/g16/g16
 Initial command:
 /opt/soft/g16/l1.exe "/scratch/gongke2021/RC/Gau-22830.inp" -scrdir="/scratch/gongke2021/RC/"
 Entering Link 1 = /opt/soft/g16/l1.exe PID=     22831.
  
 Copyright (c) 1988,1990,1992,1993,1995,1998,2003,2009,2016,
            Gaussian, Inc.  All Rights Reserved.
  
 This is part of the Gaussian(R) 16 program.  It is based on
 the Gaussian(R) 09 system (copyright 2009, Gaussian, Inc.),
 the Gaussian(R) 03 system (copyright 2003, Gaussian, Inc.),
 the Gaussian(R) 98 system (copyright 1998, Gaussian, Inc.),
 the Gaussian(R) 94 system (copyright 1995, Gaussian, Inc.),
 the Gaussian 92(TM) system (copyright 1992, Gaussian, Inc.),
 the Gaussian 90(TM) system (copyright 1990, Gaussian, Inc.),
 the Gaussian 88(TM) system (copyright 1988, Gaussian, Inc.),
 the Gaussian 86(TM) system (copyright 1986, Carnegie Mellon
 University), and the Gaussian 82(TM) system (copyright 1983,
 Carnegie Mellon University). Gaussian is a federally registered
 trademark of Gaussian, Inc.
  
 This software contains proprietary and confidential information,
 including trade secrets, belonging to Gaussian, Inc.
  
 This software is provided under written license and may be
 used, copied, transmitted, or stored only in accord with that
 written license.
  
 The following legend is applicable only to US Government
 contracts under FAR:
  
                    RESTRICTED RIGHTS LEGEND
  
 Use, reproduction and disclosure by the US Government is
 subject to restrictions as set forth in subparagraphs (a)
 and (c) of the Commercial Computer Software - Restricted
 Rights clause in FAR 52.227-19.
  
 Gaussian, Inc.
 340 Quinnipiac St., Bldg. 40, Wallingford CT 06492
  
  
 ---------------------------------------------------------------
 Warning -- This program may not be used in any manner that
 competes with the business of Gaussian, Inc. or will provide
 assistance to any competitor of Gaussian, Inc.  The licensee
 of this program is prohibited from giving any competitor of
 Gaussian, Inc. access to this program.  By using this program,
 the user acknowledges that Gaussian, Inc. is engaged in the
 business of creating and licensing software in the field of
 computational chemistry and represents and warrants to the
 licensee that it is not a competitor of Gaussian, Inc. and that
 it will not use this program in any manner prohibited above.
 ---------------------------------------------------------------
  

 Cite this work as:
 Gaussian 16, Revision A.03,
 M. J. Frisch, G. W. Trucks, H. B. Schlegel, G. E. Scuseria, 
 M. A. Robb, J. R. Cheeseman, G. Scalmani, V. Barone, 
 G. A. Petersson, H. Nakatsuji, X. Li, M. Caricato, A. V. Marenich, 
 J. Bloino, B. G. Janesko, R. Gomperts, B. Mennucci, H. P. Hratchian, 
 J. V. Ortiz, A. F. Izmaylov, J. L. Sonnenberg, D. Williams-Young, 
 F. Ding, F. Lipparini, F. Egidi, J. Goings, B. Peng, A. Petrone, 
 T. Henderson, D. Ranasinghe, V. G. Zakrzewski, J. Gao, N. Rega, 
 G. Zheng, W. Liang, M. Hada, M. Ehara, K. Toyota, R. Fukuda, 
 J. Hasegawa, M. Ishida, T. Nakajima, Y. Honda, O. Kitao, H. Nakai, 
 T. Vreven, K. Throssell, J. A. Montgomery, Jr., J. E. Peralta, 
 F. Ogliaro, M. J. Bearpark, J. J. Heyd, E. N. Brothers, K. N. Kudin, 
 V. N. Staroverov, T. A. Keith, R. Kobayashi, J. Normand, 
 K. Raghavachari, A. P. Rendell, J. C. Burant, S. S. Iyengar, 
 J. Tomasi, M. Cossi, J. M. Millam, M. Klene, C. Adamo, R. Cammi, 
 J. W. Ochterski, R. L. Martin, K. Morokuma, O. Farkas, 
 J. B. Foresman, and D. J. Fox, Gaussian, Inc., Wallingford CT, 2016.
 
 ******************************************
 Gaussian 16:  ES64L-G16RevA.03 25-Dec-2016
                 6-Jul-2023 
 ******************************************
 %mem=10GB
 %nprocshared=24
 Will use up to   24 processors via shared memory.
 -----------------------------------------------------
 # opt freq 6-31+g(d,p) m062x scrf=(SMD,solvent=water)
 -----------------------------------------------------
 1/18=20,19=15,26=3,38=1/1,3;
 2/9=110,12=2,17=6,18=5,40=1/2;
 3/5=1,6=6,7=111,11=2,25=1,30=1,70=32201,71=1,72=1,74=-55/1,2,3;
 4//1;
 5/5=2,38=5,53=1/2;
 6/7=2,8=2,9=2,10=2,28=1/1;
 7//1,2,3,16;
 1/18=20,19=15,26=3/3(2);
 2/9=110/2;
 99//99;
 2/9=110/2;
 3/5=1,6=6,7=111,11=2,25=1,30=1,70=32205,71=1,72=1,74=-55/1,2,3;
 4/5=5,16=3,69=1/1;
 5/5=2,38=5,53=1/2;
 7//1,2,3,16;
 1/18=20,19=15,26=3/3(-5);
 2/9=110/2;
 6/7=2,8=2,9=2,10=2,19=2,28=1/1;
 99/9=1/99;
 ----
 test
 ----
 Symbolic Z-matrix:
 Charge =  0 Multiplicity = 1
 N                     1.046    -0.00101   0.00004 
 N                     0.35376  -1.123    -0.00007 
 C                    -0.90834  -0.70217   0.00007 
 C                    -0.90686   0.70393  -0.00006 
 N                     0.3561    1.12228   0.00004 
 H                    -1.72896  -1.40222   0.0001 
 H                    -1.72597   1.40571  -0.00009 
 H                     2.05511  -0.00195  -0.00006 
 C                     1.6233   -2.64929   0.27232 
 O                     0.67018  -3.31471   0.24262 
 O                     2.57642  -1.98388   0.30202 
 
 Add virtual bond connecting atoms C9         and N2         Dist= 3.79D+00.
 Add virtual bond connecting atoms O11        and H8         Dist= 3.91D+00.

 GradGradGradGradGradGradGradGradGradGradGradGradGradGradGradGradGradGrad
 Berny optimization.
 Initialization pass.
                           ----------------------------
                           !    Initial Parameters    !
                           ! (Angstroms and Degrees)  !
 --------------------------                            --------------------------
 ! Name  Definition              Value          Derivative Info.                !
 --------------------------------------------------------------------------------
 ! R1    R(1,2)                  1.3184         estimate D2E/DX2                !
 ! R2    R(1,5)                  1.3182         estimate D2E/DX2                !
 ! R3    R(1,8)                  1.0091         estimate D2E/DX2                !
 ! R4    R(2,3)                  1.3304         estimate D2E/DX2                !
 ! R5    R(2,9)                  2.0039         estimate D2E/DX2                !
 ! R6    R(3,4)                  1.4061         estimate D2E/DX2                !
 ! R7    R(3,6)                  1.0787         estimate D2E/DX2                !
 ! R8    R(4,5)                  1.3304         estimate D2E/DX2                !
 ! R9    R(4,7)                  1.0786         estimate D2E/DX2                !
 ! R10   R(8,11)                 2.0715         estimate D2E/DX2                !
 ! R11   R(9,10)                 1.1628         estimate D2E/DX2                !
 ! R12   R(9,11)                 1.1628         estimate D2E/DX2                !
 ! A1    A(2,1,5)              116.7687         estimate D2E/DX2                !
 ! A2    A(2,1,8)              121.6204         estimate D2E/DX2                !
 ! A3    A(5,1,8)              121.6109         estimate D2E/DX2                !
 ! A4    A(1,2,3)              103.2335         estimate D2E/DX2                !
 ! A5    A(1,2,9)              108.3939         estimate D2E/DX2                !
 ! A6    A(3,2,9)              147.3445         estimate D2E/DX2                !
 ! A7    A(2,3,4)              108.3803         estimate D2E/DX2                !
 ! A8    A(2,3,6)              121.0932         estimate D2E/DX2                !
 ! A9    A(4,3,6)              130.5265         estimate D2E/DX2                !
 ! A10   A(3,4,5)              108.3876         estimate D2E/DX2                !
 ! A11   A(3,4,7)              130.5287         estimate D2E/DX2                !
 ! A12   A(5,4,7)              121.0837         estimate D2E/DX2                !
 ! A13   A(1,5,4)              103.23           estimate D2E/DX2                !
 ! A14   A(1,8,11)             104.6277         estimate D2E/DX2                !
 ! A15   A(2,9,10)              85.0144         estimate D2E/DX2                !
 ! A16   A(2,9,11)              94.9856         estimate D2E/DX2                !
 ! A17   A(8,11,9)             109.7252         estimate D2E/DX2                !
 ! A18   L(10,9,11,2,-1)       180.0            estimate D2E/DX2                !
 ! A19   L(10,9,11,2,-2)       180.0            estimate D2E/DX2                !
 ! D1    D(5,1,2,3)             -0.0096         estimate D2E/DX2                !
 ! D2    D(5,1,2,9)           -171.7649         estimate D2E/DX2                !
 ! D3    D(8,1,2,3)           -179.9979         estimate D2E/DX2                !
 ! D4    D(8,1,2,9)              8.2468         estimate D2E/DX2                !
 ! D5    D(2,1,5,4)              0.0008         estimate D2E/DX2                !
 ! D6    D(8,1,5,4)            179.9892         estimate D2E/DX2                !
 ! D7    D(2,1,8,11)            -8.6784         estimate D2E/DX2                !
 ! D8    D(5,1,8,11)           171.3338         estimate D2E/DX2                !
 ! D9    D(1,2,3,4)              0.0138         estimate D2E/DX2                !
 ! D10   D(1,2,3,6)           -179.9953         estimate D2E/DX2                !
 ! D11   D(9,2,3,4)            165.407          estimate D2E/DX2                !
 ! D12   D(9,2,3,6)            -14.602          estimate D2E/DX2                !
 ! D13   D(1,2,9,10)           178.177          estimate D2E/DX2                !
 ! D14   D(1,2,9,11)            -1.823          estimate D2E/DX2                !
 ! D15   D(3,2,9,10)            13.1701         estimate D2E/DX2                !
 ! D16   D(3,2,9,11)          -166.8299         estimate D2E/DX2                !
 ! D17   D(2,3,4,5)             -0.0143         estimate D2E/DX2                !
 ! D18   D(2,3,4,7)            179.9942         estimate D2E/DX2                !
 ! D19   D(6,3,4,5)            179.9959         estimate D2E/DX2                !
 ! D20   D(6,3,4,7)              0.0044         estimate D2E/DX2                !
 ! D21   D(3,4,5,1)              0.008          estimate D2E/DX2                !
 ! D22   D(7,4,5,1)           -179.9996         estimate D2E/DX2                !
 ! D23   D(1,8,11,9)             6.815          estimate D2E/DX2                !
 ! D24   D(2,9,11,8)            -1.7306         estimate D2E/DX2                !
 --------------------------------------------------------------------------------
 Trust Radius=3.00D-01 FncErr=1.00D-07 GrdErr=1.00D-06 EigMax=2.50D+02 EigMin=1.00D-04
 Number of steps in this run=     65 maximum allowed number of steps=    100.
 GradGradGradGradGradGradGradGradGradGradGradGradGradGradGradGradGradGrad

                          Input orientation:                          
 ---------------------------------------------------------------------
 Center     Atomic      Atomic             Coordinates (Angstroms)
 Number     Number       Type             X           Y           Z
 ---------------------------------------------------------------------
      1          7           0        1.046004   -0.001011    0.000036
      2          7           0        0.353758   -1.122999   -0.000070
      3          6           0       -0.908335   -0.702169    0.000069
      4          6           0       -0.906862    0.703927   -0.000062
      5          7           0        0.356096    1.122284    0.000036
      6          1           0       -1.728964   -1.402222    0.000104
      7          1           0       -1.725970    1.405709   -0.000094
      8          1           0        2.055107   -0.001952   -0.000061
      9          6           0        1.623301   -2.649293    0.272318
     10          8           0        0.670181   -3.314708    0.242620
     11          8           0        2.576417   -1.983881    0.302016
 ---------------------------------------------------------------------
                    Distance matrix (angstroms):
                    1          2          3          4          5
     1  N    0.000000
     2  N    1.318356   0.000000
     3  C    2.076310   1.330405   0.000000
     4  C    2.076204   2.219644   1.406097   0.000000
     5  N    1.318243   2.245284   2.219778   1.330446   0.000000
     6  H    3.108672   2.101356   1.078659   2.260910   3.274234
     7  H    3.108489   3.274085   2.260902   1.078627   2.101268
     8  H    1.009103   2.037482   3.045044   3.044918   2.037289
     9  C    2.724116   2.003873   3.205400   4.209513   3.988075
    10  O    3.343752   2.227691   3.062010   4.323816   4.454705
    11  O    2.522921   2.402621   3.725245   4.410079   3.830049
                    6          7          8          9         10
     6  H    0.000000
     7  H    2.807933   0.000000
     8  H    4.034842   4.034607   0.000000
     9  C    3.587055   5.266390   2.696120   0.000000
    10  O    3.077712   5.299319   3.598787   1.162797   0.000000
    11  O    4.354972   5.485538   2.071487   1.162792   2.325589
                   11
    11  O    0.000000
 Stoichiometry    C3H3N3O2
 Framework group  C1[X(C3H3N3O2)]
 Deg. of freedom    27
 Full point group                 C1      NOp   1
 Largest Abelian subgroup         C1      NOp   1
 Largest concise Abelian subgroup C1      NOp   1
                         Standard orientation:                         
 ---------------------------------------------------------------------
 Center     Atomic      Atomic             Coordinates (Angstroms)
 Number     Number       Type             X           Y           Z
 ---------------------------------------------------------------------
      1          7           0       -0.639933   -0.888527    0.067832
      2          7           0       -0.042570    0.286358    0.097204
      3          6           0       -1.055294    1.145099    0.013953
      4          6           0       -2.252796    0.412246   -0.063648
      5          7           0       -1.954751   -0.883869   -0.027026
      6          1           0       -0.884025    2.210075    0.013753
      7          1           0       -3.275369    0.746543   -0.141275
      8          1           0       -0.116148   -1.749710    0.115815
      9          6           0        1.935675   -0.006761   -0.029827
     10          8           0        2.006621    1.153675   -0.008570
     11          8           0        1.864729   -1.167192   -0.051084
 ---------------------------------------------------------------------
 Rotational constants (GHZ):           5.4448888           1.6281695           1.2555175
 Standard basis: 6-31+G(d,p) (6D, 7F)
 There are   167 symmetry adapted cartesian basis functions of A   symmetry.
 There are   167 symmetry adapted basis functions of A   symmetry.
   167 basis functions,   277 primitive gaussians,   167 cartesian basis functions
    29 alpha electrons       29 beta electrons
       nuclear repulsion energy       356.7211285889 Hartrees.
 NAtoms=   11 NActive=   11 NUniq=   11 SFac= 1.00D+00 NAtFMM=   60 NAOKFM=F Big=F
 Integral buffers will be    131072 words long.
 Raffenetti 2 integral format.
 Two-electron integral symmetry is turned on.
 ------------------------------------------------------------------------------
 Polarizable Continuum Model (PCM)
 =================================
 Model                : PCM.
 Atomic radii         : SMD-Coulomb.
 Polarization charges : Total charges.
 Charge compensation  : None.
 Solution method      : On-the-fly selection.
 Cavity type          : VdW (van der Waals Surface) (Alpha=1.000).
 Cavity algorithm     : GePol (No added spheres)
                        Default sphere list used, NSphG=   11.
                        Lebedev-Laikov grids with approx.  5.0 points / Ang**2.
                        Smoothing algorithm: York/Karplus (Gamma=1.0000).
                        Polarization charges: spherical gaussians, with
                                              point-specific exponents (IZeta= 3).
                        Self-potential: point-specific (ISelfS= 7).
                        Self-field    : sphere-specific E.n sum rule (ISelfD= 2).
 1st derivatives      : Analytical E(r).r(x)/FMM algorithm (CHGder, D1EAlg=3).
                        Cavity 1st derivative terms included.
 Solvent              : Water, Eps=  78.355300 Eps(inf)=   1.777849
 ------------------------------------------------------------------------------
 Spheres list:
 ISph  on   Nord     Re0    Alpha      Xe            Ye            Ze
    1   N      1    1.8900  1.000     -0.639933     -0.888527      0.067832
    2   N      2    1.8900  1.000     -0.042570      0.286358      0.097204
    3   C      3    1.8500  1.000     -1.055294      1.145099      0.013953
    4   C      4    1.8500  1.000     -2.252796      0.412246     -0.063648
    5   N      5    1.8900  1.000     -1.954751     -0.883869     -0.027026
    6   H      6    1.2000  1.000     -0.884025      2.210075      0.013753
    7   H      7    1.2000  1.000     -3.275369      0.746543     -0.141275
    8   H      8    1.2000  1.000     -0.116148     -1.749710      0.115815
    9   C      9    1.8500  1.000      1.935675     -0.006761     -0.029827
   10   O     10    1.5200  1.000      2.006621      1.153675     -0.008570
   11   O     11    1.5200  1.000      1.864729     -1.167192     -0.051084
 ------------------------------------------------------------------------------
 ------------------------------------------------------------------------------
 Atomic radii for non-electrostatic terms: SMD-CDS.
 ------------------------------------------------------------------------------
 Nuclear repulsion after PCM non-electrostatic terms =      356.7298137220 Hartrees.
 One-electron integrals computed using PRISM.
 NBasis=   167 RedAO= T EigKep=  3.09D-05  NBF=   167
 NBsUse=   167 1.00D-06 EigRej= -1.00D+00 NBFU=   167
 ExpMin= 4.38D-02 ExpMax= 5.48D+03 ExpMxC= 8.25D+02 IAcc=3 IRadAn=         5 AccDes= 0.00D+00
 Harris functional with IExCor= 1009 and IRadAn=       5 diagonalized for initial guess.
 HarFok:  IExCor= 1009 AccDes= 0.00D+00 IRadAn=         5 IDoV= 1 UseB2=F ITyADJ=14
 ICtDFT=  3500011 ScaDFX=  1.000000  1.000000  1.000000  1.000000
 FoFCou: FMM=F IPFlag=           0 FMFlag=      100000 FMFlg1=           0
         NFxFlg=           0 DoJE=T BraDBF=F KetDBF=T FulRan=T
         wScrn=  0.000000 ICntrl=       500 IOpCl=  0 I1Cent=   200000004 NGrid=           0
         NMat0=    1 NMatS0=      1 NMatT0=    0 NMatD0=    1 NMtDS0=    0 NMtDT0=    0
 Petite list used in FoFCou.
 Keep R1 ints in memory in canonical form, NReq=122219251.
 Requested convergence on RMS density matrix=1.00D-08 within 128 cycles.
 Requested convergence on MAX density matrix=1.00D-06.
 Requested convergence on             energy=1.00D-06.
 No special actions if energy rises.
 Inv3:  Mode=1 IEnd=     3145728.
 Iteration    1 A*A^-1 deviation from unit magnitude is 2.66D-15 for    609.
 Iteration    1 A*A^-1 deviation from orthogonality  is 1.70D-15 for    621     73.
 Iteration    1 A^-1*A deviation from unit magnitude is 2.89D-15 for    609.
 Iteration    1 A^-1*A deviation from orthogonality  is 1.14D-15 for    558     81.
 Error on total polarization charges =  0.03286
 SCF Done:  E(RM062X) =  -430.634937048     A.U. after   14 cycles
            NFock= 14  Conv=0.53D-08     -V/T= 2.0073
 SMD-CDS (non-electrostatic) energy       (kcal/mol) =       5.45
 (included in total energy above)

 **********************************************************************

            Population analysis using the SCF density.

 **********************************************************************

 Orbital symmetries:
       Occupied  (A) (A) (A) (A) (A) (A) (A) (A) (A) (A) (A) (A)
                 (A) (A) (A) (A) (A) (A) (A) (A) (A) (A) (A) (A)
                 (A) (A) (A) (A) (A)
       Virtual   (A) (A) (A) (A) (A) (A) (A) (A) (A) (A) (A) (A)
                 (A) (A) (A) (A) (A) (A) (A) (A) (A) (A) (A) (A)
                 (A) (A) (A) (A) (A) (A) (A) (A) (A) (A) (A) (A)
                 (A) (A) (A) (A) (A) (A) (A) (A) (A) (A) (A) (A)
                 (A) (A) (A) (A) (A) (A) (A) (A) (A) (A) (A) (A)
                 (A) (A) (A) (A) (A) (A) (A) (A) (A) (A) (A) (A)
                 (A) (A) (A) (A) (A) (A) (A) (A) (A) (A) (A) (A)
                 (A) (A) (A) (A) (A) (A) (A) (A) (A) (A) (A) (A)
                 (A) (A) (A) (A) (A) (A) (A) (A) (A) (A) (A) (A)
                 (A) (A) (A) (A) (A) (A) (A) (A) (A) (A) (A) (A)
                 (A) (A) (A) (A) (A) (A) (A) (A) (A) (A) (A) (A)
                 (A) (A) (A) (A) (A) (A)
 The electronic state is 1-A.
 Alpha  occ. eigenvalues --  -19.71199 -19.69926 -14.87931 -14.81691 -14.81496
 Alpha  occ. eigenvalues --  -10.74547 -10.58775 -10.58414  -1.28434  -1.24145
 Alpha  occ. eigenvalues --   -1.22849  -1.01889  -0.93594  -0.72645  -0.72520
 Alpha  occ. eigenvalues --   -0.66780  -0.64970  -0.59699  -0.59574  -0.58305
 Alpha  occ. eigenvalues --   -0.56201  -0.52307  -0.51857  -0.43860  -0.43124
 Alpha  occ. eigenvalues --   -0.40706  -0.37095  -0.36738  -0.33668
 Alpha virt. eigenvalues --    0.01505   0.01762   0.03556   0.04372   0.04995
 Alpha virt. eigenvalues --    0.05613   0.06422   0.06498   0.08107   0.08788
 Alpha virt. eigenvalues --    0.09535   0.10179   0.10342   0.11257   0.12965
 Alpha virt. eigenvalues --    0.13711   0.15658   0.16722   0.18369   0.20489
 Alpha virt. eigenvalues --    0.20915   0.21123   0.23074   0.23488   0.24010
 Alpha virt. eigenvalues --    0.24997   0.26436   0.26563   0.27235   0.28442
 Alpha virt. eigenvalues --    0.28807   0.29166   0.29974   0.32542   0.33102
 Alpha virt. eigenvalues --    0.34026   0.34376   0.35416   0.36787   0.39240
 Alpha virt. eigenvalues --    0.41599   0.43036   0.45620   0.51414   0.56336
 Alpha virt. eigenvalues --    0.71836   0.73063   0.74109   0.76425   0.77476
 Alpha virt. eigenvalues --    0.84728   0.87220   0.90273   0.92114   0.92216
 Alpha virt. eigenvalues --    0.94079   0.94709   0.96947   0.98023   0.99408
 Alpha virt. eigenvalues --    1.00945   1.02062   1.03678   1.06587   1.11633
 Alpha virt. eigenvalues --    1.15321   1.20186   1.20883   1.25404   1.27548
 Alpha virt. eigenvalues --    1.29443   1.30414   1.31727   1.32978   1.35995
 Alpha virt. eigenvalues --    1.37950   1.39777   1.40456   1.43030   1.44529
 Alpha virt. eigenvalues --    1.49608   1.50147   1.51118   1.53906   1.57347
 Alpha virt. eigenvalues --    1.58098   1.61007   1.70910   1.80077   1.80893
 Alpha virt. eigenvalues --    1.88627   1.91781   1.97296   2.01775   2.06160
 Alpha virt. eigenvalues --    2.07999   2.10284   2.11628   2.17869   2.19250
 Alpha virt. eigenvalues --    2.20105   2.22358   2.22876   2.26963   2.27933
 Alpha virt. eigenvalues --    2.29648   2.34496   2.43766   2.46000   2.52519
 Alpha virt. eigenvalues --    2.56018   2.62870   2.68316   2.68453   2.73136
 Alpha virt. eigenvalues --    2.74581   2.76367   2.81947   2.86209   2.92862
 Alpha virt. eigenvalues --    3.04729   3.05611   3.10506   3.14945   3.17124
 Alpha virt. eigenvalues --    3.30741   3.35954   3.40725   3.57339   3.72656
 Alpha virt. eigenvalues --    4.03706   4.20859   4.24584   4.29056   4.44413
 Alpha virt. eigenvalues --    4.66118   4.69139   4.93803
          Condensed to atoms (all electrons):
               1          2          3          4          5          6
     1  N    7.105738   0.173291  -0.110775  -0.005826  -0.237404   0.016035
     2  N    0.173291   6.717514   0.318732  -0.021675   0.064906  -0.051943
     3  C   -0.110775   0.318732   5.412679   0.163905   0.015254   0.397598
     4  C   -0.005826  -0.021675   0.163905   5.356841   0.289735  -0.017330
     5  N   -0.237404   0.064906   0.015254   0.289735   7.196042  -0.003547
     6  H    0.016035  -0.051943   0.397598  -0.017330  -0.003547   0.431127
     7  H    0.024604  -0.011454  -0.009966   0.386590  -0.056724   0.000330
     8  H    0.302950  -0.006393   0.009821   0.005380  -0.025273  -0.000043
     9  C   -0.005053   0.047999  -0.009105  -0.009659  -0.013236  -0.002724
    10  O   -0.020804  -0.061470  -0.046318   0.028868  -0.014385   0.000395
    11  O    0.021748  -0.078431   0.000979  -0.003889   0.001687  -0.000084
               7          8          9         10         11
     1  N    0.024604   0.302950  -0.005053  -0.020804   0.021748
     2  N   -0.011454  -0.006393   0.047999  -0.061470  -0.078431
     3  C   -0.009966   0.009821  -0.009105  -0.046318   0.000979
     4  C    0.386590   0.005380  -0.009659   0.028868  -0.003889
     5  N   -0.056724  -0.025273  -0.013236  -0.014385   0.001687
     6  H    0.000330  -0.000043  -0.002724   0.000395  -0.000084
     7  H    0.439589  -0.000026  -0.000092  -0.000055   0.000038
     8  H   -0.000026   0.295348  -0.003299   0.000224  -0.002317
     9  C   -0.000092  -0.003299   4.342687   0.426540   0.410422
    10  O   -0.000055   0.000224   0.426540   8.168195  -0.091629
    11  O    0.000038  -0.002317   0.410422  -0.091629   8.160039
 Mulliken charges:
               1
     1  N   -0.264504
     2  N   -0.091075
     3  C   -0.142804
     4  C   -0.172940
     5  N   -0.217055
     6  H    0.230186
     7  H    0.227166
     8  H    0.423629
     9  C    0.815519
    10  O   -0.389561
    11  O   -0.418562
 Sum of Mulliken charges =   0.00000
 Mulliken charges with hydrogens summed into heavy atoms:
               1
     1  N    0.159125
     2  N   -0.091075
     3  C    0.087383
     4  C    0.054226
     5  N   -0.217055
     9  C    0.815519
    10  O   -0.389561
    11  O   -0.418562
 Electronic spatial extent (au):  <R**2>=            856.3231
 Charge=              0.0000 electrons
 Dipole moment (field-independent basis, Debye):
    X=             -1.1813    Y=              0.4950    Z=              0.0438  Tot=              1.2816
 Quadrupole moment (field-independent basis, Debye-Ang):
   XX=            -46.6474   YY=            -43.7781   ZZ=            -45.5363
   XY=             -7.3376   XZ=              0.2495   YZ=             -0.6576
 Traceless Quadrupole moment (field-independent basis, Debye-Ang):
   XX=             -1.3268   YY=              1.5425   ZZ=             -0.2157
   XY=             -7.3376   XZ=              0.2495   YZ=             -0.6576
 Octapole moment (field-independent basis, Debye-Ang**2):
  XXX=              0.8332  YYY=             -0.1166  ZZZ=              0.0298  XYY=             -4.3403
  XXY=             13.1142  XXZ=             -0.9273  XZZ=              8.1178  YZZ=             -1.6738
  YYZ=              0.9997  XYZ=              0.3328
 Hexadecapole moment (field-independent basis, Debye-Ang**3):
 XXXX=           -738.6512 YYYY=           -235.2390 ZZZZ=            -45.1195 XXXY=            -50.8509
 XXXZ=              4.3201 YYYX=            -17.1232 YYYZ=             -1.7895 ZZZX=             -0.8763
 ZZZY=             -0.3056 XXYY=           -207.1349 XXZZ=           -141.3826 YYZZ=            -54.2091
 XXYZ=             -2.0493 YYXZ=              0.2511 ZZXY=              0.5273
 N-N= 3.567298137220D+02 E-N=-1.719761443046D+03  KE= 4.275060521286D+02
 D1PCM: PCM CHGder 1st derivatives, ID1Alg=3 FixD1E=F DoIter=F DoCFld=F I1PDM=0.
 Calling FoFJK, ICntrl=      2127 FMM=F ISym2X=0 I1Cent= 0 IOpClX= 0 NMat=1 NMatS=1 NMatT=0.
 ***** Axes restored to original set *****
 -------------------------------------------------------------------
 Center     Atomic                   Forces (Hartrees/Bohr)
 Number     Number              X              Y              Z
 -------------------------------------------------------------------
      1        7          -0.005211406    0.015934941   -0.001366797
      2        7          -0.017896527    0.074393181   -0.008607122
      3        6          -0.006343835    0.000212123    0.000050878
      4        6          -0.003488928   -0.004104957   -0.000261682
      5        7           0.002750171   -0.006800343   -0.000219028
      6        1          -0.001251043   -0.000320985    0.000174291
      7        1          -0.001147126   -0.000967387    0.000113698
      8        1           0.004909771    0.000066722    0.000131364
      9        6          -0.020479591    0.001683065   -0.003049825
     10        8           0.014704505   -0.063718511    0.008454357
     11        8           0.033454008   -0.016377849    0.004579865
 -------------------------------------------------------------------
 Cartesian Forces:  Max     0.074393181 RMS     0.019501879

 GradGradGradGradGradGradGradGradGradGradGradGradGradGradGradGradGradGrad
 Berny optimization.
 FormGI is forming the generalized inverse of G from B-inverse, IUseBI=4.
 Internal  Forces:  Max     0.073951283 RMS     0.016744707
 Search for a local minimum.
 Step number   1 out of a maximum of   65
 All quantities printed in internal units (Hartrees-Bohrs-Radians)
 Mixed Optimization -- RFO/linear search
 Second derivative matrix not updated -- first step.
 ITU=  0
     Eigenvalues ---    0.00780   0.01667   0.01787   0.02078   0.02156
     Eigenvalues ---    0.02351   0.02373   0.02534   0.05302   0.10278
     Eigenvalues ---    0.13582   0.16000   0.16000   0.18677   0.22560
     Eigenvalues ---    0.22626   0.23355   0.36157   0.36161   0.40635
     Eigenvalues ---    0.44631   0.50662   0.54989   0.59321   0.61000
     Eigenvalues ---    1.20174   1.25981
 RFO step:  Lambda=-7.06382010D-02 EMin= 7.79950144D-03
 Linear search not attempted -- first point.
 Maximum step size (   0.300) exceeded in Quadratic search.
    -- Step size scaled by   0.499
 Iteration  1 RMS(Cart)=  0.06741882 RMS(Int)=  0.00341814
 Iteration  2 RMS(Cart)=  0.00303813 RMS(Int)=  0.00002449
 Iteration  3 RMS(Cart)=  0.00000543 RMS(Int)=  0.00002421
 Iteration  4 RMS(Cart)=  0.00000000 RMS(Int)=  0.00002421
 Variable       Old X    -DE/DX   Delta X   Delta X   Delta X     New X
                                 (Linear)    (Quad)   (Total)
    R1        2.49133  -0.00217   0.00000  -0.00261  -0.00263   2.48870
    R2        2.49112  -0.00367   0.00000  -0.00253  -0.00254   2.48858
    R3        1.90693   0.01002   0.00000   0.01412   0.01409   1.92102
    R4        2.51410   0.00377   0.00000   0.00219   0.00220   2.51630
    R5        3.78677   0.06545   0.00000   0.18696   0.18697   3.97374
    R6        2.65714  -0.00529   0.00000  -0.00464  -0.00464   2.65249
    R7        2.03837   0.00116   0.00000   0.00134   0.00134   2.03971
    R8        2.51418   0.00606   0.00000   0.00542   0.00541   2.51959
    R9        2.03831   0.00024   0.00000   0.00028   0.00028   2.03859
   R10        3.91454   0.01371   0.00000   0.08477   0.08477   3.99931
   R11        2.19737   0.02419   0.00000   0.00907   0.00907   2.20643
   R12        2.19736   0.02117   0.00000   0.00718   0.00721   2.20457
    A1        2.03800  -0.00480   0.00000  -0.01146  -0.01144   2.02656
    A2        2.12268  -0.00370   0.00000  -0.00583  -0.00589   2.11679
    A3        2.12251   0.00850   0.00000   0.01729   0.01733   2.13984
    A4        1.80176   0.00543   0.00000   0.01243   0.01244   1.81420
    A5        1.89183  -0.00016   0.00000  -0.01228  -0.01231   1.87952
    A6        2.57165  -0.00538   0.00000  -0.00028  -0.00026   2.57139
    A7        1.89159  -0.00319   0.00000  -0.00740  -0.00740   1.88419
    A8        2.11347   0.00216   0.00000   0.00493   0.00493   2.11841
    A9        2.27812   0.00102   0.00000   0.00247   0.00247   2.28059
   A10        1.89172  -0.00061   0.00000   0.00023   0.00023   1.89195
   A11        2.27816  -0.00122   0.00000  -0.00341  -0.00340   2.27475
   A12        2.11331   0.00183   0.00000   0.00317   0.00318   2.11649
   A13        1.80170   0.00317   0.00000   0.00619   0.00617   1.80788
   A14        1.82610   0.01177   0.00000   0.03195   0.03187   1.85797
   A15        1.48378   0.07395   0.00000   0.15570   0.15567   1.63945
   A16        1.65781  -0.01312   0.00000  -0.01026  -0.01019   1.64762
   A17        1.91507   0.00518   0.00000  -0.00334  -0.00326   1.91181
   A18        3.14159   0.06083   0.00000   0.14544   0.14548   3.28707
   A19        3.14159  -0.00002   0.00000  -0.00272  -0.00270   3.13889
    D1       -0.00017  -0.00078   0.00000  -0.00168  -0.00169  -0.00186
    D2       -2.99786   0.00035   0.00000  -0.00122  -0.00122  -2.99908
    D3       -3.14156  -0.00138   0.00000  -0.00262  -0.00263   3.13899
    D4        0.14393  -0.00025   0.00000  -0.00216  -0.00216   0.14177
    D5        0.00001   0.00055   0.00000   0.00092   0.00092   0.00093
    D6        3.14140   0.00115   0.00000   0.00185   0.00187  -3.13991
    D7       -0.15147  -0.00075   0.00000  -0.00026  -0.00027  -0.15174
    D8        2.99034  -0.00138   0.00000  -0.00125  -0.00127   2.98907
    D9        0.00024   0.00065   0.00000   0.00167   0.00168   0.00192
   D10       -3.14151   0.00024   0.00000   0.00130   0.00131  -3.14020
   D11        2.88690   0.00079   0.00000  -0.00011  -0.00011   2.88679
   D12       -0.25485   0.00038   0.00000  -0.00048  -0.00048  -0.25534
   D13        3.10977  -0.00066   0.00000  -0.00409  -0.00410   3.10568
   D14       -0.03182  -0.00064   0.00000  -0.00138  -0.00139  -0.03321
   D15        0.22986  -0.00116   0.00000  -0.00414  -0.00414   0.22572
   D16       -2.91173  -0.00114   0.00000  -0.00142  -0.00144  -2.91317
   D17       -0.00025  -0.00037   0.00000  -0.00125  -0.00125  -0.00150
   D18        3.14149  -0.00024   0.00000  -0.00014  -0.00014   3.14135
   D19        3.14152   0.00009   0.00000  -0.00083  -0.00082   3.14070
   D20        0.00008   0.00022   0.00000   0.00028   0.00028   0.00036
   D21        0.00014  -0.00009   0.00000   0.00024   0.00024   0.00038
   D22       -3.14159  -0.00020   0.00000  -0.00075  -0.00075   3.14085
   D23        0.11894   0.00024   0.00000  -0.00179  -0.00179   0.11715
   D24       -0.03020   0.00035   0.00000   0.00233   0.00230  -0.02790
         Item               Value     Threshold  Converged?
 Maximum Force            0.073951     0.000450     NO 
 RMS     Force            0.016745     0.000300     NO 
 Maximum Displacement     0.345444     0.001800     NO 
 RMS     Displacement     0.067649     0.001200     NO 
 Predicted change in Energy=-2.962817D-02
 GradGradGradGradGradGradGradGradGradGradGradGradGradGradGradGradGradGrad

                          Input orientation:                          
 ---------------------------------------------------------------------
 Center     Atomic      Atomic             Coordinates (Angstroms)
 Number     Number       Type             X           Y           Z
 ---------------------------------------------------------------------
      1          7           0        1.029256    0.023567   -0.001990
      2          7           0        0.320194   -1.086199   -0.008108
      3          6           0       -0.941605   -0.660838   -0.007027
      4          6           0       -0.925116    0.742698   -0.002586
      5          7           0        0.344882    1.148667    0.000860
      6          1           0       -1.768512   -1.354564   -0.009888
      7          1           0       -1.739193    1.450532   -0.000718
      8          1           0        2.045550    0.000624    0.000990
      9          6           0        1.646622   -2.693458    0.273197
     10          8           0        0.799999   -3.497509    0.269975
     11          8           0        2.598655   -2.019835    0.302207
 ---------------------------------------------------------------------
                    Distance matrix (angstroms):
                    1          2          3          4          5
     1  N    0.000000
     2  N    1.316961   0.000000
     3  C    2.086320   1.331567   0.000000
     4  C    2.082479   2.212620   1.403640   0.000000
     5  N    1.316901   2.235021   2.220230   1.333311   0.000000
     6  H    3.118784   2.105877   1.079370   2.260504   3.276082
     7  H    3.114570   3.267436   2.257005   1.078775   2.105824
     8  H    1.016558   2.039148   3.059525   3.061951   2.051896
     9  C    2.799839   2.102814   3.302876   4.300821   4.065787
    10  O    3.538997   2.474259   3.340152   4.585811   4.676164
    11  O    2.594425   2.481806   3.804726   4.487923   3.899963
                    6          7          8          9         10
     6  H    0.000000
     7  H    2.805264   0.000000
     8  H    4.047682   4.052964   0.000000
     9  C    3.679119   5.358305   2.737028   0.000000
    10  O    3.356753   5.568113   3.722995   1.167595   0.000000
    11  O    4.428560   5.563465   2.116345   1.166609   2.328030
                   11
    11  O    0.000000
 Stoichiometry    C3H3N3O2
 Framework group  C1[X(C3H3N3O2)]
 Deg. of freedom    27
 Full point group                 C1      NOp   1
 Largest Abelian subgroup         C1      NOp   1
 Largest concise Abelian subgroup C1      NOp   1
                         Standard orientation:                         
 ---------------------------------------------------------------------
 Center     Atomic      Atomic             Coordinates (Angstroms)
 Number     Number       Type             X           Y           Z
 ---------------------------------------------------------------------
      1          7           0       -0.695169   -0.879855    0.066537
      2          7           0       -0.106426    0.297642    0.102163
      3          6           0       -1.114706    1.163263    0.017657
      4          6           0       -2.308709    0.430020   -0.065504
      5          7           0       -2.008313   -0.868584   -0.032221
      6          1           0       -0.942378    2.228782    0.020926
      7          1           0       -3.330538    0.766448   -0.145744
      8          1           0       -0.156712   -1.740858    0.112652
      9          6           0        1.968183   -0.021206   -0.024960
     10          8           0        2.224966    1.117767   -0.016008
     11          8           0        1.878831   -1.184174   -0.047285
 ---------------------------------------------------------------------
 Rotational constants (GHZ):           5.4670934           1.5006407           1.1794181
 Standard basis: 6-31+G(d,p) (6D, 7F)
 There are   167 symmetry adapted cartesian basis functions of A   symmetry.
 There are   167 symmetry adapted basis functions of A   symmetry.
   167 basis functions,   277 primitive gaussians,   167 cartesian basis functions
    29 alpha electrons       29 beta electrons
       nuclear repulsion energy       350.8058367724 Hartrees.
 NAtoms=   11 NActive=   11 NUniq=   11 SFac= 1.00D+00 NAtFMM=   60 NAOKFM=F Big=F
 Integral buffers will be    131072 words long.
 Raffenetti 2 integral format.
 Two-electron integral symmetry is turned on.
 ------------------------------------------------------------------------------
 Polarizable Continuum Model (PCM)
 =================================
 Model                : PCM.
 Atomic radii         : SMD-Coulomb.
 Polarization charges : Total charges.
 Charge compensation  : None.
 Solution method      : On-the-fly selection.
 Cavity type          : VdW (van der Waals Surface) (Alpha=1.000).
 Cavity algorithm     : GePol (No added spheres)
                        Default sphere list used, NSphG=   11.
                        Lebedev-Laikov grids with approx.  5.0 points / Ang**2.
                        Smoothing algorithm: York/Karplus (Gamma=1.0000).
                        Polarization charges: spherical gaussians, with
                                              point-specific exponents (IZeta= 3).
                        Self-potential: point-specific (ISelfS= 7).
                        Self-field    : sphere-specific E.n sum rule (ISelfD= 2).
 1st derivatives      : Analytical E(r).r(x)/FMM algorithm (CHGder, D1EAlg=3).
                        Cavity 1st derivative terms included.
 Solvent              : Water, Eps=  78.355300 Eps(inf)=   1.777849
 ------------------------------------------------------------------------------
 Spheres list:
 ISph  on   Nord     Re0    Alpha      Xe            Ye            Ze
    1   N      1    1.8900  1.000     -0.695169     -0.879855      0.066537
    2   N      2    1.8900  1.000     -0.106426      0.297642      0.102163
    3   C      3    1.8500  1.000     -1.114706      1.163263      0.017657
    4   C      4    1.8500  1.000     -2.308709      0.430020     -0.065504
    5   N      5    1.8900  1.000     -2.008313     -0.868584     -0.032221
    6   H      6    1.2000  1.000     -0.942378      2.228782      0.020926
    7   H      7    1.2000  1.000     -3.330538      0.766448     -0.145744
    8   H      8    1.2000  1.000     -0.156712     -1.740858      0.112652
    9   C      9    1.8500  1.000      1.968183     -0.021206     -0.024960
   10   O     10    1.5200  1.000      2.224966      1.117767     -0.016008
   11   O     11    1.5200  1.000      1.878831     -1.184174     -0.047285
 ------------------------------------------------------------------------------
 ------------------------------------------------------------------------------
 Atomic radii for non-electrostatic terms: SMD-CDS.
 ------------------------------------------------------------------------------
 Nuclear repulsion after PCM non-electrostatic terms =      350.8146697542 Hartrees.
 One-electron integrals computed using PRISM.
 NBasis=   167 RedAO= T EigKep=  3.34D-05  NBF=   167
 NBsUse=   167 1.00D-06 EigRej= -1.00D+00 NBFU=   167
 Initial guess from the checkpoint file:  "/scratch/gongke2021/RC/Gau-22831.chk"
 B after Tr=     0.000000   -0.000000    0.000000
         Rot=    0.999968    0.000291    0.000439    0.007971 Ang=   0.92 deg.
 ExpMin= 4.38D-02 ExpMax= 5.48D+03 ExpMxC= 8.25D+02 IAcc=2 IRadAn=         4 AccDes= 0.00D+00
 Harris functional with IExCor= 1009 and IRadAn=       4 diagonalized for initial guess.
 HarFok:  IExCor= 1009 AccDes= 0.00D+00 IRadAn=         4 IDoV= 1 UseB2=F ITyADJ=14
 ICtDFT=  3500011 ScaDFX=  1.000000  1.000000  1.000000  1.000000
 FoFCou: FMM=F IPFlag=           0 FMFlag=      100000 FMFlg1=           0
         NFxFlg=           0 DoJE=T BraDBF=F KetDBF=T FulRan=T
         wScrn=  0.000000 ICntrl=       500 IOpCl=  0 I1Cent=   200000004 NGrid=           0
         NMat0=    1 NMatS0=      1 NMatT0=    0 NMatD0=    1 NMtDS0=    0 NMtDT0=    0
 Petite list used in FoFCou.
 Keep R1 ints in memory in canonical form, NReq=122219251.
 Requested convergence on RMS density matrix=1.00D-08 within 128 cycles.
 Requested convergence on MAX density matrix=1.00D-06.
 Requested convergence on             energy=1.00D-06.
 No special actions if energy rises.
 Inv3:  Mode=1 IEnd=     3244800.
 Iteration    1 A*A^-1 deviation from unit magnitude is 2.44D-15 for    189.
 Iteration    1 A*A^-1 deviation from orthogonality  is 2.00D-15 for    353      8.
 Iteration    1 A^-1*A deviation from unit magnitude is 2.66D-15 for    189.
 Iteration    1 A^-1*A deviation from orthogonality  is 1.36D-15 for    527    199.
 Error on total polarization charges =  0.03279
 SCF Done:  E(RM062X) =  -430.658619764     A.U. after   12 cycles
            NFock= 12  Conv=0.81D-08     -V/T= 2.0079
 SMD-CDS (non-electrostatic) energy       (kcal/mol) =       5.54
 (included in total energy above)
 D1PCM: PCM CHGder 1st derivatives, ID1Alg=3 FixD1E=F DoIter=F DoCFld=F I1PDM=0.
 Calling FoFJK, ICntrl=      2127 FMM=F ISym2X=0 I1Cent= 0 IOpClX= 0 NMat=1 NMatS=1 NMatT=0.
 ***** Axes restored to original set *****
 -------------------------------------------------------------------
 Center     Atomic                   Forces (Hartrees/Bohr)
 Number     Number              X              Y              Z
 -------------------------------------------------------------------
      1        7          -0.000461633    0.009324222   -0.000920816
      2        7          -0.011714785    0.032791114   -0.003466878
      3        6          -0.003470104    0.000577743   -0.000167507
      4        6          -0.001287624   -0.002419222   -0.000145065
      5        7           0.001420651   -0.004524197   -0.000288166
      6        1          -0.000382079    0.000024387    0.000107812
      7        1          -0.000540242   -0.000561039    0.000064333
      8        1          -0.001118731    0.001011172    0.000128685
      9        6          -0.010239733   -0.009180205   -0.000431714
     10        8           0.009596243   -0.019367797    0.003027377
     11        8           0.018198037   -0.007676179    0.002091938
 -------------------------------------------------------------------
 Cartesian Forces:  Max     0.032791114 RMS     0.008560350

 GradGradGradGradGradGradGradGradGradGradGradGradGradGradGradGradGradGrad
 Berny optimization.
 Using GEDIIS/GDIIS optimizer.
 FormGI is forming the generalized inverse of G from B-inverse, IUseBI=4.
 Internal  Forces:  Max     0.030691123 RMS     0.006628045
 Search for a local minimum.
 Step number   2 out of a maximum of   65
 All quantities printed in internal units (Hartrees-Bohrs-Radians)
 Mixed Optimization -- RFO/linear search
 Update second derivatives using D2CorX and points    1    2
 DE= -2.37D-02 DEPred=-2.96D-02 R= 7.99D-01
 TightC=F SS=  1.41D+00  RLast= 3.00D-01 DXNew= 5.0454D-01 9.0037D-01
 Trust test= 7.99D-01 RLast= 3.00D-01 DXMaxT set to 5.05D-01
 ITU=  1  0
 Use linear search instead of GDIIS.
     Eigenvalues ---    0.00766   0.01652   0.01784   0.02072   0.02157
     Eigenvalues ---    0.02352   0.02374   0.02527   0.05662   0.10237
     Eigenvalues ---    0.15999   0.16000   0.18608   0.18638   0.22582
     Eigenvalues ---    0.23292   0.29215   0.36160   0.36162   0.40685
     Eigenvalues ---    0.44725   0.50647   0.55029   0.59346   0.61020
     Eigenvalues ---    1.19968   1.26378
 RFO step:  Lambda=-1.42289550D-02 EMin= 7.65516691D-03
 Quartic linear search produced a step of  1.68056.
 Iteration  1 RMS(Cart)=  0.07147613 RMS(Int)=  0.05416994
 Iteration  2 RMS(Cart)=  0.04045287 RMS(Int)=  0.01612079
 Iteration  3 RMS(Cart)=  0.01936380 RMS(Int)=  0.00077533
 Iteration  4 RMS(Cart)=  0.00004084 RMS(Int)=  0.00077482
 Iteration  5 RMS(Cart)=  0.00000002 RMS(Int)=  0.00077482
 Variable       Old X    -DE/DX   Delta X   Delta X   Delta X     New X
                                 (Linear)    (Quad)   (Total)
    R1        2.48870  -0.00086  -0.00443   0.00619   0.00055   2.48925
    R2        2.48858  -0.00286  -0.00426  -0.00318  -0.00750   2.48108
    R3        1.92102   0.00314   0.02367  -0.01434   0.00846   1.92947
    R4        2.51630   0.00178   0.00369  -0.00058   0.00304   2.51934
    R5        3.97374   0.03069   0.31422   0.19722   0.51149   4.48523
    R6        2.65249  -0.00324  -0.00780  -0.00309  -0.01074   2.64175
    R7        2.03971   0.00028   0.00226  -0.00240  -0.00014   2.03957
    R8        2.51959   0.00269   0.00910  -0.00477   0.00448   2.52408
    R9        2.03859   0.00004   0.00047  -0.00063  -0.00016   2.03843
   R10        3.99931   0.00867   0.14246   0.31307   0.45588   4.45520
   R11        2.20643   0.00637   0.01524  -0.01697  -0.00174   2.20470
   R12        2.20457   0.01157   0.01212  -0.00308   0.01013   2.21471
    A1        2.02656  -0.00260  -0.01922  -0.00409  -0.02281   2.00375
    A2        2.11679  -0.00165  -0.00990   0.01128  -0.00043   2.11635
    A3        2.13984   0.00426   0.02912  -0.00720   0.02323   2.16307
    A4        1.81420   0.00276   0.02090  -0.00037   0.02069   1.83489
    A5        1.87952  -0.00076  -0.02069   0.00723  -0.01472   1.86480
    A6        2.57139  -0.00202  -0.00043  -0.00544  -0.00480   2.56659
    A7        1.88419  -0.00181  -0.01244   0.00023  -0.01247   1.87173
    A8        2.11841   0.00117   0.00829   0.00018   0.00859   2.12700
    A9        2.28059   0.00064   0.00415  -0.00041   0.00387   2.28445
   A10        1.89195  -0.00017   0.00038   0.00058   0.00089   1.89284
   A11        2.27475  -0.00071  -0.00572  -0.00223  -0.00792   2.26684
   A12        2.11649   0.00088   0.00534   0.00165   0.00702   2.12350
   A13        1.80788   0.00182   0.01038   0.00364   0.01365   1.82153
   A14        1.85797   0.00697   0.05357   0.01299   0.06468   1.92265
   A15        1.63945   0.02499   0.26161  -0.10556   0.15519   1.79464
   A16        1.64762  -0.00392  -0.01713   0.03832   0.02292   1.67054
   A17        1.91181  -0.00062  -0.00547  -0.06666  -0.06941   1.84240
   A18        3.28707   0.02107   0.24448  -0.06723   0.17811   3.46518
   A19        3.13889   0.00013  -0.00454  -0.00473  -0.00881   3.13008
    D1       -0.00186  -0.00038  -0.00284  -0.00392  -0.00681  -0.00867
    D2       -2.99908  -0.00004  -0.00205  -0.00872  -0.01089  -3.00997
    D3        3.13899  -0.00065  -0.00443  -0.00586  -0.01053   3.12846
    D4        0.14177  -0.00030  -0.00364  -0.01066  -0.01461   0.12716
    D5        0.00093   0.00028   0.00154   0.00333   0.00481   0.00574
    D6       -3.13991   0.00055   0.00314   0.00529   0.00866  -3.13125
    D7       -0.15174  -0.00029  -0.00045   0.01958   0.01948  -0.13226
    D8        2.98907  -0.00058  -0.00214   0.01751   0.01538   3.00445
    D9        0.00192   0.00031   0.00283   0.00274   0.00573   0.00765
   D10       -3.14020   0.00011   0.00220   0.00017   0.00252  -3.13768
   D11        2.88679   0.00046  -0.00018   0.01425   0.01382   2.90061
   D12       -0.25534   0.00025  -0.00081   0.01169   0.01061  -0.24472
   D13        3.10568  -0.00014  -0.00689  -0.01431  -0.02160   3.08408
   D14       -0.03321  -0.00026  -0.00234  -0.00958  -0.01279  -0.04600
   D15        0.22572  -0.00053  -0.00696  -0.02540  -0.03242   0.19330
   D16       -2.91317  -0.00066  -0.00242  -0.02068  -0.02360  -2.93677
   D17       -0.00150  -0.00016  -0.00210  -0.00093  -0.00312  -0.00461
   D18        3.14135  -0.00012  -0.00024  -0.00026  -0.00052   3.14083
   D19        3.14070   0.00007  -0.00138   0.00195   0.00048   3.14118
   D20        0.00036   0.00011   0.00048   0.00262   0.00308   0.00344
   D21        0.00038  -0.00006   0.00040  -0.00130  -0.00085  -0.00047
   D22        3.14085  -0.00010  -0.00126  -0.00190  -0.00320   3.13765
   D23        0.11715  -0.00008  -0.00301  -0.03037  -0.03321   0.08395
   D24       -0.02790   0.00029   0.00387   0.01816   0.02009  -0.00781
         Item               Value     Threshold  Converged?
 Maximum Force            0.030691     0.000450     NO 
 RMS     Force            0.006628     0.000300     NO 
 Maximum Displacement     0.480438     0.001800     NO 
 RMS     Displacement     0.127544     0.001200     NO 
 Predicted change in Energy=-6.591234D-03
 GradGradGradGradGradGradGradGradGradGradGradGradGradGradGradGradGradGrad

                          Input orientation:                          
 ---------------------------------------------------------------------
 Center     Atomic      Atomic             Coordinates (Angstroms)
 Number     Number       Type             X           Y           Z
 ---------------------------------------------------------------------
      1          7           0        0.987598    0.085919   -0.003889
      2          7           0        0.253169   -1.007475   -0.020129
      3          6           0       -1.009213   -0.578811   -0.018824
      4          6           0       -0.972281    0.818636   -0.011226
      5          7           0        0.305444    1.207724   -0.002244
      6          1           0       -1.843501   -1.263486   -0.026633
      7          1           0       -1.781492    1.531900   -0.008646
      8          1           0        2.007451    0.038957    0.010308
      9          6           0        1.735905   -2.836491    0.279220
     10          8           0        1.013490   -3.751746    0.318669
     11          8           0        2.714162   -2.191442    0.300306
 ---------------------------------------------------------------------
                    Distance matrix (angstroms):
                    1          2          3          4          5
     1  N    0.000000
     2  N    1.317255   0.000000
     3  C    2.104600   1.333178   0.000000
     4  C    2.092380   2.199202   1.397956   0.000000
     5  N    1.312929   2.215888   2.218176   1.335683   0.000000
     6  H    3.136325   2.112252   1.079295   2.257099   3.274971
     7  H    3.123898   3.253983   2.247581   1.078691   2.111973
     8  H    1.021032   2.042903   3.079406   3.080124   2.064704
     9  C    3.029949   2.373481   3.566738   4.558353   4.298967
    10  O    3.851284   2.867733   3.777928   4.994047   5.020025
    11  O    2.874010   2.749717   4.070128   4.769433   4.177056
                    6          7          8          9         10
     6  H    0.000000
     7  H    2.796131   0.000000
     8  H    4.065409   4.072508   0.000000
     9  C    3.921739   5.615851   2.900733   0.000000
    10  O    3.804348   5.986315   3.930964   1.166676   0.000000
    11  O    4.662648   5.845480   2.357588   1.171972   2.308067
                   11
    11  O    0.000000
 Stoichiometry    C3H3N3O2
 Framework group  C1[X(C3H3N3O2)]
 Deg. of freedom    27
 Full point group                 C1      NOp   1
 Largest Abelian subgroup         C1      NOp   1
 Largest concise Abelian subgroup C1      NOp   1
                         Standard orientation:                         
 ---------------------------------------------------------------------
 Center     Atomic      Atomic             Coordinates (Angstroms)
 Number     Number       Type             X           Y           Z
 ---------------------------------------------------------------------
      1          7           0       -0.800538   -0.878019    0.057509
      2          7           0       -0.248142    0.316772    0.107459
      3          6           0       -1.265560    1.174300    0.024584
      4          6           0       -2.438138    0.418551   -0.065882
      5          7           0       -2.109685   -0.875899   -0.042048
      6          1           0       -1.112790    2.242656    0.037005
      7          1           0       -3.464278    0.741024   -0.147263
      8          1           0       -0.232833   -1.726008    0.091148
      9          6           0        2.100162   -0.005513   -0.015072
     10          8           0        2.510936    1.086341   -0.030899
     11          8           0        2.056524   -1.176551   -0.031989
 ---------------------------------------------------------------------
 Rotational constants (GHZ):           5.5227776           1.2705528           1.0344324
 Standard basis: 6-31+G(d,p) (6D, 7F)
 There are   167 symmetry adapted cartesian basis functions of A   symmetry.
 There are   167 symmetry adapted basis functions of A   symmetry.
   167 basis functions,   277 primitive gaussians,   167 cartesian basis functions
    29 alpha electrons       29 beta electrons
       nuclear repulsion energy       339.7693803632 Hartrees.
 NAtoms=   11 NActive=   11 NUniq=   11 SFac= 1.00D+00 NAtFMM=   60 NAOKFM=F Big=F
 Integral buffers will be    131072 words long.
 Raffenetti 2 integral format.
 Two-electron integral symmetry is turned on.
 ------------------------------------------------------------------------------
 Polarizable Continuum Model (PCM)
 =================================
 Model                : PCM.
 Atomic radii         : SMD-Coulomb.
 Polarization charges : Total charges.
 Charge compensation  : None.
 Solution method      : On-the-fly selection.
 Cavity type          : VdW (van der Waals Surface) (Alpha=1.000).
 Cavity algorithm     : GePol (No added spheres)
                        Default sphere list used, NSphG=   11.
                        Lebedev-Laikov grids with approx.  5.0 points / Ang**2.
                        Smoothing algorithm: York/Karplus (Gamma=1.0000).
                        Polarization charges: spherical gaussians, with
                                              point-specific exponents (IZeta= 3).
                        Self-potential: point-specific (ISelfS= 7).
                        Self-field    : sphere-specific E.n sum rule (ISelfD= 2).
 1st derivatives      : Analytical E(r).r(x)/FMM algorithm (CHGder, D1EAlg=3).
                        Cavity 1st derivative terms included.
 Solvent              : Water, Eps=  78.355300 Eps(inf)=   1.777849
 ------------------------------------------------------------------------------
 Spheres list:
 ISph  on   Nord     Re0    Alpha      Xe            Ye            Ze
    1   N      1    1.8900  1.000     -0.800538     -0.878019      0.057509
    2   N      2    1.8900  1.000     -0.248142      0.316772      0.107459
    3   C      3    1.8500  1.000     -1.265560      1.174300      0.024584
    4   C      4    1.8500  1.000     -2.438138      0.418551     -0.065882
    5   N      5    1.8900  1.000     -2.109685     -0.875899     -0.042048
    6   H      6    1.2000  1.000     -1.112790      2.242656      0.037005
    7   H      7    1.2000  1.000     -3.464278      0.741024     -0.147263
    8   H      8    1.2000  1.000     -0.232833     -1.726008      0.091148
    9   C      9    1.8500  1.000      2.100162     -0.005513     -0.015072
   10   O     10    1.5200  1.000      2.510936      1.086341     -0.030899
   11   O     11    1.5200  1.000      2.056524     -1.176551     -0.031989
 ------------------------------------------------------------------------------
 ------------------------------------------------------------------------------
 Atomic radii for non-electrostatic terms: SMD-CDS.
 ------------------------------------------------------------------------------
 Nuclear repulsion after PCM non-electrostatic terms =      339.7783042910 Hartrees.
 One-electron integrals computed using PRISM.
 NBasis=   167 RedAO= T EigKep=  3.89D-05  NBF=   167
 NBsUse=   167 1.00D-06 EigRej= -1.00D+00 NBFU=   167
 Initial guess from the checkpoint file:  "/scratch/gongke2021/RC/Gau-22831.chk"
 B after Tr=    -0.000000    0.000000   -0.000000
         Rot=    0.999999    0.000595    0.001112    0.000242 Ang=   0.15 deg.
 ExpMin= 4.38D-02 ExpMax= 5.48D+03 ExpMxC= 8.25D+02 IAcc=2 IRadAn=         4 AccDes= 0.00D+00
 Harris functional with IExCor= 1009 and IRadAn=       4 diagonalized for initial guess.
 HarFok:  IExCor= 1009 AccDes= 0.00D+00 IRadAn=         4 IDoV= 1 UseB2=F ITyADJ=14
 ICtDFT=  3500011 ScaDFX=  1.000000  1.000000  1.000000  1.000000
 FoFCou: FMM=F IPFlag=           0 FMFlag=      100000 FMFlg1=           0
         NFxFlg=           0 DoJE=T BraDBF=F KetDBF=T FulRan=T
         wScrn=  0.000000 ICntrl=       500 IOpCl=  0 I1Cent=   200000004 NGrid=           0
         NMat0=    1 NMatS0=      1 NMatT0=    0 NMatD0=    1 NMtDS0=    0 NMtDT0=    0
 Petite list used in FoFCou.
 Keep R1 ints in memory in canonical form, NReq=122219251.
 Requested convergence on RMS density matrix=1.00D-08 within 128 cycles.
 Requested convergence on MAX density matrix=1.00D-06.
 Requested convergence on             energy=1.00D-06.
 No special actions if energy rises.
 Inv3:  Mode=1 IEnd=     3434700.
 Iteration    1 A*A^-1 deviation from unit magnitude is 2.66D-15 for     22.
 Iteration    1 A*A^-1 deviation from orthogonality  is 1.33D-15 for    646     70.
 Iteration    1 A^-1*A deviation from unit magnitude is 2.66D-15 for     22.
 Iteration    1 A^-1*A deviation from orthogonality  is 1.83D-15 for    962    714.
 Error on total polarization charges =  0.03296
 SCF Done:  E(RM062X) =  -430.668533031     A.U. after   13 cycles
            NFock= 13  Conv=0.48D-08     -V/T= 2.0083
 SMD-CDS (non-electrostatic) energy       (kcal/mol) =       5.60
 (included in total energy above)
 D1PCM: PCM CHGder 1st derivatives, ID1Alg=3 FixD1E=F DoIter=F DoCFld=F I1PDM=0.
 Calling FoFJK, ICntrl=      2127 FMM=F ISym2X=0 I1Cent= 0 IOpClX= 0 NMat=1 NMatS=1 NMatT=0.
 ***** Axes restored to original set *****
 -------------------------------------------------------------------
 Center     Atomic                   Forces (Hartrees/Bohr)
 Number     Number              X              Y              Z
 -------------------------------------------------------------------
      1        7          -0.005659116   -0.002514012   -0.000962452
      2        7           0.000828261   -0.004202379    0.001002562
      3        6           0.004169189    0.001201709   -0.000813732
      4        6           0.000960242    0.001509514    0.000147559
      5        7           0.000546996    0.006434323    0.000531966
      6        1           0.000374028   -0.000180456   -0.000034641
      7        1           0.000456441    0.000598953   -0.000088714
      8        1          -0.004173995    0.001907614   -0.000237264
      9        6           0.025731287   -0.023765462    0.005867045
     10        8          -0.013275054    0.007464634   -0.002559904
     11        8          -0.009958278    0.011545562   -0.002852424
 -------------------------------------------------------------------
 Cartesian Forces:  Max     0.025731287 RMS     0.007559073

 GradGradGradGradGradGradGradGradGradGradGradGradGradGradGradGradGradGrad
 Berny optimization.
 Using GEDIIS/GDIIS optimizer.
 FormGI is forming the generalized inverse of G from B-inverse, IUseBI=4.
 Internal  Forces:  Max     0.020773755 RMS     0.004140018
 Search for a local minimum.
 Step number   3 out of a maximum of   65
 All quantities printed in internal units (Hartrees-Bohrs-Radians)
 Mixed Optimization -- RFO/linear search
 Update second derivatives using D2CorX and points    2    3
 DE= -9.91D-03 DEPred=-6.59D-03 R= 1.50D+00
 TightC=F SS=  1.41D+00  RLast= 7.37D-01 DXNew= 8.4853D-01 2.2103D+00
 Trust test= 1.50D+00 RLast= 7.37D-01 DXMaxT set to 8.49D-01
 ITU=  1  1  0
 Use linear search instead of GDIIS.
     Eigenvalues ---    0.00694   0.01626   0.01759   0.02064   0.02158
     Eigenvalues ---    0.02354   0.02376   0.02509   0.03232   0.08760
     Eigenvalues ---    0.15997   0.16000   0.18525   0.18872   0.22630
     Eigenvalues ---    0.23743   0.26592   0.36160   0.36161   0.40868
     Eigenvalues ---    0.45022   0.50768   0.55365   0.59522   0.61110
     Eigenvalues ---    1.21160   1.26300
 RFO step:  Lambda=-3.46186108D-03 EMin= 6.94408730D-03
 Quartic linear search produced a step of -0.18403.
 Iteration  1 RMS(Cart)=  0.01598214 RMS(Int)=  0.00064238
 Iteration  2 RMS(Cart)=  0.00066150 RMS(Int)=  0.00006383
 Iteration  3 RMS(Cart)=  0.00000013 RMS(Int)=  0.00006383
 Variable       Old X    -DE/DX   Delta X   Delta X   Delta X     New X
                                 (Linear)    (Quad)   (Total)
    R1        2.48925  -0.00107  -0.00010  -0.00244  -0.00247   2.48678
    R2        2.48108   0.00254   0.00138   0.00155   0.00295   2.48402
    R3        1.92947  -0.00524  -0.00156  -0.00689  -0.00840   1.92107
    R4        2.51934  -0.00123  -0.00056  -0.00078  -0.00134   2.51800
    R5        4.48523   0.00508  -0.09413   0.16117   0.06703   4.55226
    R6        2.64175   0.00325   0.00198   0.00356   0.00551   2.64726
    R7        2.03957  -0.00018   0.00003  -0.00015  -0.00013   2.03944
    R8        2.52408  -0.00271  -0.00083  -0.00193  -0.00277   2.52131
    R9        2.03843   0.00005   0.00003   0.00015   0.00018   2.03861
   R10        4.45520   0.00074  -0.08390   0.07420  -0.00971   4.44548
   R11        2.20470   0.00228   0.00032   0.00276   0.00308   2.20777
   R12        2.21471  -0.00052  -0.00187   0.00293   0.00101   2.21572
    A1        2.00375   0.00664   0.00420   0.01800   0.02218   2.02593
    A2        2.11635  -0.00275   0.00008  -0.01236  -0.01218   2.10417
    A3        2.16307  -0.00389  -0.00428  -0.00566  -0.01002   2.15305
    A4        1.83489  -0.00583  -0.00381  -0.01532  -0.01914   1.81575
    A5        1.86480   0.00440   0.00271   0.01297   0.01575   1.88055
    A6        2.56659   0.00149   0.00088   0.00376   0.00458   2.57117
    A7        1.87173   0.00319   0.00229   0.00796   0.01024   1.88197
    A8        2.12700  -0.00198  -0.00158  -0.00527  -0.00684   2.12015
    A9        2.28445  -0.00121  -0.00071  -0.00268  -0.00339   2.28106
   A10        1.89284   0.00018  -0.00016   0.00063   0.00044   1.89328
   A11        2.26684   0.00068   0.00146   0.00173   0.00320   2.27004
   A12        2.12350  -0.00086  -0.00129  -0.00235  -0.00363   2.11987
   A13        1.82153  -0.00418  -0.00251  -0.01119  -0.01368   1.80785
   A14        1.92265   0.00017  -0.01190   0.01312   0.00135   1.92400
   A15        1.79464  -0.01286  -0.02856  -0.02525  -0.05377   1.74087
   A16        1.67054  -0.00791  -0.00422  -0.04804  -0.05234   1.61820
   A17        1.84240   0.00610   0.01277   0.03443   0.04709   1.88949
   A18        3.46518  -0.02077  -0.03278  -0.07329  -0.10611   3.35907
   A19        3.13008   0.00072   0.00162   0.02257   0.02413   3.15421
    D1       -0.00867   0.00055   0.00125   0.01009   0.01136   0.00269
    D2       -3.00997   0.00011   0.00200   0.00382   0.00590  -3.00407
    D3        3.12846   0.00053   0.00194   0.00611   0.00804   3.13650
    D4        0.12716   0.00008   0.00269  -0.00016   0.00258   0.12973
    D5        0.00574  -0.00038  -0.00089  -0.00752  -0.00845  -0.00271
    D6       -3.13125  -0.00036  -0.00159  -0.00340  -0.00502  -3.13628
    D7       -0.13226   0.00035  -0.00358   0.00170  -0.00191  -0.13417
    D8        3.00445   0.00034  -0.00283  -0.00259  -0.00540   2.99905
    D9        0.00765  -0.00048  -0.00105  -0.00812  -0.00912  -0.00147
   D10       -3.13768  -0.00032  -0.00046  -0.00579  -0.00621   3.13929
   D11        2.90061   0.00007  -0.00254   0.00267   0.00016   2.90077
   D12       -0.24472   0.00023  -0.00195   0.00500   0.00306  -0.24166
   D13        3.08408   0.00040   0.00398   0.01911   0.02315   3.10723
   D14       -0.04600  -0.00032   0.00235  -0.00346  -0.00098  -0.04698
   D15        0.19330   0.00059   0.00597   0.01029   0.01624   0.20955
   D16       -2.93677  -0.00013   0.00434  -0.01228  -0.00789  -2.94466
   D17       -0.00461   0.00024   0.00057   0.00395   0.00456  -0.00005
   D18        3.14083   0.00010   0.00010   0.00139   0.00148  -3.14088
   D19        3.14118   0.00006  -0.00009   0.00134   0.00130  -3.14070
   D20        0.00344  -0.00007  -0.00057  -0.00122  -0.00179   0.00165
   D21       -0.00047   0.00008   0.00016   0.00191   0.00202   0.00155
   D22        3.13765   0.00021   0.00059   0.00422   0.00480  -3.14073
   D23        0.08395  -0.00014   0.00611  -0.00309   0.00305   0.08699
   D24       -0.00781   0.00023  -0.00370   0.00283  -0.00057  -0.00838
         Item               Value     Threshold  Converged?
 Maximum Force            0.020774     0.000450     NO 
 RMS     Force            0.004140     0.000300     NO 
 Maximum Displacement     0.064690     0.001800     NO 
 RMS     Displacement     0.015854     0.001200     NO 
 Predicted change in Energy=-2.335990D-03
 GradGradGradGradGradGradGradGradGradGradGradGradGradGradGradGradGradGrad

                          Input orientation:                          
 ---------------------------------------------------------------------
 Center     Atomic      Atomic             Coordinates (Angstroms)
 Number     Number       Type             X           Y           Z
 ---------------------------------------------------------------------
      1          7           0        0.977642    0.089211   -0.006505
      2          7           0        0.259418   -1.013435   -0.013741
      3          6           0       -1.000112   -0.578641   -0.017620
      4          6           0       -0.970411    0.821895   -0.010325
      5          7           0        0.303698    1.217777   -0.002068
      6          1           0       -1.833090   -1.264797   -0.025927
      7          1           0       -1.781124    1.533596   -0.010029
      8          1           0        1.993208    0.044512    0.002219
      9          6           0        1.762295   -2.870723    0.294307
     10          8           0        0.991808   -3.748884    0.305041
     11          8           0        2.707400   -2.176825    0.301559
 ---------------------------------------------------------------------
                    Distance matrix (angstroms):
                    1          2          3          4          5
     1  N    0.000000
     2  N    1.315950   0.000000
     3  C    2.087501   1.332470   0.000000
     4  C    2.081285   2.209282   1.400870   0.000000
     5  N    1.314489   2.231681   2.219747   1.334220   0.000000
     6  H    3.119924   2.107586   1.079227   2.258039   3.275607
     7  H    3.114008   3.263616   2.252018   1.078784   2.108622
     8  H    1.016587   2.031141   3.057561   3.063906   2.056943
     9  C    3.076910   2.408953   3.603031   4.603901   4.350997
    10  O    3.850744   2.849684   3.757964   4.984152   5.023498
    11  O    2.867383   2.728646   4.049903   4.755616   4.170527
                    6          7          8          9         10
     6  H    0.000000
     7  H    2.798920   0.000000
     8  H    4.044211   4.057475   0.000000
     9  C    3.950739   5.660960   2.938917   0.000000
    10  O    3.776278   5.974363   3.935017   1.168303   0.000000
    11  O    4.642746   5.831909   2.352448   1.172506   2.326938
                   11
    11  O    0.000000
 Stoichiometry    C3H3N3O2
 Framework group  C1[X(C3H3N3O2)]
 Deg. of freedom    27
 Full point group                 C1      NOp   1
 Largest Abelian subgroup         C1      NOp   1
 Largest concise Abelian subgroup C1      NOp   1
                         Standard orientation:                         
 ---------------------------------------------------------------------
 Center     Atomic      Atomic             Coordinates (Angstroms)
 Number     Number       Type             X           Y           Z
 ---------------------------------------------------------------------
      1          7           0       -0.811454   -0.868502    0.061932
      2          7           0       -0.237538    0.315037    0.101683
      3          6           0       -1.255841    1.170771    0.022587
      4          6           0       -2.437741    0.423991   -0.066135
      5          7           0       -2.121992   -0.872062   -0.039850
      6          1           0       -1.097043    2.238194    0.033566
      7          1           0       -3.462269    0.752379   -0.145360
      8          1           0       -0.251549   -1.716056    0.102044
      9          6           0        2.144604   -0.019315   -0.027386
     10          8           0        2.501068    1.093263   -0.021202
     11          8           0        2.036634   -1.186827   -0.032673
 ---------------------------------------------------------------------
 Rotational constants (GHZ):           5.5108462           1.2683116           1.0324749
 Standard basis: 6-31+G(d,p) (6D, 7F)
 There are   167 symmetry adapted cartesian basis functions of A   symmetry.
 There are   167 symmetry adapted basis functions of A   symmetry.
   167 basis functions,   277 primitive gaussians,   167 cartesian basis functions
    29 alpha electrons       29 beta electrons
       nuclear repulsion energy       339.5283529013 Hartrees.
 NAtoms=   11 NActive=   11 NUniq=   11 SFac= 1.00D+00 NAtFMM=   60 NAOKFM=F Big=F
 Integral buffers will be    131072 words long.
 Raffenetti 2 integral format.
 Two-electron integral symmetry is turned on.
 ------------------------------------------------------------------------------
 Polarizable Continuum Model (PCM)
 =================================
 Model                : PCM.
 Atomic radii         : SMD-Coulomb.
 Polarization charges : Total charges.
 Charge compensation  : None.
 Solution method      : On-the-fly selection.
 Cavity type          : VdW (van der Waals Surface) (Alpha=1.000).
 Cavity algorithm     : GePol (No added spheres)
                        Default sphere list used, NSphG=   11.
                        Lebedev-Laikov grids with approx.  5.0 points / Ang**2.
                        Smoothing algorithm: York/Karplus (Gamma=1.0000).
                        Polarization charges: spherical gaussians, with
                                              point-specific exponents (IZeta= 3).
                        Self-potential: point-specific (ISelfS= 7).
                        Self-field    : sphere-specific E.n sum rule (ISelfD= 2).
 1st derivatives      : Analytical E(r).r(x)/FMM algorithm (CHGder, D1EAlg=3).
                        Cavity 1st derivative terms included.
 Solvent              : Water, Eps=  78.355300 Eps(inf)=   1.777849
 ------------------------------------------------------------------------------
 Spheres list:
 ISph  on   Nord     Re0    Alpha      Xe            Ye            Ze
    1   N      1    1.8900  1.000     -0.811454     -0.868502      0.061932
    2   N      2    1.8900  1.000     -0.237538      0.315037      0.101683
    3   C      3    1.8500  1.000     -1.255841      1.170771      0.022587
    4   C      4    1.8500  1.000     -2.437741      0.423991     -0.066135
    5   N      5    1.8900  1.000     -2.121992     -0.872062     -0.039850
    6   H      6    1.2000  1.000     -1.097043      2.238194      0.033566
    7   H      7    1.2000  1.000     -3.462269      0.752379     -0.145360
    8   H      8    1.2000  1.000     -0.251549     -1.716056      0.102044
    9   C      9    1.8500  1.000      2.144604     -0.019315     -0.027386
   10   O     10    1.5200  1.000      2.501068      1.093263     -0.021202
   11   O     11    1.5200  1.000      2.036634     -1.186827     -0.032673
 ------------------------------------------------------------------------------
 ------------------------------------------------------------------------------
 Atomic radii for non-electrostatic terms: SMD-CDS.
 ------------------------------------------------------------------------------
 Nuclear repulsion after PCM non-electrostatic terms =      339.5373186646 Hartrees.
 One-electron integrals computed using PRISM.
 NBasis=   167 RedAO= T EigKep=  3.90D-05  NBF=   167
 NBsUse=   167 1.00D-06 EigRej= -1.00D+00 NBFU=   167
 Initial guess from the checkpoint file:  "/scratch/gongke2021/RC/Gau-22831.chk"
 B after Tr=    -0.000000    0.000000   -0.000000
         Rot=    0.999999    0.000021   -0.000039    0.001576 Ang=   0.18 deg.
 ExpMin= 4.38D-02 ExpMax= 5.48D+03 ExpMxC= 8.25D+02 IAcc=2 IRadAn=         4 AccDes= 0.00D+00
 Harris functional with IExCor= 1009 and IRadAn=       4 diagonalized for initial guess.
 HarFok:  IExCor= 1009 AccDes= 0.00D+00 IRadAn=         4 IDoV= 1 UseB2=F ITyADJ=14
 ICtDFT=  3500011 ScaDFX=  1.000000  1.000000  1.000000  1.000000
 FoFCou: FMM=F IPFlag=           0 FMFlag=      100000 FMFlg1=           0
         NFxFlg=           0 DoJE=T BraDBF=F KetDBF=T FulRan=T
         wScrn=  0.000000 ICntrl=       500 IOpCl=  0 I1Cent=   200000004 NGrid=           0
         NMat0=    1 NMatS0=      1 NMatT0=    0 NMatD0=    1 NMtDS0=    0 NMtDT0=    0
 Petite list used in FoFCou.
 Keep R1 ints in memory in canonical form, NReq=122219251.
 Requested convergence on RMS density matrix=1.00D-08 within 128 cycles.
 Requested convergence on MAX density matrix=1.00D-06.
 Requested convergence on             energy=1.00D-06.
 No special actions if energy rises.
 Inv3:  Mode=1 IEnd=     3389907.
 Iteration    1 A*A^-1 deviation from unit magnitude is 2.44D-15 for    956.
 Iteration    1 A*A^-1 deviation from orthogonality  is 1.29D-15 for    591     79.
 Iteration    1 A^-1*A deviation from unit magnitude is 3.11D-15 for    956.
 Iteration    1 A^-1*A deviation from orthogonality  is 2.61D-15 for    954    705.
 Error on total polarization charges =  0.03284
 SCF Done:  E(RM062X) =  -430.671872138     A.U. after   11 cycles
            NFock= 11  Conv=0.99D-08     -V/T= 2.0083
 SMD-CDS (non-electrostatic) energy       (kcal/mol) =       5.63
 (included in total energy above)
 D1PCM: PCM CHGder 1st derivatives, ID1Alg=3 FixD1E=F DoIter=F DoCFld=F I1PDM=0.
 Calling FoFJK, ICntrl=      2127 FMM=F ISym2X=0 I1Cent= 0 IOpClX= 0 NMat=1 NMatS=1 NMatT=0.
 ***** Axes restored to original set *****
 -------------------------------------------------------------------
 Center     Atomic                   Forces (Hartrees/Bohr)
 Number     Number              X              Y              Z
 -------------------------------------------------------------------
      1        7           0.002956585   -0.001141087    0.000365051
      2        7          -0.004736868    0.004961486   -0.000944283
      3        6          -0.000813052    0.000911227    0.000003669
      4        6          -0.001279692   -0.000170120   -0.000071926
      5        7          -0.000136516   -0.000186309   -0.000387520
      6        1          -0.000239532    0.000190625    0.000130370
      7        1          -0.000009064    0.000046629    0.000022328
      8        1          -0.000518223    0.002174842    0.000107190
      9        6           0.017419968   -0.016821150    0.000662460
     10        8          -0.001021101    0.009886038    0.000112391
     11        8          -0.011622506    0.000147820    0.000000270
 -------------------------------------------------------------------
 Cartesian Forces:  Max     0.017419968 RMS     0.005185503

 GradGradGradGradGradGradGradGradGradGradGradGradGradGradGradGradGradGrad
 Berny optimization.
 Using GEDIIS/GDIIS optimizer.
 FormGI is forming the generalized inverse of G from B-inverse, IUseBI=4.
 Internal  Forces:  Max     0.009496782 RMS     0.002479021
 Search for a local minimum.
 Step number   4 out of a maximum of   65
 All quantities printed in internal units (Hartrees-Bohrs-Radians)
 Mixed Optimization -- RFO/linear search
 Update second derivatives using D2CorX and points    3    4
 DE= -3.34D-03 DEPred=-2.34D-03 R= 1.43D+00
 TightC=F SS=  1.41D+00  RLast= 1.66D-01 DXNew= 1.4270D+00 4.9829D-01
 Trust test= 1.43D+00 RLast= 1.66D-01 DXMaxT set to 8.49D-01
 ITU=  1  1  1  0
 Use linear search instead of GDIIS.
     Eigenvalues ---    0.00697   0.01619   0.01752   0.02072   0.02158
     Eigenvalues ---    0.02352   0.02374   0.02606   0.02870   0.05634
     Eigenvalues ---    0.14854   0.16000   0.16083   0.18605   0.22598
     Eigenvalues ---    0.24694   0.27908   0.36161   0.36162   0.41202
     Eigenvalues ---    0.45124   0.50858   0.55397   0.60326   0.61108
     Eigenvalues ---    1.22516   1.30753
 RFO step:  Lambda=-3.48478024D-03 EMin= 6.96858595D-03
 Quartic linear search produced a step of  0.84843.
 Iteration  1 RMS(Cart)=  0.03066331 RMS(Int)=  0.00875994
 Iteration  2 RMS(Cart)=  0.01253146 RMS(Int)=  0.00033537
 Iteration  3 RMS(Cart)=  0.00004071 RMS(Int)=  0.00033421
 Iteration  4 RMS(Cart)=  0.00000000 RMS(Int)=  0.00033421
 Variable       Old X    -DE/DX   Delta X   Delta X   Delta X     New X
                                 (Linear)    (Quad)   (Total)
    R1        2.48678   0.00005  -0.00209   0.00130  -0.00144   2.48535
    R2        2.48402   0.00061   0.00250   0.00036   0.00285   2.48687
    R3        1.92107  -0.00135  -0.00713  -0.00118  -0.00854   1.91254
    R4        2.51800   0.00165  -0.00113   0.00598   0.00478   2.52279
    R5        4.55226   0.00760   0.05687   0.21046   0.26711   4.81937
    R6        2.64726  -0.00046   0.00467  -0.00490  -0.00017   2.64709
    R7        2.03944   0.00006  -0.00011   0.00046   0.00035   2.03979
    R8        2.52131   0.00068  -0.00235   0.00312   0.00087   2.52218
    R9        2.03861   0.00004   0.00015   0.00016   0.00031   2.03892
   R10        4.44548   0.00124  -0.00824   0.09150   0.08364   4.52912
   R11        2.20777  -0.00675   0.00261  -0.00992  -0.00731   2.20046
   R12        2.21572  -0.00771   0.00086  -0.01001  -0.00864   2.20708
    A1        2.02593  -0.00070   0.01882  -0.01363   0.00535   2.03129
    A2        2.10417   0.00037  -0.01034   0.00906  -0.00204   2.10213
    A3        2.15305   0.00032  -0.00850   0.00461  -0.00330   2.14976
    A4        1.81575   0.00014  -0.01624   0.00848  -0.00760   1.80815
    A5        1.88055  -0.00078   0.01336  -0.00936   0.00317   1.88372
    A6        2.57117   0.00064   0.00389  -0.00013   0.00440   2.57557
[...]
   A17        2.00542   0.00001   0.00000   0.00084   0.00084   2.00626
   A18        3.17492  -0.00000   0.00000  -0.00010  -0.00010   3.17483
   A19        3.14154   0.00001   0.00000   0.00005   0.00005   3.14159
    D1        0.00010  -0.00000   0.00000  -0.00011  -0.00011  -0.00000
    D2       -3.14091  -0.00000   0.00000  -0.00074  -0.00074   3.14153
    D3        3.14091   0.00001   0.00000   0.00070   0.00070  -3.14157
    D4       -0.00010   0.00001   0.00000   0.00007   0.00007  -0.00004
    D5       -0.00011   0.00000   0.00000   0.00011   0.00011   0.00000
    D6       -3.14091  -0.00001   0.00000  -0.00070  -0.00070   3.14157
    D7        0.00002  -0.00001   0.00000   0.00059   0.00059   0.00061
    D8        3.14078   0.00000   0.00000   0.00145   0.00145  -3.14095
    D9       -0.00005   0.00000   0.00000   0.00005   0.00005   0.00000
   D10        3.14145   0.00000   0.00000   0.00014   0.00014   3.14159
   D11        3.14024   0.00000   0.00000   0.00149   0.00149  -3.14146
   D12       -0.00144   0.00000   0.00000   0.00157   0.00157   0.00013
   D13       -3.14142   0.00000   0.00000  -0.00122  -0.00122   3.14054
   D14        0.00022  -0.00000   0.00000  -0.00127  -0.00126  -0.00105
   D15        0.00146   0.00000   0.00000  -0.00264  -0.00264  -0.00118
   D16       -3.14008  -0.00000   0.00000  -0.00269  -0.00269   3.14042
   D17       -0.00001  -0.00000   0.00000   0.00001   0.00001  -0.00000
   D18        3.14157   0.00000   0.00000   0.00002   0.00002   3.14159
   D19       -3.14150  -0.00000   0.00000  -0.00008  -0.00008  -3.14159
   D20        0.00007  -0.00000   0.00000  -0.00007  -0.00007   0.00000
   D21        0.00007  -0.00000   0.00000  -0.00007  -0.00007  -0.00000
   D22       -3.14151  -0.00000   0.00000  -0.00008  -0.00008  -3.14159
   D23        0.00021   0.00000   0.00000  -0.00189  -0.00189  -0.00168
   D24       -0.00016   0.00000   0.00000   0.00113   0.00113   0.00097
         Item               Value     Threshold  Converged?
 Maximum Force            0.000016     0.000450     YES
 RMS     Force            0.000005     0.000300     YES
 Maximum Displacement     0.003050     0.001800     NO 
 RMS     Displacement     0.000709     0.001200     YES
 Predicted change in Energy=-2.591304D-08
                           ----------------------------
                           ! Non-Optimized Parameters !
                           ! (Angstroms and Degrees)  !
 --------------------------                            --------------------------
 ! Name  Definition              Value          Derivative Info.                !
 --------------------------------------------------------------------------------
 ! R1    R(1,2)                  1.3179         -DE/DX =    0.0                 !
 ! R2    R(1,5)                  1.3169         -DE/DX =    0.0                 !
 ! R3    R(1,8)                  1.0152         -DE/DX =    0.0                 !
 ! R4    R(2,3)                  1.3339         -DE/DX =    0.0                 !
 ! R5    R(2,9)                  2.8143         -DE/DX =    0.0                 !
 ! R6    R(3,4)                  1.4002         -DE/DX =    0.0                 !
 ! R7    R(3,6)                  1.0792         -DE/DX =    0.0                 !
 ! R8    R(4,5)                  1.3339         -DE/DX =    0.0                 !
 ! R9    R(4,7)                  1.0789         -DE/DX =    0.0                 !
 ! R10   R(8,11)                 2.402          -DE/DX =    0.0                 !
 ! R11   R(9,10)                 1.1624         -DE/DX =    0.0                 !
 ! R12   R(9,11)                 1.1643         -DE/DX =    0.0                 !
 ! A1    A(2,1,5)              116.1018         -DE/DX =    0.0                 !
 ! A2    A(2,1,8)              121.5952         -DE/DX =    0.0                 !
 ! A3    A(5,1,8)              122.3029         -DE/DX =    0.0                 !
 ! A4    A(1,2,3)              103.73           -DE/DX =    0.0                 !
 ! A5    A(1,2,9)              101.9525         -DE/DX =    0.0                 !
 ! A6    A(3,2,9)              154.3175         -DE/DX =    0.0                 !
 ! A7    A(2,3,4)              108.1775         -DE/DX =    0.0                 !
 ! A8    A(2,3,6)              121.4956         -DE/DX =    0.0                 !
 ! A9    A(4,3,6)              130.3269         -DE/DX =    0.0                 !
 ! A10   A(3,4,5)              108.3239         -DE/DX =    0.0                 !
 ! A11   A(3,4,7)              130.1927         -DE/DX =    0.0                 !
 ! A12   A(5,4,7)              121.4834         -DE/DX =    0.0                 !
 ! A13   A(1,5,4)              103.6668         -DE/DX =    0.0                 !
 ! A14   A(1,8,11)             116.2753         -DE/DX =    0.0                 !
 ! A15   A(2,9,10)              96.6776         -DE/DX =    0.0                 !
 ! A16   A(2,9,11)              85.2266         -DE/DX =    0.0                 !
 ! A17   A(8,11,9)             114.9502         -DE/DX =    0.0                 !
 ! A18   L(10,9,11,2,-1)       181.9043         -DE/DX =    0.0                 !
 ! A19   L(10,9,11,2,-2)       179.9999         -DE/DX =    0.0                 !
 ! D1    D(5,1,2,3)             -0.0002         -DE/DX =    0.0                 !
 ! D2    D(5,1,2,9)            179.9965         -DE/DX =    0.0                 !
 ! D3    D(8,1,2,3)           -179.9988         -DE/DX =    0.0                 !
 ! D4    D(8,1,2,9)             -0.0021         -DE/DX =    0.0                 !
 ! D5    D(2,1,5,4)              0.0001         -DE/DX =    0.0                 !
 ! D6    D(8,1,5,4)            179.9987         -DE/DX =    0.0                 !
 ! D7    D(2,1,8,11)             0.0351         -DE/DX =    0.0                 !
 ! D8    D(5,1,8,11)          -179.9633         -DE/DX =    0.0                 !
 ! D9    D(1,2,3,4)              0.0002         -DE/DX =    0.0                 !
 ! D10   D(1,2,3,6)            179.9998         -DE/DX =    0.0                 !
 ! D11   D(9,2,3,4)           -179.9923         -DE/DX =    0.0                 !
 ! D12   D(9,2,3,6)              0.0073         -DE/DX =    0.0                 !
 ! D13   D(1,2,9,10)           179.9399         -DE/DX =    0.0                 !
 ! D14   D(1,2,9,11)            -0.06           -DE/DX =    0.0                 !
 ! D15   D(3,2,9,10)            -0.0676         -DE/DX =    0.0                 !
 ! D16   D(3,2,9,11)           179.9325         -DE/DX =    0.0                 !
 ! D17   D(2,3,4,5)             -0.0001         -DE/DX =    0.0                 !
 ! D18   D(2,3,4,7)            179.9997         -DE/DX =    0.0                 !
 ! D19   D(6,3,4,5)           -179.9997         -DE/DX =    0.0                 !
 ! D20   D(6,3,4,7)              0.0001         -DE/DX =    0.0                 !
 ! D21   D(3,4,5,1)              0.0            -DE/DX =    0.0                 !
 ! D22   D(7,4,5,1)           -179.9998         -DE/DX =    0.0                 !
 ! D23   D(1,8,11,9)            -0.0964         -DE/DX =    0.0                 !
 ! D24   D(2,9,11,8)             0.0556         -DE/DX =    0.0                 !
 --------------------------------------------------------------------------------
 GradGradGradGradGradGradGradGradGradGradGradGradGradGradGradGradGradGrad


 ----------------------------------------------------------------------

 Electric dipole moment (input orientation):
 (Debye = 10**-18 statcoulomb cm , SI units = C m)
                  (au)            (Debye)         (10**-30 SI)
   Tot        0.182469D+00      0.463790D+00      0.154704D+01
   x         -0.175731D+00     -0.446664D+00     -0.148991D+01
   y          0.483166D-01      0.122809D+00      0.409645D+00
   z         -0.888693D-02     -0.225883D-01     -0.753465D-01

 Dipole polarizability, Alpha (input orientation).
 (esu units = cm**3 , SI units = C**2 m**2 J**-1)
 Alpha(0;0):
               (au)            (10**-24 esu)      (10**-40 SI)
   iso        0.746790D+02      0.110663D+02      0.123129D+02
   aniso      0.451211D+02      0.668626D+01      0.743947D+01
   xx         0.883784D+02      0.130963D+02      0.145716D+02
   yx         0.963658D+01      0.142799D+01      0.158886D+01
   yy         0.888100D+02      0.131603D+02      0.146428D+02
   zx         0.101843D+01      0.150916D+00      0.167917D+00
   zy        -0.194760D+01     -0.288604D+00     -0.321115D+00
   zz         0.468486D+02      0.694225D+01      0.772429D+01

 ----------------------------------------------------------------------

 Dipole orientation:
     7          0.17582938          0.56528151         -1.61045828
     7         -0.34595222         -1.70528256         -0.73004005
     6         -0.28110845         -1.40621877          1.77207567
     6          0.29823467          1.12392307          2.28628378
     7          0.57901467          2.33416344          0.09302111
     1         -0.63990392         -2.96216482          3.04072629
     1          0.51646920          2.08751779          4.06962441
     1          0.26057723          0.91781330         -3.49434084
     6         -0.97809003         -4.50539588         -5.20625149
     8         -1.42094301         -6.42892391         -4.24225019
     8         -0.54171407         -2.61123795         -6.23716545

 Electric dipole moment (dipole orientation):
 (Debye = 10**-18 statcoulomb cm , SI units = C m)
                  (au)            (Debye)         (10**-30 SI)
   Tot        0.182469D+00      0.463790D+00      0.154704D+01
   x          0.000000D+00      0.000000D+00      0.000000D+00
   y          0.000000D+00      0.000000D+00      0.000000D+00
   z          0.182469D+00      0.463790D+00      0.154704D+01

 Dipole polarizability, Alpha (dipole orientation).
 (esu units = cm**3 , SI units = C**2 m**2 J**-1)
 Alpha(0;0):
               (au)            (10**-24 esu)      (10**-40 SI)
   iso        0.746790D+02      0.110663D+02      0.123129D+02
   aniso      0.451211D+02      0.668626D+01      0.743947D+01
   xx         0.490626D+02      0.727033D+01      0.808933D+01
   yx         0.102706D+02      0.152195D+01      0.169340D+01
   yy         0.914334D+02      0.135490D+02      0.150753D+02
   zx        -0.186259D+01     -0.276008D+00     -0.307100D+00
   zy        -0.787154D+01     -0.116644D+01     -0.129784D+01
   zz         0.835409D+02      0.123795D+02      0.137740D+02

 ----------------------------------------------------------------------
 1\1\GINC-NODE5\Freq\RM062X\6-31+G(d,p)\C3H3N3O2\GONGKE2021\06-Jul-2023
 \0\\#N Geom=AllCheck Guess=TCheck SCRF=Check GenChk RM062X/6-31+G(d,p)
  Freq\\test\\0,1\N,0.903264936,0.0763671208,0.0519065664\N,0.125570951
 6,-0.9872563574,0.0814541717\C,-1.1063174159,-0.4808610408,0.008108446
 1\C,-1.0017919762,0.9135851829,-0.0644200526\N,0.2913725406,1.23931821
 96,-0.0343796218\H,-1.9783385867,-1.116676322,0.0105796504\H,-1.771067
 7403,1.6667591418,-0.1341831577\H,1.9144917856,-0.0027837213,0.0942526
 473\C,2.0012330141,-3.0766918706,0.2670181462\O,1.2312159826,-3.947298
 7872,0.2860088508\O,2.8010991485,-2.2307762157,0.2505664632\\Version=E
 S64L-G16RevA.03\State=1-A\HF=-430.6764216\RMSD=1.844e-09\RMSF=1.009e-0
 5\ZeroPoint=0.0729874\Thermal=0.0807517\Dipole=-0.1757311,0.0483166,-0
 .0088869\DipoleDeriv=-0.9382106,0.0915818,-0.0351548,0.1070879,0.36315
 51,-0.0224888,-0.0354001,-0.0232042,-0.1199582,0.1466985,0.118283,0.00
 828,0.3507109,-0.7270733,0.0386417,-0.0044889,0.0302083,-0.2595364,-0.
 043729,0.0232028,0.000699,0.3197468,0.2094659,-0.0048877,-0.0156275,-0
 .0157687,-0.0947526,-0.0933553,0.0240478,-0.000547,-0.2793412,0.250733
 6,-0.0302288,0.0160044,-0.0190909,-0.1113441,0.1168406,-0.1773658,0.02
 33997,-0.4195832,-0.5944512,0.0030685,0.0365524,0.0119559,-0.2561229,0
 .1070183,-0.0275435,-0.0028115,-0.0641781,0.1024429,0.0042718,-0.00082
 71,0.0056005,0.2235012,0.1205558,0.024593,-0.0051594,0.0623029,0.08669
 82,0.0098102,-0.0072265,0.0084314,0.2228645,0.5576534,-0.0436533,0.008
 0805,-0.013245,0.3114516,0.0046339,0.0061198,0.0035201,0.4054041,2.155
 4512,1.3814371,-0.0217235,1.3258122,2.5249222,-0.0499452,-0.0186385,-0
 .0479153,0.712605,-1.011276,-0.7278774,0.0154389,-0.6864886,-1.284966,
 0.0252616,0.0131851,0.0237604,-0.3573354,-1.1176469,-0.6867056,0.00949
 82,-0.7028246,-1.2423791,0.0218628,0.0103468,0.0225024,-0.3653252\Pola
 r=88.3783733,9.6365764,88.8100012,1.0184347,-1.9475951,46.8485945\Quad
 rupole=6.2885265,-5.5455847,-0.7429418,-2.9193085,0.4211967,0.154995\P
 G=C01 [X(C3H3N3O2)]\NImag=0\\1.01396613,-0.02588861,0.65816437,0.03508
 275,-0.03083931,0.11609249,-0.18215254,-0.13920175,0.00355592,0.591277
 58,-0.07249627,-0.26045084,0.00753656,-0.03569148,0.56960967,-0.000057
 38,0.00511274,-0.07402501,0.01982812,-0.02656087,0.11136357,-0.1160503
 2,-0.04786216,-0.00215696,-0.33780218,0.09887463,-0.01514035,0.8260772
 5,0.01353254,-0.01169283,0.00184968,0.10538143,-0.16329744,0.00872901,
 0.14600608,0.70302097,-0.00553388,-0.00039054,0.01337529,-0.01549644,0
 .00848524,-0.07639093,0.01736069,-0.02533055,0.14371041,-0.09901545,0.
 05786626,-0.00730733,0.01106328,0.01111657,-0.00094909,-0.12183320,0.0
 0695143,-0.00216896,0.77277800,-0.00401171,-0.01607569,0.00149696,0.10
 872587,-0.04027270,0.00732342,-0.03702859,-0.32195771,0.01222724,-0.15
 083109,0.74558342,-0.00393665,0.00375801,0.01301475,-0.00628334,0.0037
 1744,0.01960602,0.00024010,0.01386567,-0.07438220,0.03163381,-0.038665
 52,0.14512717,-0.15358084,0.12474089,-0.00984260,-0.04623087,0.0149033
 0,-0.00369891,-0.00764770,-0.11341296,0.00517983,-0.36386063,-0.077222
 16,-0.00646766,0.59261729,0.05761911,-0.29301708,0.01415603,-0.0248244
 6,-0.11754308,0.00725501,-0.01644973,-0.02157707,0.00168643,-0.0708569
 8,-0.13835111,0.00083314,0.02937132,0.55865842,-0.00612740,0.01658887,
 -0.07495668,-0.00152244,0.00874673,0.03134664,-0.00014211,-0.00189278,
 0.02048428,-0.00682118,0.00059444,-0.07537042,0.01632054,-0.02353568,0
 .11078491,-0.00465528,0.00265563,-0.00060026,-0.01762620,-0.01775243,0
 .00058199,-0.25662928,-0.14801403,-0.00023550,0.00739357,0.00312007,0.
 00011794,0.00121799,0.00257509,-0.00033338,0.27077610,0.00623932,-0.00
 063381,0.00067982,0.01371642,0.01382196,-0.00063613,-0.15742588,-0.175
 04393,0.00201138,-0.01978800,-0.00140787,-0.00067875,-0.00238018,-0.00
 557144,0.00056795,0.15896565,0.16759434,-0.00079334,0.00054377,0.00749
 269,-0.00113961,-0.00180478,-0.00701596,0.00027546,0.00235882,-0.03181
 327,0.00137480,0.00017288,-0.00035660,-0.00006349,0.00075415,0.0063579
 9,0.00041025,-0.00191465,0.02507908,-0.00585814,-0.00186625,-0.0003959
 5,0.00099677,-0.00364313,-0.00000572,0.00966443,-0.00483915,0.00064026
 ,-0.21192524,0.15292305,-0.01505169,-0.01640978,0.02210132,-0.00155400
 ,-0.00038711,0.00051267,0.00001437,0.22373297,-0.00558899,0.00059207,0
 .00017229,0.00132467,-0.00548307,0.00070775,0.01833072,-0.00367051,0.0
 0085478,0.16222790,-0.22014487,0.01633197,-0.00923509,0.01266113,-0.00
 142562,-0.00043753,0.00004391,-0.00010285,-0.16654605,0.21499875,-0.00
 018861,0.00031275,0.00750019,-0.00027980,0.00052188,0.00650351,-0.0006
 2816,-0.00000439,-0.00048424,-0.01556311,0.01598670,-0.03328349,0.0001
 6341,-0.00026245,-0.00710334,0.00006651,-0.00006735,-0.00153009,0.0164
 8611,-0.01658019,0.02659267,-0.45298612,0.02924168,-0.01832130,-0.0132
 1823,0.00131576,-0.00014532,0.00435650,-0.00610349,0.00028936,0.005924
 25,0.00416617,-0.00022032,-0.00613599,0.00122936,0.00014187,-0.0000204
 8,0.00026582,-0.00008281,0.00019895,-0.00010233,-0.00005628,0.46184636
 ,0.02952620,-0.07269682,0.00466148,-0.03035892,0.00899127,-0.00224762,
 -0.00503791,-0.00607716,0.00044672,0.00318949,-0.00736753,0.00082688,0
 .03315560,0.00394811,0.00038908,-0.00115890,0.00112138,-0.00000315,0.0
 0128143,0.00092242,0.00009719,-0.02959319,0.07074742,-0.01839003,0.004
 65622,-0.00871727,0.00161718,-0.00105077,-0.01110126,0.00023116,0.0004
 1885,0.00543968,-0.00016858,0.00085171,0.00553844,-0.00158307,-0.00082
 127,-0.01167016,-0.00000354,0.00004754,0.00181644,-0.00013032,0.000047
 61,0.00184773,0.01836074,-0.00409859,0.01704282,0.00196584,0.00047175,
 0.00005494,-0.00111193,0.00005614,0.00000028,-0.00159258,-0.00025179,-
 0.00004087,-0.00069412,-0.00040729,-0.00000861,0.00018613,-0.00262407,
 0.00014318,-0.00005477,-0.00000395,0.00000037,-0.00011994,-0.00013832,
 0.00000258,0.00141746,-0.00396185,0.00027259,0.92353813,0.00079943,-0.
 00376647,0.00023078,-0.00247947,-0.00280801,-0.00000467,0.00130275,0.0
 0222399,-0.00008063,-0.00123326,0.00084005,-0.00008370,-0.00075400,0.0
 0073779,-0.00005957,-0.00007818,0.00005496,-0.00000924,0.00002801,0.00
 024399,-0.00001112,-0.00012711,-0.00444405,0.00023893,0.86497427,1.084
 12053,0.00003558,0.00021634,-0.00016644,0.00013844,0.00009192,-0.00118
 238,-0.00012731,-0.00013869,-0.00011202,0.00003699,-0.00005417,0.00013
 918,0.00004237,-0.00013013,0.00017293,0.00000435,-0.00000626,-0.000056
 07,-0.00000678,-0.00001761,0.00001979,0.00006111,0.00009448,-0.0000210
 9,-0.01834596,-0.01914596,0.14570519,-0.00101804,0.00046784,-0.0000692
 0,0.00008091,0.00256832,-0.00015595,0.00032244,-0.00022470,0.00002511,
 0.00038285,0.00009310,0.00001033,0.00008400,0.00090160,-0.00004360,-0.
 00002304,-0.00005999,0.00000173,0.00003638,0.00002279,-0.00000001,-0.0
 0045666,0.00186012,-0.00012180,-0.45298136,-0.43268315,0.00950782,0.49
 452277,0.00028412,-0.00015384,0.00002435,0.00034454,-0.00171863,0.0001
 3345,-0.00050038,-0.00088464,0.00002908,0.00039681,-0.00038675,0.00003
 376,0.00023798,-0.00052332,0.00003472,0.00007308,0.00001484,0.00000303
 ,-0.00000907,-0.00008574,0.00000437,-0.00006163,0.00161001,-0.00008804
 ,-0.43180140,-0.55389854,0.01029325,0.51077103,0.61312792,-0.00005833,
 0.00003249,0.00011433,-0.00003285,0.00021605,0.00043582,0.00004039,0.0
 0003934,-0.00001966,-0.00000622,0.00002298,-0.00003557,-0.00000795,0.0
 0005976,-0.00005827,-0.00000559,-0.00000203,0.00001874,0.00000183,0.00
 000565,0.00000084,-0.00001585,-0.00001571,0.00005410,0.00946070,0.0102
 6186,-0.07234719,-0.01088015,-0.01258173,0.03614733,-0.00061522,-0.000
 62528,0.,-0.00527656,0.00074858,-0.00025765,0.00113464,0.00097464,-0.0
 0001961,-0.00021329,0.00047258,-0.00003390,-0.00023959,0.00095746,-0.0
 0006146,0.00000850,-0.00004188,0.00000228,0.00007073,0.00014224,-0.000
 00265,-0.00092603,0.00109792,-0.00008431,-0.47055285,-0.42974929,0.008
 65339,-0.04095026,-0.07973506,0.00150400,0.51755993,-0.00001513,-0.000
 26906,0.00003136,0.00306315,-0.00084914,0.00018791,-0.00020954,-0.0010
 4368,0.00006084,0.00096086,-0.00045925,0.00006111,0.00059530,0.0005776
 3,-0.00000814,0.00005154,0.00000566,0.00000203,0.00005719,-0.00007807,
 0.00000261,-0.00023103,0.00324493,-0.00020218,-0.42631348,-0.52330425,
 0.00879684,-0.08371695,-0.05710132,0.00196134,0.50575810,0.57927654,-0
 .00003271,0.00000866,0.00027565,-0.00038518,0.00010061,0.00045996,0.00
 004711,0.00010503,0.00019264,-0.00006112,0.00004336,0.00000272,-0.0000
 4247,0.00000502,0.00001212,-0.00000276,-0.00000150,0.00000705,0.000001
 89,0.00000622,-0.00006358,-0.00001119,-0.00015076,-0.00022943,0.008460
 79,0.00866331,-0.07215190,0.00172573,0.00211376,0.03568953,-0.00970009
 ,-0.01089371,0.03580524\\-0.00000377,0.00001096,-0.00002532,-0.0000136
 4,-0.00001629,-0.00000053,0.00000381,0.00000563,0.00000940,0.00000868,
 0.00000579,0.00000329,0.00000472,-0.00000361,0.00000119,-0.00000034,0.
 00000698,-0.00000331,0.00000785,0.00000668,-0.00000043,0.00001115,-0.0
 0000722,0.00001592,-0.00000684,0.00001139,-0.00000829,-0.00000717,0.00
 000841,0.00000300,-0.00000445,-0.00002873,0.00000508\\\@


 ALL SCIENCE IS EITHER PHYSICS, OR STAMP COLLECTING.
   --ERNEST RUTHERFORD, 1871-1937.
 Job cpu time:       0 days  0 hours 14 minutes 37.6 seconds.
 Elapsed time:       0 days  0 hours  0 minutes 37.4 seconds.
 File lengths (MBytes):  RWF=     61 Int=      0 D2E=      0 Chk=      7 Scr=      1
 Normal termination of Gaussian 16 at Thu Jul  6 20:42:33 2023.
