 Entering Gaussian System, Link 0=/opt/soft/g16/g16
 Initial command:
 /opt/soft/g16/l1.exe "/scratch/gongke2021/2-H-Tz/Gau-7335.inp" -scrdir="/scratch/gongke2021/2-H-Tz/"
 Entering Link 1 = /opt/soft/g16/l1.exe PID=      7336.
  
 Copyright (c) 1988,1990,1992,1993,1995,1998,2003,2009,2016,
            Gaussian, Inc.  All Rights Reserved.
  
 This is part of the Gaussian(R) 16 program.  It is based on
 the Gaussian(R) 09 system (copyright 2009, Gaussian, Inc.),
 the Gaussian(R) 03 system (copyright 2003, Gaussian, Inc.),
 the Gaussian(R) 98 system (copyright 1998, Gaussian, Inc.),
 the Gaussian(R) 94 system (copyright 1995, Gaussian, Inc.),
 the Gaussian 92(TM) system (copyright 1992, Gaussian, Inc.),
 the Gaussian 90(TM) system (copyright 1990, Gaussian, Inc.),
 the Gaussian 88(TM) system (copyright 1988, Gaussian, Inc.),
 the Gaussian 86(TM) system (copyright 1986, Carnegie Mellon
 University), and the Gaussian 82(TM) system (copyright 1983,
 Carnegie Mellon University). Gaussian is a federally registered
 trademark of Gaussian, Inc.
  
 This software contains proprietary and confidential information,
 including trade secrets, belonging to Gaussian, Inc.
  
 This software is provided under written license and may be
 used, copied, transmitted, or stored only in accord with that
 written license.
  
 The following legend is applicable only to US Government
 contracts under FAR:
  
                    RESTRICTED RIGHTS LEGEND
  
 Use, reproduction and disclosure by the US Government is
 subject to restrictions as set forth in subparagraphs (a)
 and (c) of the Commercial Computer Software - Restricted
 Rights clause in FAR 52.227-19.
  
 Gaussian, Inc.
 340 Quinnipiac St., Bldg. 40, Wallingford CT 06492
  
  
 ---------------------------------------------------------------
 Warning -- This program may not be used in any manner that
 competes with the business of Gaussian, Inc. or will provide
 assistance to any competitor of Gaussian, Inc.  The licensee
 of this program is prohibited from giving any competitor of
 Gaussian, Inc. access to this program.  By using this program,
 the user acknowledges that Gaussian, Inc. is engaged in the
 business of creating and licensing software in the field of
 computational chemistry and represents and warrants to the
 licensee that it is not a competitor of Gaussian, Inc. and that
 it will not use this program in any manner prohibited above.
 ---------------------------------------------------------------
  

 Cite this work as:
 Gaussian 16, Revision A.03,
 M. J. Frisch, G. W. Trucks, H. B. Schlegel, G. E. Scuseria, 
 M. A. Robb, J. R. Cheeseman, G. Scalmani, V. Barone, 
 G. A. Petersson, H. Nakatsuji, X. Li, M. Caricato, A. V. Marenich, 
 J. Bloino, B. G. Janesko, R. Gomperts, B. Mennucci, H. P. Hratchian, 
 J. V. Ortiz, A. F. Izmaylov, J. L. Sonnenberg, D. Williams-Young, 
 F. Ding, F. Lipparini, F. Egidi, J. Goings, B. Peng, A. Petrone, 
 T. Henderson, D. Ranasinghe, V. G. Zakrzewski, J. Gao, N. Rega, 
 G. Zheng, W. Liang, M. Hada, M. Ehara, K. Toyota, R. Fukuda, 
 J. Hasegawa, M. Ishida, T. Nakajima, Y. Honda, O. Kitao, H. Nakai, 
 T. Vreven, K. Throssell, J. A. Montgomery, Jr., J. E. Peralta, 
 F. Ogliaro, M. J. Bearpark, J. J. Heyd, E. N. Brothers, K. N. Kudin, 
 V. N. Staroverov, T. A. Keith, R. Kobayashi, J. Normand, 
 K. Raghavachari, A. P. Rendell, J. C. Burant, S. S. Iyengar, 
 J. Tomasi, M. Cossi, J. M. Millam, M. Klene, C. Adamo, R. Cammi, 
 J. W. Ochterski, R. L. Martin, K. Morokuma, O. Farkas, 
 J. B. Foresman, and D. J. Fox, Gaussian, Inc., Wallingford CT, 2016.
 
 ******************************************
 Gaussian 16:  ES64L-G16RevA.03 25-Dec-2016
                 9-Jul-2023 
 ******************************************
 %mem=10GB
 %nprocshared=24
 Will use up to   24 processors via shared memory.
 -----------------------------------------------------
 # opt freq 6-31+g(d,p) m062x scrf=(SMD,solvent=water)
 -----------------------------------------------------
 1/18=20,19=15,26=3,38=1/1,3;
 2/9=110,12=2,17=6,18=5,40=1/2;
 3/5=1,6=6,7=111,11=2,25=1,30=1,70=32201,71=1,72=1,74=-55/1,2,3;
 4//1;
 5/5=2,38=5,53=1/2;
 6/7=2,8=2,9=2,10=2,28=1/1;
 7//1,2,3,16;
 1/18=20,19=15,26=3/3(2);
 2/9=110/2;
 99//99;
 2/9=110/2;
 3/5=1,6=6,7=111,11=2,25=1,30=1,70=32205,71=1,72=1,74=-55/1,2,3;
 4/5=5,16=3,69=1/1;
 5/5=2,38=5,53=1/2;
 7//1,2,3,16;
 1/18=20,19=15,26=3/3(-5);
 2/9=110/2;
 6/7=2,8=2,9=2,10=2,19=2,28=1/1;
 99/9=1/99;
 ----
 test
 ----
 Symbolic Z-matrix:
 Charge =  0 Multiplicity = 1
 N                     1.04675  -0.02275  -0.00178 
 N                     0.32899  -1.12949   0.00184 
 C                    -0.92503  -0.68353  -0.00117 
 C                    -0.89147   0.72247   0.00006 
 N                     0.38117   1.11465   0.00086 
 H                    -1.76034  -1.36593  -0.00087 
 H                    -1.69483   1.44212   0.00091 
 H                     2.05586  -0.04669   0.00019 
 

 GradGradGradGradGradGradGradGradGradGradGradGradGradGradGradGradGradGrad
 Berny optimization.
 Initialization pass.
                           ----------------------------
                           !    Initial Parameters    !
                           ! (Angstroms and Degrees)  !
 --------------------------                            --------------------------
 ! Name  Definition              Value          Derivative Info.                !
 --------------------------------------------------------------------------------
 ! R1    R(1,2)                  1.3191         estimate D2E/DX2                !
 ! R2    R(1,5)                  1.3178         estimate D2E/DX2                !
 ! R3    R(1,8)                  1.0094         estimate D2E/DX2                !
 ! R4    R(2,3)                  1.331          estimate D2E/DX2                !
 ! R5    R(3,4)                  1.4064         estimate D2E/DX2                !
 ! R6    R(3,6)                  1.0786         estimate D2E/DX2                !
 ! R7    R(4,5)                  1.3317         estimate D2E/DX2                !
 ! R8    R(4,7)                  1.0786         estimate D2E/DX2                !
 ! A1    A(2,1,5)              116.699          estimate D2E/DX2                !
 ! A2    A(2,1,8)              121.6057         estimate D2E/DX2                !
 ! A3    A(5,1,8)              121.6938         estimate D2E/DX2                !
 ! A4    A(1,2,3)              103.388          estimate D2E/DX2                !
 ! A5    A(2,3,4)              108.2088         estimate D2E/DX2                !
 ! A6    A(2,3,6)              121.1763         estimate D2E/DX2                !
 ! A7    A(4,3,6)              130.6145         estimate D2E/DX2                !
 ! A8    A(3,4,5)              108.495          estimate D2E/DX2                !
 ! A9    A(3,4,7)              130.4862         estimate D2E/DX2                !
 ! A10   A(5,4,7)              121.0189         estimate D2E/DX2                !
 ! A11   A(1,5,4)              103.2079         estimate D2E/DX2                !
 ! D1    D(5,1,2,3)              0.3784         estimate D2E/DX2                !
 ! D2    D(8,1,2,3)            179.9423         estimate D2E/DX2                !
 ! D3    D(2,1,5,4)             -0.2959         estimate D2E/DX2                !
 ! D4    D(8,1,5,4)           -179.8595         estimate D2E/DX2                !
 ! D5    D(1,2,3,4)             -0.2882         estimate D2E/DX2                !
 ! D6    D(1,2,3,6)            179.9047         estimate D2E/DX2                !
 ! D7    D(2,3,4,5)              0.1338         estimate D2E/DX2                !
 ! D8    D(2,3,4,7)           -179.831          estimate D2E/DX2                !
 ! D9    D(6,3,4,5)            179.9164         estimate D2E/DX2                !
 ! D10   D(6,3,4,7)             -0.0484         estimate D2E/DX2                !
 ! D11   D(3,4,5,1)              0.0843         estimate D2E/DX2                !
 ! D12   D(7,4,5,1)           -179.9469         estimate D2E/DX2                !
 --------------------------------------------------------------------------------
 Trust Radius=3.00D-01 FncErr=1.00D-07 GrdErr=1.00D-06 EigMax=2.50D+02 EigMin=1.00D-04
 Number of steps in this run=     41 maximum allowed number of steps=    100.
 GradGradGradGradGradGradGradGradGradGradGradGradGradGradGradGradGradGrad

                          Input orientation:                          
 ---------------------------------------------------------------------
 Center     Atomic      Atomic             Coordinates (Angstroms)
 Number     Number       Type             X           Y           Z
 ---------------------------------------------------------------------
      1          7           0        1.046750   -0.022751   -0.001783
      2          7           0        0.328985   -1.129487    0.001840
      3          6           0       -0.925033   -0.683528   -0.001171
      4          6           0       -0.891467    0.722468    0.000064
      5          7           0        0.381166    1.114646    0.000858
      6          1           0       -1.760337   -1.365926   -0.000867
      7          1           0       -1.694834    1.442118    0.000908
      8          1           0        2.055864   -0.046688    0.000191
 ---------------------------------------------------------------------
                    Distance matrix (angstroms):
                    1          2          3          4          5
     1  N    0.000000
     2  N    1.319115   0.000000
     3  C    2.079556   1.330958   0.000000
     4  C    2.076545   2.217937   1.406397   0.000000
     5  N    1.317832   2.244740   2.222519   1.331690   0.000000
     6  H    3.111890   2.102660   1.078610   2.261930   3.277083
     7  H    3.108397   3.272460   2.260745   1.078562   2.101669
     8  H    1.009400   2.038276   3.048166   3.046040   2.037967
                    6          7          8
     6  H    0.000000
     7  H    2.808808   0.000000
     8  H    4.037794   4.035378   0.000000
 Stoichiometry    C2H3N3
 Framework group  C1[X(C2H3N3)]
 Deg. of freedom    18
 Full point group                 C1      NOp   1
 Largest Abelian subgroup         C1      NOp   1
 Largest concise Abelian subgroup C1      NOp   1
                         Standard orientation:                         
 ---------------------------------------------------------------------
 Center     Atomic      Atomic             Coordinates (Angstroms)
 Number     Number       Type             X           Y           Z
 ---------------------------------------------------------------------
      1          7           0        1.046750   -0.022749   -0.001783
      2          7           0        0.328987   -1.129486    0.001840
      3          6           0       -0.925032   -0.683530   -0.001171
      4          6           0       -0.891468    0.722467    0.000064
      5          7           0        0.381164    1.114647    0.000858
      6          1           0       -1.760335   -1.365929   -0.000867
      7          1           0       -1.694836    1.442115    0.000908
      8          1           0        2.055864   -0.046685    0.000191
 ---------------------------------------------------------------------
 Rotational constants (GHZ):          10.3267112           9.8848663           5.0504917
 Standard basis: 6-31+G(d,p) (6D, 7F)
 There are   110 symmetry adapted cartesian basis functions of A   symmetry.
 There are   110 symmetry adapted basis functions of A   symmetry.
   110 basis functions,   181 primitive gaussians,   110 cartesian basis functions
    18 alpha electrons       18 beta electrons
       nuclear repulsion energy       165.9331749368 Hartrees.
 NAtoms=    8 NActive=    8 NUniq=    8 SFac= 1.00D+00 NAtFMM=   60 NAOKFM=F Big=F
 Integral buffers will be    131072 words long.
 Raffenetti 2 integral format.
 Two-electron integral symmetry is turned on.
 ------------------------------------------------------------------------------
 Polarizable Continuum Model (PCM)
 =================================
 Model                : PCM.
 Atomic radii         : SMD-Coulomb.
 Polarization charges : Total charges.
 Charge compensation  : None.
 Solution method      : On-the-fly selection.
 Cavity type          : VdW (van der Waals Surface) (Alpha=1.000).
 Cavity algorithm     : GePol (No added spheres)
                        Default sphere list used, NSphG=    8.
                        Lebedev-Laikov grids with approx.  5.0 points / Ang**2.
                        Smoothing algorithm: York/Karplus (Gamma=1.0000).
                        Polarization charges: spherical gaussians, with
                                              point-specific exponents (IZeta= 3).
                        Self-potential: point-specific (ISelfS= 7).
                        Self-field    : sphere-specific E.n sum rule (ISelfD= 2).
 1st derivatives      : Analytical E(r).r(x)/FMM algorithm (CHGder, D1EAlg=3).
                        Cavity 1st derivative terms included.
 Solvent              : Water, Eps=  78.355300 Eps(inf)=   1.777849
 ------------------------------------------------------------------------------
 Spheres list:
 ISph  on   Nord     Re0    Alpha      Xe            Ye            Ze
    1   N      1    1.8900  1.000      1.046750     -0.022749     -0.001783
    2   N      2    1.8900  1.000      0.328987     -1.129486      0.001840
    3   C      3    1.8500  1.000     -0.925032     -0.683530     -0.001171
    4   C      4    1.8500  1.000     -0.891468      0.722467      0.000064
    5   N      5    1.8900  1.000      0.381164      1.114647      0.000858
    6   H      6    1.2000  1.000     -1.760335     -1.365929     -0.000867
    7   H      7    1.2000  1.000     -1.694836      1.442115      0.000908
    8   H      8    1.2000  1.000      2.055864     -0.046685      0.000191
 ------------------------------------------------------------------------------
 ------------------------------------------------------------------------------
 Atomic radii for non-electrostatic terms: SMD-CDS.
 ------------------------------------------------------------------------------
 Nuclear repulsion after PCM non-electrostatic terms =      165.9346399250 Hartrees.
 One-electron integrals computed using PRISM.
 NBasis=   110 RedAO= T EigKep=  7.79D-05  NBF=   110
 NBsUse=   110 1.00D-06 EigRej= -1.00D+00 NBFU=   110
 ExpMin= 4.38D-02 ExpMax= 4.17D+03 ExpMxC= 6.27D+02 IAcc=3 IRadAn=         5 AccDes= 0.00D+00
 Harris functional with IExCor= 1009 and IRadAn=       5 diagonalized for initial guess.
 HarFok:  IExCor= 1009 AccDes= 0.00D+00 IRadAn=         5 IDoV= 1 UseB2=F ITyADJ=14
 ICtDFT=  3500011 ScaDFX=  1.000000  1.000000  1.000000  1.000000
 FoFCou: FMM=F IPFlag=           0 FMFlag=      100000 FMFlg1=           0
         NFxFlg=           0 DoJE=T BraDBF=F KetDBF=T FulRan=T
         wScrn=  0.000000 ICntrl=       500 IOpCl=  0 I1Cent=   200000004 NGrid=           0
         NMat0=    1 NMatS0=      1 NMatT0=    0 NMatD0=    1 NMtDS0=    0 NMtDT0=    0
 Petite list used in FoFCou.
 Keep R1 ints in memory in canonical form, NReq=41063497.
 Requested convergence on RMS density matrix=1.00D-08 within 128 cycles.
 Requested convergence on MAX density matrix=1.00D-06.
 Requested convergence on             energy=1.00D-06.
 No special actions if energy rises.
 Inv3:  Mode=1 IEnd=     1929612.
 Iteration    1 A*A^-1 deviation from unit magnitude is 2.66D-15 for    586.
 Iteration    1 A*A^-1 deviation from orthogonality  is 1.78D-15 for    798    595.
 Iteration    1 A^-1*A deviation from unit magnitude is 2.89D-15 for    586.
 Iteration    1 A^-1*A deviation from orthogonality  is 1.25D-15 for    767     70.
 Error on total polarization charges =  0.02389
 SCF Done:  E(RM062X) =  -242.159259212     A.U. after   12 cycles
            NFock= 12  Conv=0.59D-08     -V/T= 2.0084
 SMD-CDS (non-electrostatic) energy       (kcal/mol) =       0.92
 (included in total energy above)

 **********************************************************************

            Population analysis using the SCF density.

 **********************************************************************

 Orbital symmetries:
       Occupied  (A) (A) (A) (A) (A) (A) (A) (A) (A) (A) (A) (A)
                 (A) (A) (A) (A) (A) (A)
       Virtual   (A) (A) (A) (A) (A) (A) (A) (A) (A) (A) (A) (A)
                 (A) (A) (A) (A) (A) (A) (A) (A) (A) (A) (A) (A)
                 (A) (A) (A) (A) (A) (A) (A) (A) (A) (A) (A) (A)
                 (A) (A) (A) (A) (A) (A) (A) (A) (A) (A) (A) (A)
                 (A) (A) (A) (A) (A) (A) (A) (A) (A) (A) (A) (A)
                 (A) (A) (A) (A) (A) (A) (A) (A) (A) (A) (A) (A)
                 (A) (A) (A) (A) (A) (A) (A) (A) (A) (A) (A) (A)
                 (A) (A) (A) (A) (A) (A) (A) (A)
 The electronic state is 1-A.
 Alpha  occ. eigenvalues --  -14.87764 -14.81295 -14.81276 -10.58111 -10.58037
 Alpha  occ. eigenvalues --   -1.23770  -1.01007  -0.93045  -0.71883  -0.71677
 Alpha  occ. eigenvalues --   -0.63026  -0.56206  -0.51964  -0.51363  -0.40742
 Alpha  occ. eigenvalues --   -0.38524  -0.36197  -0.33352
 Alpha virt. eigenvalues --    0.02643   0.02800   0.04324   0.05086   0.06980
 Alpha virt. eigenvalues --    0.07382   0.07921   0.07960   0.09828   0.12630
 Alpha virt. eigenvalues --    0.14213   0.14549   0.17219   0.17336   0.21327
 Alpha virt. eigenvalues --    0.21978   0.22569   0.23041   0.23611   0.23706
 Alpha virt. eigenvalues --    0.26030   0.27675   0.29528   0.30844   0.33006
 Alpha virt. eigenvalues --    0.34576   0.37090   0.41362   0.50409   0.55596
 Alpha virt. eigenvalues --    0.71552   0.71826   0.75449   0.83760   0.84063
 Alpha virt. eigenvalues --    0.90846   0.91536   0.92896   0.94942   0.95117
 Alpha virt. eigenvalues --    0.96914   1.00431   1.01094   1.03432   1.06588
 Alpha virt. eigenvalues --    1.07551   1.12540   1.17750   1.28727   1.30380
 Alpha virt. eigenvalues --    1.30889   1.38790   1.41753   1.42457   1.51369
 Alpha virt. eigenvalues --    1.53981   1.56667   1.57795   1.75926   1.90098
 Alpha virt. eigenvalues --    1.93198   2.01552   2.09244   2.12584   2.15362
 Alpha virt. eigenvalues --    2.22865   2.25478   2.27743   2.34819   2.42182
 Alpha virt. eigenvalues --    2.46121   2.51246   2.53254   2.63093   2.66851
 Alpha virt. eigenvalues --    2.67597   2.68707   2.69792   2.73422   2.79184
 Alpha virt. eigenvalues --    2.80632   3.02877   3.13154   3.16353   3.30997
 Alpha virt. eigenvalues --    3.54992   3.72124   4.00310   4.19218   4.24165
 Alpha virt. eigenvalues --    4.37609   4.62926
          Condensed to atoms (all electrons):
               1          2          3          4          5          6
     1  N    6.506258   0.211345  -0.069839  -0.071586   0.210738   0.016363
     2  N    0.211345   6.742013   0.364218  -0.058706   0.027645  -0.051704
     3  C   -0.069839   0.364218   5.377975   0.159263  -0.058241   0.389036
     4  C   -0.071586  -0.058706   0.159263   5.383065   0.363919  -0.013729
     5  N    0.210738   0.027645  -0.058241   0.363919   6.741535  -0.005043
     6  H    0.016363  -0.051704   0.389036  -0.013729  -0.005043   0.441512
     7  H    0.016575  -0.005066  -0.013619   0.388999  -0.052073   0.000396
     8  H    0.329750  -0.030568   0.008088   0.008162  -0.030400  -0.000025
               7          8
     1  N    0.016575   0.329750
     2  N   -0.005066  -0.030568
     3  C   -0.013619   0.008088
     4  C    0.388999   0.008162
     5  N   -0.052073  -0.030400
     6  H    0.000396  -0.000025
     7  H    0.442611  -0.000025
     8  H   -0.000025   0.297286
 Mulliken charges:
               1
     1  N   -0.149605
     2  N   -0.199177
     3  C   -0.156882
     4  C   -0.159385
     5  N   -0.198079
     6  H    0.223193
     7  H    0.222202
     8  H    0.417732
 Sum of Mulliken charges =   0.00000
 Mulliken charges with hydrogens summed into heavy atoms:
               1
     1  N    0.268128
     2  N   -0.199177
     3  C    0.066311
     4  C    0.062817
     5  N   -0.198079
 Electronic spatial extent (au):  <R**2>=            266.3802
 Charge=              0.0000 electrons
 Dipole moment (field-independent basis, Debye):
    X=             -0.2702    Y=             -0.0005    Z=             -0.0012  Tot=              0.2702
 Quadrupole moment (field-independent basis, Debye-Ang):
   XX=            -19.1316   YY=            -34.2489   ZZ=            -30.8476
   XY=             -0.3150   XZ=              0.0018   YZ=              0.0049
 Traceless Quadrupole moment (field-independent basis, Debye-Ang):
   XX=              8.9445   YY=             -6.1729   ZZ=             -2.7716
   XY=             -0.3150   XZ=              0.0018   YZ=              0.0049
 Octapole moment (field-independent basis, Debye-Ang**2):
  XXX=             11.9933  YYY=              0.6132  ZZZ=              0.0019  XYY=             -9.4206
  XXY=             -0.7365  XXZ=              0.0032  XZZ=              2.0689  YZZ=             -0.0477
  YYZ=             -0.0038  XYZ=             -0.0045
 Hexadecapole moment (field-independent basis, Debye-Ang**3):
 XXXX=           -109.1665 YYYY=           -186.4251 ZZZZ=            -32.8309 XXXY=             -0.7297
 XXXZ=              0.0106 YYYX=             -1.0459 YYYZ=              0.0162 ZZZX=             -0.0008
 ZZZY=              0.0018 XXYY=            -47.0845 XXZZ=            -34.2955 YYZZ=            -36.2011
 XXYZ=              0.0082 YYXZ=             -0.0126 ZZXY=             -0.0679
 N-N= 1.659346399250D+02 E-N=-8.952810456559D+02  KE= 2.401450254306D+02
 D1PCM: PCM CHGder 1st derivatives, ID1Alg=3 FixD1E=F DoIter=F DoCFld=F I1PDM=0.
 Calling FoFJK, ICntrl=      2127 FMM=F ISym2X=0 I1Cent= 0 IOpClX= 0 NMat=1 NMatS=1 NMatT=0.
 ***** Axes restored to original set *****
 -------------------------------------------------------------------
 Center     Atomic                   Forces (Hartrees/Bohr)
 Number     Number              X              Y              Z
 -------------------------------------------------------------------
      1        7           0.000660585   -0.001025848    0.000775057
      2        7           0.001294418    0.003268184   -0.000867391
      3        6          -0.001179724    0.004660342    0.000545751
      4        6          -0.002501131   -0.002846673   -0.000032829
      5        7          -0.000711393   -0.003980102   -0.000454998
      6        1          -0.000811478    0.000608860    0.000011979
      7        1          -0.000962612   -0.000516309   -0.000028984
      8        1           0.004211334   -0.000168454    0.000051415
 -------------------------------------------------------------------
 Cartesian Forces:  Max     0.004660342 RMS     0.001931225

 GradGradGradGradGradGradGradGradGradGradGradGradGradGradGradGradGradGrad
 Berny optimization.
 FormGI is forming the generalized inverse of G from B-inverse, IUseBI=4.
 Internal  Forces:  Max     0.005342166 RMS     0.001860482
 Search for a local minimum.
 Step number   1 out of a maximum of   41
 All quantities printed in internal units (Hartrees-Bohrs-Radians)
 Mixed Optimization -- RFO/linear search
 Second derivative matrix not updated -- first step.
 ITU=  0
     Eigenvalues ---    0.02123   0.02216   0.02302   0.02373   0.02467
     Eigenvalues ---    0.16000   0.16000   0.16000   0.22614   0.23225
     Eigenvalues ---    0.36163   0.36169   0.41336   0.46073   0.53645
     Eigenvalues ---    0.56216   0.59812   0.61773
 RFO step:  Lambda=-3.55184490D-04 EMin= 2.12273921D-02
 Linear search not attempted -- first point.
 Iteration  1 RMS(Cart)=  0.00899019 RMS(Int)=  0.00005410
 Iteration  2 RMS(Cart)=  0.00003957 RMS(Int)=  0.00003374
 Iteration  3 RMS(Cart)=  0.00000000 RMS(Int)=  0.00003374
 Variable       Old X    -DE/DX   Delta X   Delta X   Delta X     New X
                                 (Linear)    (Quad)   (Total)
    R1        2.49277  -0.00175   0.00000  -0.00264  -0.00263   2.49013
    R2        2.49034  -0.00017   0.00000  -0.00008  -0.00007   2.49027
    R3        1.90749   0.00421   0.00000   0.00914   0.00914   1.91663
    R4        2.51515   0.00284   0.00000   0.00470   0.00470   2.51984
    R5        2.65771  -0.00534   0.00000  -0.01228  -0.01229   2.64542
    R6        2.03828   0.00024   0.00000   0.00067   0.00067   2.03895
    R7        2.51653   0.00173   0.00000   0.00288   0.00288   2.51941
    R8        2.03819   0.00037   0.00000   0.00103   0.00103   2.03922
    A1        2.03678  -0.00401   0.00000  -0.01686  -0.01690   2.01988
    A2        2.12242   0.00195   0.00000   0.00812   0.00810   2.13052
    A3        2.12396   0.00206   0.00000   0.00883   0.00881   2.13277
    A4        1.80446   0.00204   0.00000   0.00906   0.00903   1.81349
    A5        1.88860   0.00022   0.00000   0.00076   0.00071   1.88931
    A6        2.11493   0.00088   0.00000   0.00584   0.00584   2.12077
    A7        2.27965  -0.00111   0.00000  -0.00657  -0.00656   2.27309
    A8        1.89359  -0.00147   0.00000  -0.00681  -0.00684   1.88676
    A9        2.27741  -0.00032   0.00000  -0.00318  -0.00316   2.27425
   A10        2.11218   0.00179   0.00000   0.00999   0.01000   2.12218
   A11        1.80132   0.00321   0.00000   0.01397   0.01395   1.81527
    D1        0.00660  -0.00044   0.00000  -0.01780  -0.01772  -0.01111
    D2        3.14059  -0.00009   0.00000  -0.00378  -0.00377   3.13682
    D3       -0.00517   0.00033   0.00000   0.01346   0.01341   0.00825
    D4       -3.13914  -0.00001   0.00000  -0.00057  -0.00055  -3.13969
    D5       -0.00503   0.00032   0.00000   0.01393   0.01405   0.00902
    D6        3.13993   0.00014   0.00000   0.00527   0.00530  -3.13796
    D7        0.00234  -0.00017   0.00000  -0.00704  -0.00701  -0.00468
    D8       -3.13864  -0.00017   0.00000  -0.00754  -0.00755   3.13699
    D9        3.14013   0.00005   0.00000   0.00277   0.00280  -3.14026
   D10       -0.00085   0.00005   0.00000   0.00226   0.00226   0.00141
   D11        0.00147  -0.00008   0.00000  -0.00324  -0.00330  -0.00182
   D12       -3.14067  -0.00008   0.00000  -0.00280  -0.00282   3.13970
         Item               Value     Threshold  Converged?
 Maximum Force            0.005342     0.000450     NO 
 RMS     Force            0.001860     0.000300     NO 
 Maximum Displacement     0.025579     0.001800     NO 
 RMS     Displacement     0.008980     0.001200     NO 
 Predicted change in Energy=-1.779204D-04
 GradGradGradGradGradGradGradGradGradGradGradGradGradGradGradGradGradGrad

                          Input orientation:                          
 ---------------------------------------------------------------------
 Center     Atomic      Atomic             Coordinates (Angstroms)
 Number     Number       Type             X           Y           Z
 ---------------------------------------------------------------------
      1          7           0        1.055441   -0.024173    0.001297
      2          7           0        0.329915   -1.124153   -0.005456
      3          6           0       -0.927022   -0.679029    0.001205
      4          6           0       -0.896470    0.720533    0.000067
      5          7           0        0.379489    1.107048   -0.001348
      6          1           0       -1.765680   -1.357867    0.001370
      7          1           0       -1.703979    1.436354    0.000261
      8          1           0        2.069400   -0.047861    0.002645
 ---------------------------------------------------------------------
                    Distance matrix (angstroms):
                    1          2          3          4          5
     1  N    0.000000
     2  N    1.317722   0.000000
     3  C    2.087821   1.333443   0.000000
     4  C    2.089149   2.215156   1.399896   0.000000
     5  N    1.317793   2.231755   2.212927   1.333216   0.000000
     6  H    3.120490   2.108598   1.078965   2.252837   3.267653
     7  H    3.122105   3.270008   2.253555   1.079107   2.109332
     8  H    1.014236   2.045551   3.062176   3.063791   2.046858
                    6          7          8
     6  H    0.000000
     7  H    2.794902   0.000000
     8  H    4.052647   4.054786   0.000000
 Stoichiometry    C2H3N3
 Framework group  C1[X(C2H3N3)]
 Deg. of freedom    18
 Full point group                 C1      NOp   1
 Largest Abelian subgroup         C1      NOp   1
 Largest concise Abelian subgroup C1      NOp   1
                         Standard orientation:                         
 ---------------------------------------------------------------------
 Center     Atomic      Atomic             Coordinates (Angstroms)
 Number     Number       Type             X           Y           Z
 ---------------------------------------------------------------------
      1          7           0        1.055321    0.008835    0.002447
      2          7           0        0.364276   -1.113133   -0.003521
      3          6           0       -0.905869   -0.707215    0.002253
      4          6           0       -0.918755    0.692619   -0.000211
      5          7           0        0.344598    1.118535   -0.001526
      6          1           0       -1.723061   -1.411746    0.002758
      7          1           0       -1.748085    1.383041   -0.000997
      8          1           0        2.069526    0.016620    0.004191
 ---------------------------------------------------------------------
 Rotational constants (GHZ):          10.2197749           9.9938399           5.0528104
 Standard basis: 6-31+G(d,p) (6D, 7F)
 There are   110 symmetry adapted cartesian basis functions of A   symmetry.
 There are   110 symmetry adapted basis functions of A   symmetry.
   110 basis functions,   181 primitive gaussians,   110 cartesian basis functions
    18 alpha electrons       18 beta electrons
       nuclear repulsion energy       165.9325580257 Hartrees.
 NAtoms=    8 NActive=    8 NUniq=    8 SFac= 1.00D+00 NAtFMM=   60 NAOKFM=F Big=F
 Integral buffers will be    131072 words long.
 Raffenetti 2 integral format.
 Two-electron integral symmetry is turned on.
 ------------------------------------------------------------------------------
 Polarizable Continuum Model (PCM)
 =================================
 Model                : PCM.
 Atomic radii         : SMD-Coulomb.
 Polarization charges : Total charges.
 Charge compensation  : None.
 Solution method      : On-the-fly selection.
 Cavity type          : VdW (van der Waals Surface) (Alpha=1.000).
 Cavity algorithm     : GePol (No added spheres)
                        Default sphere list used, NSphG=    8.
                        Lebedev-Laikov grids with approx.  5.0 points / Ang**2.
                        Smoothing algorithm: York/Karplus (Gamma=1.0000).
                        Polarization charges: spherical gaussians, with
                                              point-specific exponents (IZeta= 3).
                        Self-potential: point-specific (ISelfS= 7).
                        Self-field    : sphere-specific E.n sum rule (ISelfD= 2).
 1st derivatives      : Analytical E(r).r(x)/FMM algorithm (CHGder, D1EAlg=3).
                        Cavity 1st derivative terms included.
 Solvent              : Water, Eps=  78.355300 Eps(inf)=   1.777849
 ------------------------------------------------------------------------------
 Spheres list:
 ISph  on   Nord     Re0    Alpha      Xe            Ye            Ze
    1   N      1    1.8900  1.000      1.055321      0.008835      0.002447
    2   N      2    1.8900  1.000      0.364276     -1.113133     -0.003521
    3   C      3    1.8500  1.000     -0.905869     -0.707215      0.002253
    4   C      4    1.8500  1.000     -0.918755      0.692619     -0.000211
    5   N      5    1.8900  1.000      0.344598      1.118535     -0.001526
    6   H      6    1.2000  1.000     -1.723061     -1.411746      0.002758
    7   H      7    1.2000  1.000     -1.748085      1.383041     -0.000997
    8   H      8    1.2000  1.000      2.069526      0.016620      0.004191
 ------------------------------------------------------------------------------
 ------------------------------------------------------------------------------
 Atomic radii for non-electrostatic terms: SMD-CDS.
 ------------------------------------------------------------------------------
 Nuclear repulsion after PCM non-electrostatic terms =      165.9340685483 Hartrees.
 One-electron integrals computed using PRISM.
 NBasis=   110 RedAO= T EigKep=  7.70D-05  NBF=   110
 NBsUse=   110 1.00D-06 EigRej= -1.00D+00 NBFU=   110
 Initial guess from the checkpoint file:  "/scratch/gongke2021/2-H-Tz/Gau-7336.chk"
 B after Tr=     0.000000   -0.000000    0.000000
         Rot=    0.999879    0.000000   -0.000001   -0.015532 Ang=   1.78 deg.
 ExpMin= 4.38D-02 ExpMax= 4.17D+03 ExpMxC= 6.27D+02 IAcc=2 IRadAn=         4 AccDes= 0.00D+00
 Harris functional with IExCor= 1009 and IRadAn=       4 diagonalized for initial guess.
 HarFok:  IExCor= 1009 AccDes= 0.00D+00 IRadAn=         4 IDoV= 1 UseB2=F ITyADJ=14
 ICtDFT=  3500011 ScaDFX=  1.000000  1.000000  1.000000  1.000000
 FoFCou: FMM=F IPFlag=           0 FMFlag=      100000 FMFlg1=           0
         NFxFlg=           0 DoJE=T BraDBF=F KetDBF=T FulRan=T
         wScrn=  0.000000 ICntrl=       500 IOpCl=  0 I1Cent=   200000004 NGrid=           0
         NMat0=    1 NMatS0=      1 NMatT0=    0 NMatD0=    1 NMtDS0=    0 NMtDT0=    0
 Petite list used in FoFCou.
 Keep R1 ints in memory in canonical form, NReq=41063497.
 Requested convergence on RMS density matrix=1.00D-08 within 128 cycles.
 Requested convergence on MAX density matrix=1.00D-06.
 Requested convergence on             energy=1.00D-06.
 No special actions if energy rises.
 Inv3:  Mode=1 IEnd=     1934427.
 Iteration    1 A*A^-1 deviation from unit magnitude is 3.44D-15 for      4.
 Iteration    1 A*A^-1 deviation from orthogonality  is 1.51D-15 for    757     83.
 Iteration    1 A^-1*A deviation from unit magnitude is 2.89D-15 for    125.
 Iteration    1 A^-1*A deviation from orthogonality  is 1.33D-15 for    729    677.
 Error on total polarization charges =  0.02393
 SCF Done:  E(RM062X) =  -242.159333461     A.U. after   11 cycles
            NFock= 11  Conv=0.33D-08     -V/T= 2.0084
 SMD-CDS (non-electrostatic) energy       (kcal/mol) =       0.95
 (included in total energy above)
 D1PCM: PCM CHGder 1st derivatives, ID1Alg=3 FixD1E=F DoIter=F DoCFld=F I1PDM=0.
 Calling FoFJK, ICntrl=      2127 FMM=F ISym2X=0 I1Cent= 0 IOpClX= 0 NMat=1 NMatS=1 NMatT=0.
 ***** Axes restored to original set *****
 -------------------------------------------------------------------
 Center     Atomic                   Forces (Hartrees/Bohr)
 Number     Number              X              Y              Z
 -------------------------------------------------------------------
      1        7          -0.004451861    0.000070613   -0.001254353
      2        7           0.000779034   -0.002439182    0.001627107
      3        6           0.000638617   -0.000022765   -0.001017531
      4        6           0.001240905   -0.000801371    0.000125819
      5        7           0.001649874    0.003058832    0.000800099
      6        1           0.000074654   -0.000055218   -0.000076827
      7        1           0.000216949   -0.000024568    0.000017908
      8        1          -0.000148173    0.000213657   -0.000222221
 -------------------------------------------------------------------
 Cartesian Forces:  Max     0.004451861 RMS     0.001401505

 GradGradGradGradGradGradGradGradGradGradGradGradGradGradGradGradGradGrad
 Berny optimization.
 Using GEDIIS/GDIIS optimizer.
 FormGI is forming the generalized inverse of G from B-inverse, IUseBI=4.
 Internal  Forces:  Max     0.003075108 RMS     0.001009818
 Search for a local minimum.
 Step number   2 out of a maximum of   41
 All quantities printed in internal units (Hartrees-Bohrs-Radians)
 Mixed Optimization -- RFO/linear search
 Update second derivatives using D2CorX and points    1    2
 DE= -7.42D-05 DEPred=-1.78D-04 R= 4.17D-01
 Trust test= 4.17D-01 RLast= 4.57D-02 DXMaxT set to 3.00D-01
 ITU=  0  0
 Use linear search instead of GDIIS.
     Eigenvalues ---    0.02125   0.02235   0.02328   0.02374   0.02710
     Eigenvalues ---    0.15625   0.16000   0.16018   0.22579   0.34002
     Eigenvalues ---    0.36159   0.36255   0.41370   0.44976   0.53577
     Eigenvalues ---    0.56484   0.60121   0.61909
 RFO step:  Lambda=-3.22810203D-05 EMin= 2.12457523D-02
 Quartic linear search produced a step of -0.36799.
 Iteration  1 RMS(Cart)=  0.00435989 RMS(Int)=  0.00003301
 Iteration  2 RMS(Cart)=  0.00002938 RMS(Int)=  0.00001366
 Iteration  3 RMS(Cart)=  0.00000000 RMS(Int)=  0.00001366
 Variable       Old X    -DE/DX   Delta X   Delta X   Delta X     New X
                                 (Linear)    (Quad)   (Total)
    R1        2.49013   0.00034   0.00097  -0.00089   0.00007   2.49020
    R2        2.49027  -0.00012   0.00003  -0.00019  -0.00017   2.49010
    R3        1.91663  -0.00015  -0.00336   0.00398   0.00062   1.91724
    R4        2.51984  -0.00089  -0.00173   0.00123  -0.00050   2.51934
    R5        2.64542   0.00081   0.00452  -0.00443   0.00010   2.64552
    R6        2.03895  -0.00002  -0.00025   0.00027   0.00002   2.03897
    R7        2.51941  -0.00046  -0.00106   0.00083  -0.00022   2.51919
    R8        2.03922  -0.00018  -0.00038   0.00016  -0.00022   2.03900
    A1        2.01988   0.00308   0.00622   0.00070   0.00688   2.02676
    A2        2.13052  -0.00134  -0.00298   0.00030  -0.00268   2.12784
    A3        2.13277  -0.00174  -0.00324  -0.00095  -0.00419   2.12857
    A4        1.81349  -0.00204  -0.00332  -0.00140  -0.00476   1.80873
    A5        1.88931   0.00039  -0.00026   0.00134   0.00105   1.89037
    A6        2.12077  -0.00028  -0.00215   0.00182  -0.00033   2.12044
    A7        2.27309  -0.00010   0.00242  -0.00313  -0.00071   2.27237
    A8        1.88676   0.00123   0.00252   0.00026   0.00277   1.88953
    A9        2.27425  -0.00049   0.00116  -0.00263  -0.00146   2.27279
   A10        2.12218  -0.00075  -0.00368   0.00237  -0.00131   2.12087
   A11        1.81527  -0.00265  -0.00513  -0.00076  -0.00591   1.80936
    D1       -0.01111   0.00078   0.00652   0.01280   0.01932   0.00820
    D2        3.13682   0.00028   0.00139   0.00579   0.00716  -3.13920
    D3        0.00825  -0.00058  -0.00494  -0.00917  -0.01412  -0.00587
    D4       -3.13969  -0.00008   0.00020  -0.00214  -0.00195   3.14154
    D5        0.00902  -0.00065  -0.00517  -0.01070  -0.01587  -0.00685
    D6       -3.13796  -0.00031  -0.00195  -0.00484  -0.00677   3.13846
    D7       -0.00468   0.00033   0.00258   0.00591   0.00850   0.00383
    D8        3.13699   0.00028   0.00278   0.00480   0.00758  -3.13862
    D9       -3.14026  -0.00006  -0.00103  -0.00065  -0.00167   3.14127
   D10        0.00141  -0.00010  -0.00083  -0.00177  -0.00259  -0.00118
   D11       -0.00182   0.00014   0.00121   0.00160   0.00281   0.00099
   D12        3.13970   0.00017   0.00104   0.00260   0.00364  -3.13984
         Item               Value     Threshold  Converged?
 Maximum Force            0.003075     0.000450     NO 
 RMS     Force            0.001010     0.000300     NO 
 Maximum Displacement     0.016716     0.001800     NO 
 RMS     Displacement     0.004365     0.001200     NO 
 Predicted change in Energy=-5.359404D-05
 GradGradGradGradGradGradGradGradGradGradGradGradGradGradGradGradGradGrad

                          Input orientation:                          
 ---------------------------------------------------------------------
 Center     Atomic      Atomic             Coordinates (Angstroms)
 Number     Number       Type             X           Y           Z
 ---------------------------------------------------------------------
      1          7           0        1.052208   -0.024041   -0.001225
      2          7           0        0.330186   -1.126381    0.003390
      3          6           0       -0.925807   -0.679368   -0.001173
      4          6           0       -0.894522    0.720230    0.000536
      5          7           0        0.380452    1.109574    0.001278
      6          1           0       -1.765312   -1.357174   -0.001905
      7          1           0       -1.702615    1.435218    0.000536
      8          1           0        2.066505   -0.047205   -0.001397
 ---------------------------------------------------------------------
                    Distance matrix (angstroms):
                    1          2          3          4          5
     1  N    0.000000
     2  N    1.317760   0.000000
     3  C    2.083746   1.333177   0.000000
     4  C    2.084155   2.215828   1.399949   0.000000
     5  N    1.317705   2.236522   2.215093   1.333098   0.000000
     6  H    3.116995   2.108176   1.078976   2.252529   3.269428
     7  H    3.117449   3.270180   2.252755   1.078990   2.108367
     8  H    1.014562   2.044370   3.058360   3.058863   2.044730
                    6          7          8
     6  H    0.000000
     7  H    2.793096   0.000000
     8  H    4.049548   4.050166   0.000000
 Stoichiometry    C2H3N3
 Framework group  C1[X(C2H3N3)]
 Deg. of freedom    18
 Full point group                 C1      NOp   1
 Largest Abelian subgroup         C1      NOp   1
 Largest concise Abelian subgroup C1      NOp   1
                         Standard orientation:                         
 ---------------------------------------------------------------------
 Center     Atomic      Atomic             Coordinates (Angstroms)
 Number     Number       Type             X           Y           Z
 ---------------------------------------------------------------------
      1          7           0        1.052013    0.002917   -0.001908
      2          7           0        0.358182   -1.117381    0.002594
      3          6           0       -0.908745   -0.702366   -0.001643
      4          6           0       -0.912967    0.697575    0.000372
      5          7           0        0.351723    1.119131    0.000969
      6          1           0       -1.730789   -1.401245   -0.002372
      7          1           0       -1.738933    1.391838    0.000677
      8          1           0        2.066571    0.005486   -0.002268
 ---------------------------------------------------------------------
 Rotational constants (GHZ):          10.2550765           9.9655675           5.0541453
 Standard basis: 6-31+G(d,p) (6D, 7F)
 There are   110 symmetry adapted cartesian basis functions of A   symmetry.
 There are   110 symmetry adapted basis functions of A   symmetry.
   110 basis functions,   181 primitive gaussians,   110 cartesian basis functions
    18 alpha electrons       18 beta electrons
       nuclear repulsion energy       165.9559564041 Hartrees.
 NAtoms=    8 NActive=    8 NUniq=    8 SFac= 1.00D+00 NAtFMM=   60 NAOKFM=F Big=F
 Integral buffers will be    131072 words long.
 Raffenetti 2 integral format.
 Two-electron integral symmetry is turned on.
 ------------------------------------------------------------------------------
 Polarizable Continuum Model (PCM)
 =================================
 Model                : PCM.
 Atomic radii         : SMD-Coulomb.
 Polarization charges : Total charges.
 Charge compensation  : None.
 Solution method      : On-the-fly selection.
 Cavity type          : VdW (van der Waals Surface) (Alpha=1.000).
 Cavity algorithm     : GePol (No added spheres)
                        Default sphere list used, NSphG=    8.
                        Lebedev-Laikov grids with approx.  5.0 points / Ang**2.
                        Smoothing algorithm: York/Karplus (Gamma=1.0000).
                        Polarization charges: spherical gaussians, with
                                              point-specific exponents (IZeta= 3).
                        Self-potential: point-specific (ISelfS= 7).
                        Self-field    : sphere-specific E.n sum rule (ISelfD= 2).
 1st derivatives      : Analytical E(r).r(x)/FMM algorithm (CHGder, D1EAlg=3).
                        Cavity 1st derivative terms included.
 Solvent              : Water, Eps=  78.355300 Eps(inf)=   1.777849
 ------------------------------------------------------------------------------
 Spheres list:
 ISph  on   Nord     Re0    Alpha      Xe            Ye            Ze
    1   N      1    1.8900  1.000      1.052013      0.002917     -0.001908
    2   N      2    1.8900  1.000      0.358182     -1.117381      0.002594
    3   C      3    1.8500  1.000     -0.908745     -0.702366     -0.001643
    4   C      4    1.8500  1.000     -0.912967      0.697575      0.000372
    5   N      5    1.8900  1.000      0.351723      1.119131      0.000969
    6   H      6    1.2000  1.000     -1.730789     -1.401245     -0.002372
    7   H      7    1.2000  1.000     -1.738933      1.391838      0.000677
    8   H      8    1.2000  1.000      2.066571      0.005486     -0.002268
 ------------------------------------------------------------------------------
 ------------------------------------------------------------------------------
 Atomic radii for non-electrostatic terms: SMD-CDS.
 ------------------------------------------------------------------------------
 Nuclear repulsion after PCM non-electrostatic terms =      165.9574394571 Hartrees.
 One-electron integrals computed using PRISM.
 NBasis=   110 RedAO= T EigKep=  7.67D-05  NBF=   110
 NBsUse=   110 1.00D-06 EigRej= -1.00D+00 NBFU=   110
 Initial guess from the checkpoint file:  "/scratch/gongke2021/2-H-Tz/Gau-7336.chk"
 B after Tr=     0.000000    0.000000   -0.000000
         Rot=    0.999996    0.000000    0.000000    0.002858 Ang=   0.33 deg.
 Keep R1 ints in memory in canonical form, NReq=41063497.
 Requested convergence on RMS density matrix=1.00D-08 within 128 cycles.
 Requested convergence on MAX density matrix=1.00D-06.
 Requested convergence on             energy=1.00D-06.
 No special actions if energy rises.
 Inv3:  Mode=1 IEnd=     1929612.
 Iteration    1 A*A^-1 deviation from unit magnitude is 2.44D-15 for    246.
 Iteration    1 A*A^-1 deviation from orthogonality  is 1.55D-15 for    688     51.
 Iteration    1 A^-1*A deviation from unit magnitude is 2.89D-15 for     26.
 Iteration    1 A^-1*A deviation from orthogonality  is 1.14D-15 for    725    526.
 Error on total polarization charges =  0.02392
 SCF Done:  E(RM062X) =  -242.159375616     A.U. after   10 cycles
            NFock= 10  Conv=0.57D-08     -V/T= 2.0084
 SMD-CDS (non-electrostatic) energy       (kcal/mol) =       0.93
 (included in total energy above)
 D1PCM: PCM CHGder 1st derivatives, ID1Alg=3 FixD1E=F DoIter=F DoCFld=F I1PDM=0.
 Calling FoFJK, ICntrl=      2127 FMM=F ISym2X=0 I1Cent= 0 IOpClX= 0 NMat=1 NMatS=1 NMatT=0.
 ***** Axes restored to original set *****
 -------------------------------------------------------------------
 Center     Atomic                   Forces (Hartrees/Bohr)
 Number     Number              X              Y              Z
 -------------------------------------------------------------------
      1        7          -0.000382964   -0.000048209    0.000933374
      2        7           0.000398386   -0.000257555   -0.001198075
      3        6          -0.000241015   -0.000089639    0.000755058
      4        6          -0.000033367   -0.000169404   -0.000180155
      5        7           0.000634735    0.000500902   -0.000518280
      6        1          -0.000001529    0.000024970    0.000074163
      7        1           0.000024158   -0.000037345   -0.000001726
      8        1          -0.000398403    0.000076280    0.000135640
 -------------------------------------------------------------------
 Cartesian Forces:  Max     0.001198075 RMS     0.000432655

 GradGradGradGradGradGradGradGradGradGradGradGradGradGradGradGradGradGrad
 Berny optimization.
 Using GEDIIS/GDIIS optimizer.
 FormGI is forming the generalized inverse of G from B-inverse, IUseBI=4.
 Internal  Forces:  Max     0.000571279 RMS     0.000246623
 Search for a local minimum.
 Step number   3 out of a maximum of   41
 All quantities printed in internal units (Hartrees-Bohrs-Radians)
 Mixed Optimization -- En-DIIS/RFO-DIIS
 Update second derivatives using D2CorX and points    1    2    3
 DE= -4.22D-05 DEPred=-5.36D-05 R= 7.87D-01
 TightC=F SS=  1.41D+00  RLast= 3.51D-02 DXNew= 5.0454D-01 1.0519D-01
 Trust test= 7.87D-01 RLast= 3.51D-02 DXMaxT set to 3.00D-01
 ITU=  1  0  0
 Use linear search instead of GDIIS.
     Eigenvalues ---    0.02125   0.02238   0.02341   0.02378   0.05296
     Eigenvalues ---    0.15070   0.16000   0.16020   0.22668   0.26933
     Eigenvalues ---    0.36160   0.36184   0.41649   0.45826   0.53600
     Eigenvalues ---    0.56469   0.60213   0.61908
 RFO step:  Lambda=-1.92644348D-05 EMin= 2.12487601D-02
 Quartic linear search produced a step of -0.17726.
 Iteration  1 RMS(Cart)=  0.00242665 RMS(Int)=  0.00001257
 Iteration  2 RMS(Cart)=  0.00000999 RMS(Int)=  0.00000715
 Iteration  3 RMS(Cart)=  0.00000000 RMS(Int)=  0.00000715
 Variable       Old X    -DE/DX   Delta X   Delta X   Delta X     New X
                                 (Linear)    (Quad)   (Total)
    R1        2.49020  -0.00001  -0.00001  -0.00011  -0.00012   2.49008
    R2        2.49010  -0.00010   0.00003  -0.00023  -0.00020   2.48990
    R3        1.91724  -0.00040  -0.00011   0.00007  -0.00004   1.91720
    R4        2.51934   0.00011   0.00009   0.00008   0.00017   2.51951
    R5        2.64552   0.00014  -0.00002  -0.00019  -0.00020   2.64532
    R6        2.03897  -0.00001  -0.00000   0.00001   0.00001   2.03897
    R7        2.51919   0.00025   0.00004   0.00031   0.00035   2.51954
    R8        2.03900  -0.00004   0.00004  -0.00015  -0.00011   2.03889
    A1        2.02676   0.00050  -0.00122   0.00415   0.00292   2.02969
    A2        2.12784  -0.00019   0.00048  -0.00143  -0.00095   2.12688
    A3        2.12857  -0.00031   0.00074  -0.00270  -0.00196   2.12662
    A4        1.80873  -0.00021   0.00084  -0.00267  -0.00183   1.80690
    A5        1.89037  -0.00007  -0.00019   0.00041   0.00022   1.89058
    A6        2.12044   0.00006   0.00006   0.00024   0.00030   2.12074
    A7        2.27237   0.00001   0.00013  -0.00064  -0.00051   2.27186
    A8        1.88953   0.00020  -0.00049   0.00179   0.00130   1.89082
    A9        2.27279  -0.00011   0.00026  -0.00125  -0.00099   2.27180
   A10        2.12087  -0.00009   0.00023  -0.00054  -0.00031   2.12056
   A11        1.80936  -0.00042   0.00105  -0.00362  -0.00258   1.80678
    D1        0.00820  -0.00057  -0.00342  -0.00796  -0.01140  -0.00320
    D2       -3.13920  -0.00019  -0.00127  -0.00242  -0.00368   3.14030
    D3       -0.00587   0.00041   0.00250   0.00531   0.00783   0.00196
    D4        3.14154   0.00003   0.00035  -0.00024   0.00011  -3.14154
    D5       -0.00685   0.00048   0.00281   0.00704   0.00984   0.00298
    D6        3.13846   0.00023   0.00120   0.00315   0.00433  -3.14040
    D7        0.00383  -0.00027  -0.00151  -0.00434  -0.00585  -0.00203
    D8       -3.13862  -0.00020  -0.00134  -0.00300  -0.00434   3.14023
    D9        3.14127   0.00001   0.00030   0.00001   0.00030   3.14156
   D10       -0.00118   0.00008   0.00046   0.00135   0.00181   0.00063
   D11        0.00099  -0.00007  -0.00050  -0.00038  -0.00087   0.00012
   D12       -3.13984  -0.00013  -0.00065  -0.00158  -0.00222   3.14112
         Item               Value     Threshold  Converged?
 Maximum Force            0.000571     0.000450     NO 
 RMS     Force            0.000247     0.000300     YES
 Maximum Displacement     0.010064     0.001800     NO 
 RMS     Displacement     0.002427     0.001200     NO 
 Predicted change in Energy=-1.161253D-05
 GradGradGradGradGradGradGradGradGradGradGradGradGradGradGradGradGradGrad

                          Input orientation:                          
 ---------------------------------------------------------------------
 Center     Atomic      Atomic             Coordinates (Angstroms)
 Number     Number       Type             X           Y           Z
 ---------------------------------------------------------------------
      1          7           0        1.050991   -0.023995    0.000444
      2          7           0        0.330438   -1.127225   -0.001936
      3          6           0       -0.925403   -0.679502    0.000239
      4          6           0       -0.893660    0.719980   -0.000017
      5          7           0        0.381116    1.110613    0.000218
      6          1           0       -1.765479   -1.356604    0.000189
      7          1           0       -1.702182    1.434392    0.000197
      8          1           0        2.065273   -0.046808    0.000705
 ---------------------------------------------------------------------
                    Distance matrix (angstroms):
                    1          2          3          4          5
     1  N    0.000000
     2  N    1.317694   0.000000
     3  C    2.082263   1.333265   0.000000
     4  C    2.082106   2.215983   1.399841   0.000000
     5  N    1.317599   2.238413   2.216191   1.333284   0.000000
     6  H    3.115822   2.108432   1.078979   2.252169   3.270325
     7  H    3.115582   3.270081   2.252096   1.078932   2.108308
     8  H    1.014539   2.043761   3.056868   3.056672   2.043528
                    6          7          8
     6  H    0.000000
     7  H    2.791714   0.000000
     8  H    4.048484   4.048169   0.000000
 Stoichiometry    C2H3N3
 Framework group  C1[X(C2H3N3)]
 Deg. of freedom    18
 Full point group                 C1      NOp   1
 Largest Abelian subgroup         C1      NOp   1
 Largest concise Abelian subgroup C1      NOp   1
                         Standard orientation:                         
 ---------------------------------------------------------------------
 Center     Atomic      Atomic             Coordinates (Angstroms)
 Number     Number       Type             X           Y           Z
 ---------------------------------------------------------------------
      1          7           0        1.050673   -0.001135    0.000675
      2          7           0        0.353987   -1.119590   -0.001091
      3          6           0       -0.911182   -0.698949    0.000781
      4          6           0       -0.909512    0.700891   -0.000286
      5          7           0        0.356578    1.118821   -0.000232
      6          1           0       -1.736518   -1.393942    0.001094
      7          1           0       -1.733195    1.397770   -0.000515
      8          1           0        2.065211   -0.002152    0.000985
 ---------------------------------------------------------------------
 Rotational constants (GHZ):          10.2678450           9.9551018           5.0545310
 Standard basis: 6-31+G(d,p) (6D, 7F)
 There are   110 symmetry adapted cartesian basis functions of A   symmetry.
 There are   110 symmetry adapted basis functions of A   symmetry.
   110 basis functions,   181 primitive gaussians,   110 cartesian basis functions
    18 alpha electrons       18 beta electrons
       nuclear repulsion energy       165.9633875403 Hartrees.
 NAtoms=    8 NActive=    8 NUniq=    8 SFac= 1.00D+00 NAtFMM=   60 NAOKFM=F Big=F
 Integral buffers will be    131072 words long.
 Raffenetti 2 integral format.
 Two-electron integral symmetry is turned on.
 ------------------------------------------------------------------------------
 Polarizable Continuum Model (PCM)
 =================================
 Model                : PCM.
 Atomic radii         : SMD-Coulomb.
 Polarization charges : Total charges.
 Charge compensation  : None.
 Solution method      : On-the-fly selection.
 Cavity type          : VdW (van der Waals Surface) (Alpha=1.000).
 Cavity algorithm     : GePol (No added spheres)
                        Default sphere list used, NSphG=    8.
                        Lebedev-Laikov grids with approx.  5.0 points / Ang**2.
                        Smoothing algorithm: York/Karplus (Gamma=1.0000).
                        Polarization charges: spherical gaussians, with
                                              point-specific exponents (IZeta= 3).
                        Self-potential: point-specific (ISelfS= 7).
                        Self-field    : sphere-specific E.n sum rule (ISelfD= 2).
 1st derivatives      : Analytical E(r).r(x)/FMM algorithm (CHGder, D1EAlg=3).
                        Cavity 1st derivative terms included.
 Solvent              : Water, Eps=  78.355300 Eps(inf)=   1.777849
 ------------------------------------------------------------------------------
 Spheres list:
 ISph  on   Nord     Re0    Alpha      Xe            Ye            Ze
    1   N      1    1.8900  1.000      1.050673     -0.001135      0.000675
    2   N      2    1.8900  1.000      0.353987     -1.119590     -0.001091
    3   C      3    1.8500  1.000     -0.911182     -0.698949      0.000781
    4   C      4    1.8500  1.000     -0.909512      0.700891     -0.000286
    5   N      5    1.8900  1.000      0.356578      1.118821     -0.000232
    6   H      6    1.2000  1.000     -1.736518     -1.393942      0.001094
    7   H      7    1.2000  1.000     -1.733195      1.397770     -0.000515
    8   H      8    1.2000  1.000      2.065211     -0.002152      0.000985
 ------------------------------------------------------------------------------
 ------------------------------------------------------------------------------
 Atomic radii for non-electrostatic terms: SMD-CDS.
 ------------------------------------------------------------------------------
 Nuclear repulsion after PCM non-electrostatic terms =      165.9648576399 Hartrees.
 One-electron integrals computed using PRISM.
 NBasis=   110 RedAO= T EigKep=  7.65D-05  NBF=   110
 NBsUse=   110 1.00D-06 EigRej= -1.00D+00 NBFU=   110
 Initial guess from the checkpoint file:  "/scratch/gongke2021/2-H-Tz/Gau-7336.chk"
 B after Tr=    -0.000000   -0.000000    0.000000
         Rot=    0.999998   -0.000000   -0.000000    0.001957 Ang=  -0.22 deg.
 Keep R1 ints in memory in canonical form, NReq=41063497.
 Requested convergence on RMS density matrix=1.00D-08 within 128 cycles.
 Requested convergence on MAX density matrix=1.00D-06.
 Requested convergence on             energy=1.00D-06.
 No special actions if energy rises.
 Inv3:  Mode=1 IEnd=     1915203.
 Iteration    1 A*A^-1 deviation from unit magnitude is 3.55D-15 for    244.
 Iteration    1 A*A^-1 deviation from orthogonality  is 1.21D-15 for    756    427.
 Iteration    1 A^-1*A deviation from unit magnitude is 3.33D-15 for    244.
 Iteration    1 A^-1*A deviation from orthogonality  is 1.42D-15 for    772     72.
 Error on total polarization charges =  0.02391
 SCF Done:  E(RM062X) =  -242.159380923     A.U. after    9 cycles
            NFock=  9  Conv=0.36D-08     -V/T= 2.0084
 SMD-CDS (non-electrostatic) energy       (kcal/mol) =       0.92
 (included in total energy above)
 D1PCM: PCM CHGder 1st derivatives, ID1Alg=3 FixD1E=F DoIter=F DoCFld=F I1PDM=0.
 Calling FoFJK, ICntrl=      2127 FMM=F ISym2X=0 I1Cent= 0 IOpClX= 0 NMat=1 NMatS=1 NMatT=0.
 ***** Axes restored to original set *****
 -------------------------------------------------------------------
 Center     Atomic                   Forces (Hartrees/Bohr)
 Number     Number              X              Y              Z
 -------------------------------------------------------------------
      1        7           0.001135814   -0.000071163   -0.000337605
      2        7           0.000099728    0.000552885    0.000498546
      3        6          -0.000387816   -0.000118439   -0.000358190
      4        6          -0.000426773    0.000203328    0.000136924
      5        7          -0.000029042   -0.000566799    0.000138154
      6        1           0.000000687    0.000026135   -0.000031538
      7        1          -0.000035995   -0.000006832    0.000008290
      8        1          -0.000356604   -0.000019115   -0.000054581
 -------------------------------------------------------------------
 Cartesian Forces:  Max     0.001135814 RMS     0.000352552

 GradGradGradGradGradGradGradGradGradGradGradGradGradGradGradGradGradGrad
 Berny optimization.
 Using GEDIIS/GDIIS optimizer.
 FormGI is forming the generalized inverse of G from B-inverse, IUseBI=4.
 Internal  Forces:  Max     0.000539333 RMS     0.000227333
 Search for a local minimum.
 Step number   4 out of a maximum of   41
 All quantities printed in internal units (Hartrees-Bohrs-Radians)
 Mixed Optimization -- En-DIIS/RFO-DIIS
 Swapping is turned off.
 Update second derivatives using D2CorX and points    1    2    3    4
 DE= -5.31D-06 DEPred=-1.16D-05 R= 4.57D-01
 Trust test= 4.57D-01 RLast= 2.02D-02 DXMaxT set to 3.00D-01
 ITU=  0  1  0  0
     Eigenvalues ---    0.02125   0.02238   0.02356   0.02373   0.07000
     Eigenvalues ---    0.14668   0.16000   0.16017   0.22634   0.31508
     Eigenvalues ---    0.36159   0.36186   0.40872   0.45497   0.53579
     Eigenvalues ---    0.57346   0.61117   0.62574
 En-DIIS/RFO-DIIS/Sim-DIIS IScMMF=       -3 using points:     4    3
 RFO step:  Lambda=-5.54418073D-06.
 DidBck=T Rises=F RFO-DIIS coefs:    0.69402    0.30598
 Iteration  1 RMS(Cart)=  0.00084692 RMS(Int)=  0.00000186
 Iteration  2 RMS(Cart)=  0.00000107 RMS(Int)=  0.00000148
 Iteration  3 RMS(Cart)=  0.00000000 RMS(Int)=  0.00000148
 Variable       Old X    -DE/DX   Delta X   Delta X   Delta X     New X
                                 (Linear)    (Quad)   (Total)
    R1        2.49008  -0.00015   0.00004  -0.00014  -0.00010   2.48998
    R2        2.48990  -0.00004   0.00006  -0.00011  -0.00004   2.48986
    R3        1.91720  -0.00036   0.00001  -0.00076  -0.00074   1.91646
    R4        2.51951   0.00036  -0.00005   0.00034   0.00029   2.51980
    R5        2.64532  -0.00006   0.00006   0.00017   0.00023   2.64555
    R6        2.03897  -0.00002  -0.00000  -0.00004  -0.00005   2.03893
    R7        2.51954   0.00032  -0.00011   0.00040   0.00029   2.51983
    R8        2.03889   0.00002   0.00003  -0.00001   0.00002   2.03891
    A1        2.02969  -0.00054  -0.00089  -0.00057  -0.00146   2.02823
    A2        2.12688   0.00024   0.00029   0.00031   0.00060   2.12749
    A3        2.12662   0.00030   0.00060   0.00025   0.00085   2.12747
    A4        1.80690   0.00046   0.00056   0.00065   0.00121   1.80811
    A5        1.89058  -0.00017  -0.00007  -0.00039  -0.00045   1.89013
    A6        2.12074   0.00010  -0.00009   0.00024   0.00014   2.12088
    A7        2.27186   0.00006   0.00016   0.00015   0.00031   2.27217
    A8        1.89082  -0.00026  -0.00040  -0.00018  -0.00058   1.89025
    A9        2.27180   0.00010   0.00030   0.00003   0.00034   2.27214
   A10        2.12056   0.00016   0.00009   0.00015   0.00024   2.12080
   A11        1.80678   0.00051   0.00079   0.00048   0.00128   1.80806
    D1       -0.00320   0.00023   0.00349  -0.00038   0.00311  -0.00008
    D2        3.14030   0.00009   0.00113   0.00018   0.00130  -3.14158
    D3        0.00196  -0.00014  -0.00239   0.00080  -0.00160   0.00036
    D4       -3.14154  -0.00000  -0.00003   0.00024   0.00021  -3.14132
    D5        0.00298  -0.00021  -0.00301  -0.00020  -0.00321  -0.00023
    D6       -3.14040  -0.00009  -0.00132   0.00013  -0.00119  -3.14159
    D7       -0.00203   0.00014   0.00179   0.00069   0.00248   0.00046
    D8        3.14023   0.00009   0.00133   0.00015   0.00148  -3.14148
    D9        3.14156   0.00001  -0.00009   0.00032   0.00023  -3.14139
   D10        0.00063  -0.00004  -0.00055  -0.00021  -0.00077  -0.00014
   D11        0.00012  -0.00001   0.00027  -0.00085  -0.00059  -0.00047
   D12        3.14112   0.00004   0.00068  -0.00037   0.00031   3.14143
         Item               Value     Threshold  Converged?
 Maximum Force            0.000539     0.000450     NO 
 RMS     Force            0.000227     0.000300     YES
 Maximum Displacement     0.003204     0.001800     NO 
 RMS     Displacement     0.000847     0.001200     YES
 Predicted change in Energy=-2.772187D-06
 GradGradGradGradGradGradGradGradGradGradGradGradGradGradGradGradGradGrad

                          Input orientation:                          
 ---------------------------------------------------------------------
 Center     Atomic      Atomic             Coordinates (Angstroms)
 Number     Number       Type             X           Y           Z
 ---------------------------------------------------------------------
      1          7           0        1.051760   -0.024006    0.000061
      2          7           0        0.330451   -1.126680   -0.000240
      3          6           0       -0.925758   -0.679528   -0.000302
      4          6           0       -0.894078    0.720079    0.000275
      5          7           0        0.381051    1.110082    0.000106
      6          1           0       -1.765576   -1.356911   -0.000533
      7          1           0       -1.702403    1.434733    0.000504
      8          1           0        2.065647   -0.046918    0.000169
 ---------------------------------------------------------------------
                    Distance matrix (angstroms):
                    1          2          3          4          5
     1  N    0.000000
     2  N    1.317641   0.000000
     3  C    2.083336   1.333419   0.000000
     4  C    2.083254   2.215849   1.399965   0.000000
     5  N    1.317576   2.237334   2.215954   1.333438   0.000000
     6  H    3.116733   2.108634   1.078954   2.252420   3.270178
     7  H    3.116622   3.270066   2.252394   1.078944   2.108596
     8  H    1.014145   2.043720   3.057564   3.057492   2.043652
                    6          7          8
     6  H    0.000000
     7  H    2.792359   0.000000
     8  H    4.048994   4.048887   0.000000
 Stoichiometry    C2H3N3
 Framework group  C1[X(C2H3N3)]
 Deg. of freedom    18
 Full point group                 C1      NOp   1
 Largest Abelian subgroup         C1      NOp   1
 Largest concise Abelian subgroup C1      NOp   1
                         Standard orientation:                         
 ---------------------------------------------------------------------
 Center     Atomic      Atomic             Coordinates (Angstroms)
 Number     Number       Type             X           Y           Z
 ---------------------------------------------------------------------
      1          7           0        1.051431   -0.000536    0.000052
      2          7           0        0.354619   -1.118852    0.000037
      3          6           0       -0.911147   -0.699517   -0.000098
      4          6           0       -0.910346    0.700448    0.000141
      5          7           0        0.355870    1.118482   -0.000157
      6          1           0       -1.735820   -1.395259   -0.000143
      7          1           0       -1.734237    1.397099    0.000221
      8          1           0        2.065576   -0.001080    0.000138
 ---------------------------------------------------------------------
 Rotational constants (GHZ):          10.2591533           9.9609745           5.0539327
 Standard basis: 6-31+G(d,p) (6D, 7F)
 There are   110 symmetry adapted cartesian basis functions of A   symmetry.
 There are   110 symmetry adapted basis functions of A   symmetry.
   110 basis functions,   181 primitive gaussians,   110 cartesian basis functions
    18 alpha electrons       18 beta electrons
       nuclear repulsion energy       165.9547094392 Hartrees.
 NAtoms=    8 NActive=    8 NUniq=    8 SFac= 1.00D+00 NAtFMM=   60 NAOKFM=F Big=F
 Integral buffers will be    131072 words long.
 Raffenetti 2 integral format.
 Two-electron integral symmetry is turned on.
 ------------------------------------------------------------------------------
 Polarizable Continuum Model (PCM)
 =================================
 Model                : PCM.
 Atomic radii         : SMD-Coulomb.
 Polarization charges : Total charges.
 Charge compensation  : None.
 Solution method      : On-the-fly selection.
 Cavity type          : VdW (van der Waals Surface) (Alpha=1.000).
 Cavity algorithm     : GePol (No added spheres)
                        Default sphere list used, NSphG=    8.
                        Lebedev-Laikov grids with approx.  5.0 points / Ang**2.
                        Smoothing algorithm: York/Karplus (Gamma=1.0000).
                        Polarization charges: spherical gaussians, with
                                              point-specific exponents (IZeta= 3).
                        Self-potential: point-specific (ISelfS= 7).
                        Self-field    : sphere-specific E.n sum rule (ISelfD= 2).
 1st derivatives      : Analytical E(r).r(x)/FMM algorithm (CHGder, D1EAlg=3).
                        Cavity 1st derivative terms included.
 Solvent              : Water, Eps=  78.355300 Eps(inf)=   1.777849
 ------------------------------------------------------------------------------
 Spheres list:
 ISph  on   Nord     Re0    Alpha      Xe            Ye            Ze
    1   N      1    1.8900  1.000      1.051431     -0.000536      0.000052
    2   N      2    1.8900  1.000      0.354619     -1.118852      0.000037
    3   C      3    1.8500  1.000     -0.911147     -0.699517     -0.000098
    4   C      4    1.8500  1.000     -0.910346      0.700448      0.000141
    5   N      5    1.8900  1.000      0.355870      1.118482     -0.000157
    6   H      6    1.2000  1.000     -1.735820     -1.395259     -0.000143
    7   H      7    1.2000  1.000     -1.734237      1.397099      0.000221
    8   H      8    1.2000  1.000      2.065576     -0.001080      0.000138
 ------------------------------------------------------------------------------
 ------------------------------------------------------------------------------
 Atomic radii for non-electrostatic terms: SMD-CDS.
 ------------------------------------------------------------------------------
 Nuclear repulsion after PCM non-electrostatic terms =      165.9561879439 Hartrees.
 One-electron integrals computed using PRISM.
 NBasis=   110 RedAO= T EigKep=  7.66D-05  NBF=   110
 NBsUse=   110 1.00D-06 EigRej= -1.00D+00 NBFU=   110
 Initial guess from the checkpoint file:  "/scratch/gongke2021/2-H-Tz/Gau-7336.chk"
 B after Tr=     0.000000    0.000000   -0.000000
         Rot=    1.000000   -0.000000   -0.000000   -0.000291 Ang=  -0.03 deg.
 Keep R1 ints in memory in canonical form, NReq=41063497.
 Requested convergence on RMS density matrix=1.00D-08 within 128 cycles.
 Requested convergence on MAX density matrix=1.00D-06.
 Requested convergence on             energy=1.00D-06.
 No special actions if energy rises.
 Inv3:  Mode=1 IEnd=     1915203.
 Iteration    1 A*A^-1 deviation from unit magnitude is 2.66D-15 for    629.
 Iteration    1 A*A^-1 deviation from orthogonality  is 1.67D-15 for    794    588.
 Iteration    1 A^-1*A deviation from unit magnitude is 2.55D-15 for    734.
 Iteration    1 A^-1*A deviation from orthogonality  is 1.19D-15 for    760     68.
 Error on total polarization charges =  0.02391
 SCF Done:  E(RM062X) =  -242.159383679     A.U. after    9 cycles
            NFock=  9  Conv=0.40D-08     -V/T= 2.0084
 SMD-CDS (non-electrostatic) energy       (kcal/mol) =       0.93
 (included in total energy above)
 D1PCM: PCM CHGder 1st derivatives, ID1Alg=3 FixD1E=F DoIter=F DoCFld=F I1PDM=0.
 Calling FoFJK, ICntrl=      2127 FMM=F ISym2X=0 I1Cent= 0 IOpClX= 0 NMat=1 NMatS=1 NMatT=0.
 ***** Axes restored to original set *****
 -------------------------------------------------------------------
 Center     Atomic                   Forces (Hartrees/Bohr)
 Number     Number              X              Y              Z
 -------------------------------------------------------------------
      1        7          -0.000021375   -0.000040839   -0.000028506
      2        7           0.000096972    0.000029070   -0.000011833
      3        6          -0.000038642    0.000049618    0.000046149
      4        6          -0.000063121   -0.000007155   -0.000065012
      5        7           0.000035260   -0.000028274    0.000069079
      6        1           0.000008312    0.000001756    0.000002834
      7        1          -0.000001307    0.000001925   -0.000006278
      8        1          -0.000016099   -0.000006101   -0.000006433
 -------------------------------------------------------------------
 Cartesian Forces:  Max     0.000096972 RMS     0.000038161

 GradGradGradGradGradGradGradGradGradGradGradGradGradGradGradGradGradGrad
 Berny optimization.
 Using GEDIIS/GDIIS optimizer.
 FormGI is forming the generalized inverse of G from B-inverse, IUseBI=4.
 Internal  Forces:  Max     0.000070217 RMS     0.000023508
 Search for a local minimum.
 Step number   5 out of a maximum of   41
 All quantities printed in internal units (Hartrees-Bohrs-Radians)
 Mixed Optimization -- En-DIIS/RFO-DIIS
 Swapping is turned off.
 Update second derivatives using D2CorX and points    1    2    3    4    5
 DE= -2.76D-06 DEPred=-2.77D-06 R= 9.94D-01
 TightC=F SS=  1.41D+00  RLast= 6.56D-03 DXNew= 5.0454D-01 1.9688D-02
 Trust test= 9.94D-01 RLast= 6.56D-03 DXMaxT set to 3.00D-01
 ITU=  1  0  1  0  0
     Eigenvalues ---    0.02125   0.02243   0.02369   0.02502   0.07062
     Eigenvalues ---    0.14406   0.16000   0.16026   0.22862   0.31830
     Eigenvalues ---    0.36158   0.36188   0.42621   0.47136   0.52969
     Eigenvalues ---    0.54010   0.60215   0.61877
 En-DIIS/RFO-DIIS/Sim-DIIS IScMMF=       -3 using points:     5    4    3
 RFO step:  Lambda=-1.90067398D-07.
 DidBck=T Rises=F RFO-DIIS coefs:    0.35641    0.43848    0.20510
 Iteration  1 RMS(Cart)=  0.00019071 RMS(Int)=  0.00000100
 Iteration  2 RMS(Cart)=  0.00000006 RMS(Int)=  0.00000100
 Variable       Old X    -DE/DX   Delta X   Delta X   Delta X     New X
                                 (Linear)    (Quad)   (Total)
    R1        2.48998  -0.00007   0.00009  -0.00017  -0.00008   2.48990
    R2        2.48986  -0.00001   0.00007  -0.00009  -0.00002   2.48984
    R3        1.91646  -0.00002   0.00049  -0.00052  -0.00004   1.91642
    R4        2.51980   0.00006  -0.00022   0.00031   0.00008   2.51988
    R5        2.64555  -0.00002  -0.00011   0.00007  -0.00004   2.64551
    R6        2.03893  -0.00001   0.00003  -0.00004  -0.00001   2.03892
    R7        2.51983   0.00003  -0.00026   0.00032   0.00006   2.51989
    R8        2.03891   0.00000   0.00001  -0.00000   0.00000   2.03891
    A1        2.02823   0.00000   0.00034  -0.00036  -0.00002   2.02821
    A2        2.12749  -0.00001  -0.00019   0.00019  -0.00001   2.12748
    A3        2.12747   0.00000  -0.00015   0.00017   0.00003   2.12749
    A4        1.80811  -0.00000  -0.00040   0.00041   0.00000   1.80812
    A5        1.89013   0.00001   0.00024  -0.00022   0.00003   1.89016
    A6        2.12088  -0.00001  -0.00015   0.00014  -0.00001   2.12087
    A7        2.27217  -0.00000  -0.00009   0.00008  -0.00002   2.27215
    A8        1.89025  -0.00004   0.00010  -0.00018  -0.00008   1.89017
    A9        2.27214   0.00002  -0.00001   0.00004   0.00002   2.27216
   A10        2.12080   0.00002  -0.00009   0.00015   0.00005   2.12086
   A11        1.80806   0.00002  -0.00029   0.00035   0.00006   1.80812
    D1       -0.00008   0.00001   0.00033  -0.00013   0.00020   0.00012
    D2       -3.14158  -0.00000  -0.00008   0.00001  -0.00008   3.14153
    D3        0.00036  -0.00003  -0.00058  -0.00009  -0.00066  -0.00030
    D4       -3.14132  -0.00002  -0.00016  -0.00022  -0.00038   3.14148
    D5       -0.00023   0.00002   0.00005   0.00028   0.00033   0.00011
    D6       -3.14159  -0.00000  -0.00012   0.00010  -0.00002   3.14158
    D7        0.00046  -0.00003  -0.00040  -0.00036  -0.00075  -0.00030
    D8       -3.14148  -0.00001  -0.00006  -0.00010  -0.00016   3.14155
    D9       -3.14139  -0.00001  -0.00021  -0.00015  -0.00036   3.14143
   D10       -0.00014   0.00001   0.00012   0.00011   0.00023   0.00009
   D11       -0.00047   0.00003   0.00056   0.00026   0.00082   0.00034
   D12        3.14143   0.00001   0.00026   0.00003   0.00029  -3.14147
         Item               Value     Threshold  Converged?
 Maximum Force            0.000070     0.000450     YES
 RMS     Force            0.000024     0.000300     YES
 Maximum Displacement     0.000815     0.001800     YES
 RMS     Displacement     0.000191     0.001200     YES
 Predicted change in Energy=-7.967714D-08
 Optimization completed.
    -- Stationary point found.
                           ----------------------------
                           !   Optimized Parameters   !
                           ! (Angstroms and Degrees)  !
 --------------------------                            --------------------------
 ! Name  Definition              Value          Derivative Info.                !
 --------------------------------------------------------------------------------
 ! R1    R(1,2)                  1.3176         -DE/DX =   -0.0001              !
 ! R2    R(1,5)                  1.3176         -DE/DX =    0.0                 !
 ! R3    R(1,8)                  1.0141         -DE/DX =    0.0                 !
 ! R4    R(2,3)                  1.3334         -DE/DX =    0.0001              !
 ! R5    R(3,4)                  1.4            -DE/DX =    0.0                 !
 ! R6    R(3,6)                  1.079          -DE/DX =    0.0                 !
 ! R7    R(4,5)                  1.3334         -DE/DX =    0.0                 !
 ! R8    R(4,7)                  1.0789         -DE/DX =    0.0                 !
 ! A1    A(2,1,5)              116.209          -DE/DX =    0.0                 !
 ! A2    A(2,1,8)              121.896          -DE/DX =    0.0                 !
 ! A3    A(5,1,8)              121.895          -DE/DX =    0.0                 !
 ! A4    A(1,2,3)              103.5972         -DE/DX =    0.0                 !
 ! A5    A(2,3,4)              108.2967         -DE/DX =    0.0                 !
 ! A6    A(2,3,6)              121.5176         -DE/DX =    0.0                 !
 ! A7    A(4,3,6)              130.1857         -DE/DX =    0.0                 !
 ! A8    A(3,4,5)              108.3031         -DE/DX =    0.0                 !
 ! A9    A(3,4,7)              130.1838         -DE/DX =    0.0                 !
 ! A10   A(5,4,7)              121.5131         -DE/DX =    0.0                 !
 ! A11   A(1,5,4)              103.594          -DE/DX =    0.0                 !
 ! D1    D(5,1,2,3)             -0.0047         -DE/DX =    0.0                 !
 ! D2    D(8,1,2,3)            180.0005         -DE/DX =    0.0                 !
 ! D3    D(2,1,5,4)              0.0206         -DE/DX =    0.0                 !
 ! D4    D(8,1,5,4)            180.0154         -DE/DX =    0.0                 !
 ! D5    D(1,2,3,4)             -0.0129         -DE/DX =    0.0                 !
 ! D6    D(1,2,3,6)            180.0001         -DE/DX =    0.0                 !
 ! D7    D(2,3,4,5)              0.0261         -DE/DX =    0.0                 !
 ! D8    D(2,3,4,7)            180.0066         -DE/DX =    0.0                 !
 ! D9    D(6,3,4,5)            180.0116         -DE/DX =    0.0                 !
 ! D10   D(6,3,4,7)             -0.0079         -DE/DX =    0.0                 !
 ! D11   D(3,4,5,1)             -0.027          -DE/DX =    0.0                 !
 ! D12   D(7,4,5,1)           -180.0096         -DE/DX =    0.0                 !
 --------------------------------------------------------------------------------
 GradGradGradGradGradGradGradGradGradGradGradGradGradGradGradGradGradGrad

                          Input orientation:                          
 ---------------------------------------------------------------------
 Center     Atomic      Atomic             Coordinates (Angstroms)
 Number     Number       Type             X           Y           Z
[...]

 -------------------
 - Thermochemistry -
 -------------------
 Temperature   298.150 Kelvin.  Pressure   1.00000 Atm.
 Atom     1 has atomic number  7 and mass  14.00307
 Atom     2 has atomic number  7 and mass  14.00307
 Atom     3 has atomic number  6 and mass  12.00000
 Atom     4 has atomic number  6 and mass  12.00000
 Atom     5 has atomic number  7 and mass  14.00307
 Atom     6 has atomic number  1 and mass   1.00783
 Atom     7 has atomic number  1 and mass   1.00783
 Atom     8 has atomic number  1 and mass   1.00783
 Molecular mass:    69.03270 amu.
 Principal axes and moments of inertia in atomic units:
                           1         2         3
     Eigenvalues --   175.91522 181.18119 357.09640
           X            0.00217   1.00000   0.00000
           Y            1.00000  -0.00217   0.00001
           Z           -0.00001  -0.00000   1.00000
 This molecule is an asymmetric top.
 Rotational symmetry number  1.
 Rotational temperatures (Kelvin)      0.49236     0.47805     0.24255
 Rotational constants (GHZ):          10.25915     9.96097     5.05393
 Zero-point vibrational energy     158824.7 (Joules/Mol)
                                   37.96001 (Kcal/Mol)
 Warning -- explicit consideration of   1 degrees of freedom as
           vibrations may cause significant error
 Vibrational temperatures:    868.89   984.69  1041.90  1234.09  1330.32
          (Kelvin)           1359.76  1391.86  1586.58  1661.20  1690.62
                             1868.42  1903.73  2088.98  2143.90  2260.32
                             4772.21  4792.47  5224.49
 
 Zero-point correction=                           0.060493 (Hartree/Particle)
 Thermal correction to Energy=                    0.064005
 Thermal correction to Enthalpy=                  0.064949
 Thermal correction to Gibbs Free Energy=         0.034367
 Sum of electronic and zero-point Energies=           -242.098891
 Sum of electronic and thermal Energies=              -242.095379
 Sum of electronic and thermal Enthalpies=            -242.094434
 Sum of electronic and thermal Free Energies=         -242.125017
 
                     E (Thermal)             CV                S
                      KCal/Mol        Cal/Mol-Kelvin    Cal/Mol-Kelvin
 Total                   40.164             11.758             64.367
 Electronic               0.000              0.000              0.000
 Translational            0.889              2.981             38.613
 Rotational               0.889              2.981             23.946
 Vibrational             38.386              5.796              1.807
 Vibration     1          0.962              1.024              0.443
                       Q            Log10(Q)             Ln(Q)
 Total Bot       0.155759D-15        -15.807547        -36.398223
 Total V=0       0.104072D+13         12.017332         27.670930
 Vib (Bot)       0.180913D-27        -27.742530        -63.879536
 Vib (Bot)    1  0.246259D+00         -0.608608         -1.401372
 Vib (V=0)       0.120879D+01          0.082349          0.189617
 Vib (V=0)    1  0.105735D+01          0.024220          0.055770
 Electronic      0.100000D+01          0.000000          0.000000
 Translational   0.225443D+08          7.353036         16.930991
 Rotational      0.381897D+05          4.581947         10.550322
 ***** Axes restored to original set *****
 -------------------------------------------------------------------
 Center     Atomic                   Forces (Hartrees/Bohr)
 Number     Number              X              Y              Z
 -------------------------------------------------------------------
      1        7          -0.000021372   -0.000040870   -0.000028503
      2        7           0.000096968    0.000029081   -0.000011833
      3        6          -0.000038621    0.000049626    0.000046150
      4        6          -0.000063141   -0.000007165   -0.000065011
      5        7           0.000035254   -0.000028258    0.000069072
      6        1           0.000008312    0.000001757    0.000002836
      7        1          -0.000001303    0.000001926   -0.000006279
      8        1          -0.000016096   -0.000006097   -0.000006432
 -------------------------------------------------------------------
 Cartesian Forces:  Max     0.000096968 RMS     0.000038162
 FormGI is forming the generalized inverse of G from B-inverse, IUseBI=4.

 GradGradGradGradGradGradGradGradGradGradGradGradGradGradGradGradGradGrad
 Berny optimization.
 Internal  Forces:  Max     0.000070230 RMS     0.000023510
 Search for a local minimum.
 Step number   1 out of a maximum of    2
 All quantities printed in internal units (Hartrees-Bohrs-Radians)
 Second derivative matrix not updated -- analytic derivatives used.
 ITU=  0
     Eigenvalues ---    0.01659   0.01727   0.03189   0.07041   0.07059
     Eigenvalues ---    0.10454   0.10763   0.12253   0.24929   0.27111
     Eigenvalues ---    0.38124   0.38673   0.39237   0.41776   0.46500
     Eigenvalues ---    0.47205   0.53799   0.56403
 Angle between quadratic step and forces=  44.22 degrees.
 Linear search not attempted -- first point.
 Iteration  1 RMS(Cart)=  0.00012355 RMS(Int)=  0.00000003
 Iteration  2 RMS(Cart)=  0.00000002 RMS(Int)=  0.00000001
 Variable       Old X    -DE/DX   Delta X   Delta X   Delta X     New X
                                 (Linear)    (Quad)   (Total)
    R1        2.48998  -0.00007   0.00000  -0.00017  -0.00017   2.48981
    R2        2.48986  -0.00001   0.00000  -0.00004  -0.00004   2.48981
    R3        1.91646  -0.00002   0.00000  -0.00003  -0.00003   1.91643
    R4        2.51980   0.00006   0.00000   0.00014   0.00014   2.51994
    R5        2.64555  -0.00002   0.00000  -0.00008  -0.00008   2.64547
    R6        2.03893  -0.00001   0.00000  -0.00002  -0.00002   2.03891
    R7        2.51983   0.00003   0.00000   0.00011   0.00011   2.51994
    R8        2.03891   0.00000   0.00000   0.00000   0.00000   2.03891
    A1        2.02823   0.00000   0.00000   0.00004   0.00004   2.02827
    A2        2.12749  -0.00001   0.00000  -0.00004  -0.00004   2.12744
    A3        2.12747   0.00000   0.00000   0.00000   0.00000   2.12747
    A4        1.80811  -0.00000   0.00000  -0.00002  -0.00002   1.80809
    A5        1.89013   0.00001   0.00000   0.00003   0.00003   1.89016
    A6        2.12088  -0.00001   0.00000  -0.00008  -0.00008   2.12080
    A7        2.27217  -0.00000   0.00000   0.00005   0.00005   2.27222
    A8        1.89025  -0.00004   0.00000  -0.00008  -0.00008   1.89017
    A9        2.27214   0.00002   0.00000   0.00007   0.00007   2.27221
   A10        2.12080   0.00002   0.00000   0.00001   0.00001   2.12081
   A11        1.80806   0.00002   0.00000   0.00003   0.00003   1.80809
    D1       -0.00008   0.00001   0.00000   0.00008   0.00008   0.00000
    D2       -3.14158  -0.00000   0.00000  -0.00001  -0.00001   3.14159
    D3        0.00036  -0.00003   0.00000  -0.00036  -0.00036  -0.00000
    D4       -3.14132  -0.00002   0.00000  -0.00027  -0.00027  -3.14159
    D5       -0.00023   0.00002   0.00000   0.00023   0.00023  -0.00000
    D6       -3.14159  -0.00000   0.00000  -0.00000  -0.00000   3.14159
    D7        0.00046  -0.00003   0.00000  -0.00045  -0.00045   0.00000
    D8       -3.14148  -0.00001   0.00000  -0.00012  -0.00012  -3.14159
    D9       -3.14139  -0.00001   0.00000  -0.00020  -0.00020  -3.14159
   D10       -0.00014   0.00001   0.00000   0.00014   0.00014   0.00000
   D11       -0.00047   0.00003   0.00000   0.00047   0.00047  -0.00000
   D12        3.14143   0.00001   0.00000   0.00017   0.00017   3.14159
         Item               Value     Threshold  Converged?
 Maximum Force            0.000070     0.000450     YES
 RMS     Force            0.000024     0.000300     YES
 Maximum Displacement     0.000484     0.001800     YES
 RMS     Displacement     0.000124     0.001200     YES
 Predicted change in Energy=-4.411107D-08
 Optimization completed.
    -- Stationary point found.
                           ----------------------------
                           !   Optimized Parameters   !
                           ! (Angstroms and Degrees)  !
 --------------------------                            --------------------------
 ! Name  Definition              Value          Derivative Info.                !
 --------------------------------------------------------------------------------
 ! R1    R(1,2)                  1.3176         -DE/DX =   -0.0001              !
 ! R2    R(1,5)                  1.3176         -DE/DX =    0.0                 !
 ! R3    R(1,8)                  1.0141         -DE/DX =    0.0                 !
 ! R4    R(2,3)                  1.3334         -DE/DX =    0.0001              !
 ! R5    R(3,4)                  1.4            -DE/DX =    0.0                 !
 ! R6    R(3,6)                  1.079          -DE/DX =    0.0                 !
 ! R7    R(4,5)                  1.3334         -DE/DX =    0.0                 !
 ! R8    R(4,7)                  1.0789         -DE/DX =    0.0                 !
 ! A1    A(2,1,5)              116.209          -DE/DX =    0.0                 !
 ! A2    A(2,1,8)              121.896          -DE/DX =    0.0                 !
 ! A3    A(5,1,8)              121.895          -DE/DX =    0.0                 !
 ! A4    A(1,2,3)              103.5972         -DE/DX =    0.0                 !
 ! A5    A(2,3,4)              108.2967         -DE/DX =    0.0                 !
 ! A6    A(2,3,6)              121.5176         -DE/DX =    0.0                 !
 ! A7    A(4,3,6)              130.1857         -DE/DX =    0.0                 !
 ! A8    A(3,4,5)              108.3031         -DE/DX =    0.0                 !
 ! A9    A(3,4,7)              130.1838         -DE/DX =    0.0                 !
 ! A10   A(5,4,7)              121.5131         -DE/DX =    0.0                 !
 ! A11   A(1,5,4)              103.594          -DE/DX =    0.0                 !
 ! D1    D(5,1,2,3)             -0.0047         -DE/DX =    0.0                 !
 ! D2    D(8,1,2,3)            180.0005         -DE/DX =    0.0                 !
 ! D3    D(2,1,5,4)              0.0206         -DE/DX =    0.0                 !
 ! D4    D(8,1,5,4)           -179.9846         -DE/DX =    0.0                 !
 ! D5    D(1,2,3,4)             -0.0129         -DE/DX =    0.0                 !
 ! D6    D(1,2,3,6)            180.0001         -DE/DX =    0.0                 !
 ! D7    D(2,3,4,5)              0.0261         -DE/DX =    0.0                 !
 ! D8    D(2,3,4,7)           -179.9934         -DE/DX =    0.0                 !
 ! D9    D(6,3,4,5)           -179.9884         -DE/DX =    0.0                 !
 ! D10   D(6,3,4,7)             -0.0079         -DE/DX =    0.0                 !
 ! D11   D(3,4,5,1)             -0.027          -DE/DX =    0.0                 !
 ! D12   D(7,4,5,1)            179.9904         -DE/DX =    0.0                 !
 --------------------------------------------------------------------------------
 GradGradGradGradGradGradGradGradGradGradGradGradGradGradGradGradGradGrad


 ----------------------------------------------------------------------

 Electric dipole moment (input orientation):
 (Debye = 10**-18 statcoulomb cm , SI units = C m)
                  (au)            (Debye)         (10**-30 SI)
   Tot        0.999684D-01      0.254094D+00      0.847568D+00
   x         -0.999431D-01     -0.254030D+00     -0.847353D+00
   y          0.224184D-02      0.569819D-02      0.190071D-01
   z          0.173655D-03      0.441386D-03      0.147231D-02

 Dipole polarizability, Alpha (input orientation).
 (esu units = cm**3 , SI units = C**2 m**2 J**-1)
 Alpha(0;0):
               (au)            (10**-24 esu)      (10**-40 SI)
   iso        0.547627D+02      0.811500D+01      0.902915D+01
   aniso      0.297783D+02      0.441269D+01      0.490978D+01
   xx         0.659767D+02      0.977673D+01      0.108781D+02
   yx        -0.585775D-01     -0.868029D-02     -0.965813D-02
   yy         0.633425D+02      0.938639D+01      0.104438D+02
   zx         0.253230D-03      0.375248D-04      0.417520D-04
   zy         0.768903D-02      0.113940D-02      0.126775D-02
   zz         0.349690D+02      0.518186D+01      0.576560D+01

 ----------------------------------------------------------------------

 Dipole orientation:
     7          0.00354993         -0.00086116         -1.98805308
     7         -0.04670732         -2.11406112         -0.67205055
     6         -0.03322802         -1.32261771          1.72018850
     6          0.02719148          1.32224304          1.71965117
     7          0.04876283          2.11280937         -0.67285661
     1         -0.06586743         -2.63755282          3.27810684
     1          0.05443008          2.63786963          3.27706364
     1          0.00707575         -0.00126114         -3.90450704

 Electric dipole moment (dipole orientation):
 (Debye = 10**-18 statcoulomb cm , SI units = C m)
                  (au)            (Debye)         (10**-30 SI)
   Tot        0.999684D-01      0.254094D+00      0.847568D+00
   x          0.000000D+00      0.000000D+00      0.000000D+00
   y          0.000000D+00      0.000000D+00      0.000000D+00
   z          0.999684D-01      0.254094D+00      0.847568D+00

 Dipole polarizability, Alpha (dipole orientation).
 (esu units = cm**3 , SI units = C**2 m**2 J**-1)
 Alpha(0;0):
               (au)            (10**-24 esu)      (10**-40 SI)
   iso        0.547627D+02      0.811500D+01      0.902915D+01
   aniso      0.297783D+02      0.441269D+01      0.490978D+01
   xx         0.349837D+02      0.518404D+01      0.576803D+01
   yx         0.643787D+00      0.953994D-01      0.106146D+00
   yy         0.633266D+02      0.938403D+01      0.104411D+02
   zx        -0.539445D-01     -0.799375D-02     -0.889425D-02
   zy         0.684376D-03      0.101414D-03      0.112838D-03
   zz         0.659779D+02      0.977691D+01      0.108783D+02

 ----------------------------------------------------------------------
 1\1\GINC-NODE5\Freq\RM062X\6-31+G(d,p)\C2H3N3\GONGKE2021\09-Jul-2023\0
 \\#N Geom=AllCheck Guess=TCheck SCRF=Check GenChk RM062X/6-31+G(d,p) F
 req\\test\\0,1\N,1.0517602329,-0.0240057861,0.0000608072\N,0.330450659
 7,-1.1266797837,-0.0002402694\C,-0.925758038,-0.6795277276,-0.00030222
 36\C,-0.8940777959,0.7200788645,0.0002750852\N,0.3810511181,1.11008196
 34,0.0001062936\H,-1.765576443,-1.3569107413,-0.0005333784\H,-1.702402
 5979,1.4347334752,0.0005044852\H,2.0656468641,-0.0469182642,0.00016920
 01\\Version=ES64L-G16RevA.03\State=1-A\HF=-242.1593837\RMSD=1.636e-09\
 RMSF=3.816e-05\ZeroPoint=0.0604931\Thermal=0.0640051\Dipole=-0.0999431
 ,0.0022418,0.0001737\DipoleDeriv=-0.923432,0.0293089,0.0000117,0.02954
 74,0.3767556,-0.0000096,-0.0002018,0.0001161,-0.1299461,0.1639943,0.11
 77232,0.0000765,0.3623282,-0.6592437,-0.0000233,0.0001129,-0.0000976,-
 0.2539542,-0.0719707,0.0070266,0.0000349,0.3031497,0.2284389,0.0001093
 ,0.0000668,0.0000513,-0.1097754,-0.0854471,0.0070539,-0.0000429,-0.289
 0009,0.2417821,0.0001316,-0.000089,0.000058,-0.109827,0.1407891,-0.153
 7441,-0.0001006,-0.3986071,-0.6359278,-0.0001186,0.0000587,-0.0000727,
 -0.2538956,0.1132518,-0.026238,-0.0000118,-0.0624842,0.0964813,-0.0000
 402,0.0000267,-0.0000246,0.2238008,0.1171895,0.0253314,0.0000149,0.061
 5987,0.0924595,-0.0000253,-0.0000148,-0.0000084,0.2238117,0.545625,-0.
 0064621,0.0000173,-0.0065318,0.2592539,-0.0000239,0.0000406,-0.0000221
 ,0.4097858\Polar=65.9766655,-0.0585775,63.3425098,0.0002532,0.007689,3
 4.9689527\Quadrupole=6.768865,-4.6865877,-2.0822773,-0.2583595,0.00054
 18,0.0001029\PG=C01 [X(C2H3N3)]\NImag=0\\1.00647123,-0.00813625,0.6509
 7255,0.00007905,0.00008793,0.11256429,-0.17181981,-0.13607886,-0.00003
 448,0.58810295,-0.06877317,-0.27332798,-0.00004178,-0.03300159,0.56417
 234,-0.00002148,-0.00005256,-0.07406568,0.00002946,0.00008980,0.109240
 99,-0.10207236,-0.04920835,-0.00002544,-0.34931526,0.09156908,-0.00000
 745,0.80282260,0.01295637,-0.01183887,0.00000007,0.09795867,-0.1548538
 0,-0.00000702,0.14550734,0.71926689,-0.00000133,-0.00001501,0.01333454
 ,-0.00000593,-0.00000796,-0.07549265,0.00008572,0.00018730,0.14241353,
 -0.10020064,0.05320234,0.00001357,0.00471223,0.01364143,0.00001002,-0.
 12147665,0.01739223,-0.00000641,0.78939532,-0.00896301,-0.01365078,-0.
 00001834,0.11123373,-0.03414695,-0.00000816,-0.02656392,-0.32418479,-0
 .00010812,-0.14871940,0.73257449,-0.00001337,-0.00000776,0.01334169,0.
 00002198,-0.00000230,0.02036405,-0.00000108,-0.00010638,-0.07380508,-0
 .00009161,0.00017191,0.14240000,-0.16283223,0.13117699,0.00001379,-0.0
 4553616,0.01846446,-0.00000722,-0.00099614,-0.11272095,-0.00001776,-0.
 35739417,-0.08877622,0.00003150,0.59100398,0.06387466,-0.28250460,-0.0
 0002173,-0.02170554,-0.11730730,-0.00002421,-0.01512752,-0.02842644,0.
 00000004,-0.08239048,-0.14668564,-0.00000288,0.03164927,0.56136943,0.0
 0000227,-0.00001597,-0.07405248,0.00000095,-0.00003558,0.03205231,-0.0
 0001155,-0.00001569,0.02035807,0.00002895,0.00001021,-0.07550287,-0.00
 002453,0.00005386,0.10924370,-0.00501993,0.00245258,-0.00000111,-0.017
 41222,-0.01922957,-0.00000413,-0.24265511,-0.15138026,-0.00005160,0.00
 822691,0.00369457,0.00000066,0.00118378,0.00296691,0.00000045,0.256040
 93,0.00615088,-0.00017793,-0.00000153,0.01212563,0.01366294,0.00000623
 ,-0.16067029,-0.19037105,-0.00005568,-0.01950510,-0.00231891,0.0000019
 5,-0.00200428,-0.00561077,-0.00000396,0.16320186,0.18369153,0.00000243
 ,0.00000190,0.00753581,-0.00000162,0.00000050,-0.00712627,-0.00004964,
 -0.00005122,-0.03197331,-0.00000729,-0.00000065,-0.00043082,0.00000040
 ,-0.00000364,0.00647337,0.00005640,0.00005286,0.02523940,-0.00539870,-
 0.00221615,0.00000215,0.00112606,-0.00327196,-0.00000062,0.00892036,-0
 .00420292,-0.00000114,-0.22846476,0.15311555,0.00005211,-0.01703064,0.
 02061946,0.00000120,-0.00038222,0.00049429,0.00000004,0.24116378,-0.00
 591489,0.00020113,-0.00000166,0.00170008,-0.00555510,-0.00000436,0.018
 99809,-0.00301160,0.00000261,0.16240750,-0.20457864,-0.00005309,-0.010
 73924,0.01327792,0.00000467,-0.00047368,0.00006905,0.00000034,-0.16581
 542,0.19859063,-0.00000177,0.00000388,0.00753572,-0.00000277,-0.000004
 03,0.00647425,0.00000887,-0.00000380,-0.00043071,0.00004892,-0.0000460
 5,-0.03196315,0.00000139,-0.00000206,-0.00712587,-0.00000007,0.0000005
 0,-0.00154232,-0.00005445,0.00005192,0.02522768,-0.45912758,0.00880771
 ,-0.00004754,-0.00985779,0.00060131,0.00000143,0.00477257,-0.00551047,
 -0.00000156,0.00520177,0.00497870,-0.00000020,-0.00839841,0.00011324,0
 .00000225,0.00001786,0.00020701,-0.00000070,0.00006613,-0.00016244,-0.
 00000012,0.46732545,0.00880541,-0.06967354,-0.00000296,-0.03223211,0.0
 0735585,0.00000028,-0.00450444,-0.00658034,-0.00000319,0.00397147,-0.0
 0700877,-0.00000145,0.03294997,0.00588739,0.00000247,-0.00123240,0.001
 05514,-0.00000008,0.00127716,0.00100660,-0.00000036,-0.00903505,0.0679
 5766,-0.00004581,-0.00000241,-0.00619390,-0.00000758,0.00000136,-0.011
 44700,0.00000057,-0.00000326,0.00559560,0.00000384,-0.00000079,0.00559
 616,0.00000242,0.00000062,-0.01144625,-0.00000059,-0.00000038,0.001824
 14,0.00000071,-0.00000042,0.00182438,0.00004644,0.00000528,0.01424687\
 \0.00002137,0.00004087,0.00002850,-0.00009697,-0.00002908,0.00001183,0
 .00003862,-0.00004963,-0.00004615,0.00006314,0.00000717,0.00006501,-0.
 00003525,0.00002826,-0.00006907,-0.00000831,-0.00000176,-0.00000284,0.
 00000130,-0.00000193,0.00000628,0.00001610,0.00000610,0.00000643\\\@


 TIME IS NATURE'S WAY OF MAKING SURE EVERYTHING
 DOESN'T HAPPEN AT ONCE.
                     - WOODY ALLEN
 Job cpu time:       0 days  0 hours  6 minutes 46.6 seconds.
 Elapsed time:       0 days  0 hours  0 minutes 17.5 seconds.
 File lengths (MBytes):  RWF=     27 Int=      0 D2E=      0 Chk=      5 Scr=      1
 Normal termination of Gaussian 16 at Sun Jul  9 00:09:41 2023.
