 Entering Gaussian System, Link 0=/opt/soft/g16/g16
 Initial command:
 /opt/soft/g16/l1.exe "/scratch/gongke2021/TS-2/Gau-27268.inp" -scrdir="/scratch/gongke2021/TS-2/"
 Entering Link 1 = /opt/soft/g16/l1.exe PID=     27269.
  
 Copyright (c) 1988,1990,1992,1993,1995,1998,2003,2009,2016,
            Gaussian, Inc.  All Rights Reserved.
  
 This is part of the Gaussian(R) 16 program.  It is based on
 the Gaussian(R) 09 system (copyright 2009, Gaussian, Inc.),
 the Gaussian(R) 03 system (copyright 2003, Gaussian, Inc.),
 the Gaussian(R) 98 system (copyright 1998, Gaussian, Inc.),
 the Gaussian(R) 94 system (copyright 1995, Gaussian, Inc.),
 the Gaussian 92(TM) system (copyright 1992, Gaussian, Inc.),
 the Gaussian 90(TM) system (copyright 1990, Gaussian, Inc.),
 the Gaussian 88(TM) system (copyright 1988, Gaussian, Inc.),
 the Gaussian 86(TM) system (copyright 1986, Carnegie Mellon
 University), and the Gaussian 82(TM) system (copyright 1983,
 Carnegie Mellon University). Gaussian is a federally registered
 trademark of Gaussian, Inc.
  
 This software contains proprietary and confidential information,
 including trade secrets, belonging to Gaussian, Inc.
  
 This software is provided under written license and may be
 used, copied, transmitted, or stored only in accord with that
 written license.
  
 The following legend is applicable only to US Government
 contracts under FAR:
  
                    RESTRICTED RIGHTS LEGEND
  
 Use, reproduction and disclosure by the US Government is
 subject to restrictions as set forth in subparagraphs (a)
 and (c) of the Commercial Computer Software - Restricted
 Rights clause in FAR 52.227-19.
  
 Gaussian, Inc.
 340 Quinnipiac St., Bldg. 40, Wallingford CT 06492
  
  
 ---------------------------------------------------------------
 Warning -- This program may not be used in any manner that
 competes with the business of Gaussian, Inc. or will provide
 assistance to any competitor of Gaussian, Inc.  The licensee
 of this program is prohibited from giving any competitor of
 Gaussian, Inc. access to this program.  By using this program,
 the user acknowledges that Gaussian, Inc. is engaged in the
 business of creating and licensing software in the field of
 computational chemistry and represents and warrants to the
 licensee that it is not a competitor of Gaussian, Inc. and that
 it will not use this program in any manner prohibited above.
 ---------------------------------------------------------------
  

 Cite this work as:
 Gaussian 16, Revision A.03,
 M. J. Frisch, G. W. Trucks, H. B. Schlegel, G. E. Scuseria, 
 M. A. Robb, J. R. Cheeseman, G. Scalmani, V. Barone, 
 G. A. Petersson, H. Nakatsuji, X. Li, M. Caricato, A. V. Marenich, 
 J. Bloino, B. G. Janesko, R. Gomperts, B. Mennucci, H. P. Hratchian, 
 J. V. Ortiz, A. F. Izmaylov, J. L. Sonnenberg, D. Williams-Young, 
 F. Ding, F. Lipparini, F. Egidi, J. Goings, B. Peng, A. Petrone, 
 T. Henderson, D. Ranasinghe, V. G. Zakrzewski, J. Gao, N. Rega, 
 G. Zheng, W. Liang, M. Hada, M. Ehara, K. Toyota, R. Fukuda, 
 J. Hasegawa, M. Ishida, T. Nakajima, Y. Honda, O. Kitao, H. Nakai, 
 T. Vreven, K. Throssell, J. A. Montgomery, Jr., J. E. Peralta, 
 F. Ogliaro, M. J. Bearpark, J. J. Heyd, E. N. Brothers, K. N. Kudin, 
 V. N. Staroverov, T. A. Keith, R. Kobayashi, J. Normand, 
 K. Raghavachari, A. P. Rendell, J. C. Burant, S. S. Iyengar, 
 J. Tomasi, M. Cossi, J. M. Millam, M. Klene, C. Adamo, R. Cammi, 
 J. W. Ochterski, R. L. Martin, K. Morokuma, O. Farkas, 
 J. B. Foresman, and D. J. Fox, Gaussian, Inc., Wallingford CT, 2016.
 
 ******************************************
 Gaussian 16:  ES64L-G16RevA.03 25-Dec-2016
                 8-Jul-2023 
 ******************************************
 %mem=10GB
 %nprocshared=24
 Will use up to   24 processors via shared memory.
 ----------------------------------------------------------------------
 # opt=(calcfc,ts,noeigentest) freq 6-31+g(d,p) scrf=(smd,solvent=water
 ) integral=grid=ultrafine m062x
 ----------------------------------------------------------------------
 1/5=1,10=4,11=1,18=20,26=6,38=1/1,3;
 2/9=110,12=2,17=6,18=5,40=1/2;
 3/5=1,6=6,7=111,11=2,25=1,30=1,70=32201,71=2,72=1,74=-55,75=-5,140=1/1,2,3;
 4//1;
 5/5=2,38=5,53=1/2;
 8/6=4,10=90,11=11/1;
 11/6=1,8=1,9=11,15=111,16=1/1,2,10;
 10/6=1,13=1/2;
 6/7=2,8=2,9=2,10=2,28=1/1;
 7/10=1,18=20,25=1/1,2,3,16;
 1/5=1,10=4,11=1,18=20,26=6/3(2);
 2/9=110/2;
 99//99;
 2/9=110/2;
 3/5=1,6=6,7=111,11=2,25=1,30=1,70=32205,71=1,72=1,74=-55,75=-5/1,2,3;
 4/5=5,16=3,69=1/1;
 5/5=2,38=5,53=1/2;
 7//1,2,3,16;
 1/5=1,11=1,18=20,26=6/3(-5);
 2/9=110/2;
 6/7=2,8=2,9=2,10=2,19=2,28=1/1;
 99/9=1/99;
 ----
 test
 ----
 Symbolic Z-matrix:
 Charge =  0 Multiplicity = 1
 N                    -0.35147  -0.97899  -0.01227 
 N                    -0.39273   0.35665   0.00036 
 C                    -1.67717   0.76913   0.01049 
 C                    -2.41504  -0.39134   0.00406 
 N                    -1.55975  -1.44461  -0.00977 
 H                    -1.94469   1.81359   0.01995 
 H                    -3.48453  -0.52754   0.00782 
 H                     1.38057  -0.94476   0.09984 
 C                     0.82923   1.22179  -0.00099 
 O                     0.57298   2.42336   0.01967 
 O                     1.91449   0.61133  -0.02376 
 H                     1.694    -2.42888  -0.21328 
 O                     2.00648  -1.74368   0.45208 
 H                     2.94548  -1.54306   0.29253 
 
 Add virtual bond connecting atoms N1         and H8         Dist= 3.28D+00.
 Add virtual bond connecting atoms O11        and H8         Dist= 3.12D+00.

 GradGradGradGradGradGradGradGradGradGradGradGradGradGradGradGradGradGrad
 Berny optimization.
 Initialization pass.
                           ----------------------------
                           !    Initial Parameters    !
                           ! (Angstroms and Degrees)  !
 --------------------------                            --------------------------
 ! Name  Definition              Value          Derivative Info.                !
 --------------------------------------------------------------------------------
 ! R1    R(1,2)                  1.3363         calculate D2E/DX2 analytically  !
 ! R2    R(1,5)                  1.2949         calculate D2E/DX2 analytically  !
 ! R3    R(1,8)                  1.736          calculate D2E/DX2 analytically  !
 ! R4    R(2,3)                  1.3491         calculate D2E/DX2 analytically  !
 ! R5    R(2,9)                  1.4972         calculate D2E/DX2 analytically  !
 ! R6    R(3,4)                  1.3752         calculate D2E/DX2 analytically  !
 ! R7    R(3,6)                  1.0782         calculate D2E/DX2 analytically  !
 ! R8    R(4,5)                  1.3569         calculate D2E/DX2 analytically  !
 ! R9    R(4,7)                  1.0781         calculate D2E/DX2 analytically  !
 ! R10   R(8,11)                 1.6498         calculate D2E/DX2 analytically  !
 ! R11   R(8,13)                 1.0743         calculate D2E/DX2 analytically  !
 ! R12   R(9,10)                 1.2288         calculate D2E/DX2 analytically  !
 ! R13   R(9,11)                 1.2454         calculate D2E/DX2 analytically  !
 ! R14   R(12,13)                1.0049         calculate D2E/DX2 analytically  !
 ! R15   R(13,14)                0.9734         calculate D2E/DX2 analytically  !
 ! A1    A(2,1,5)              109.3033         calculate D2E/DX2 analytically  !
 ! A2    A(2,1,8)               90.6011         calculate D2E/DX2 analytically  !
 ! A3    A(5,1,8)              159.7092         calculate D2E/DX2 analytically  !
 ! A4    A(1,2,3)              109.5761         calculate D2E/DX2 analytically  !
 ! A5    A(1,2,9)              123.5268         calculate D2E/DX2 analytically  !
 ! A6    A(3,2,9)              126.8969         calculate D2E/DX2 analytically  !
 ! A7    A(2,3,4)              104.6433         calculate D2E/DX2 analytically  !
 ! A8    A(2,3,6)              122.1725         calculate D2E/DX2 analytically  !
 ! A9    A(4,3,6)              133.1842         calculate D2E/DX2 analytically  !
 ! A10   A(3,4,5)              108.4741         calculate D2E/DX2 analytically  !
 ! A11   A(3,4,7)              129.7052         calculate D2E/DX2 analytically  !
 ! A12   A(5,4,7)              121.8207         calculate D2E/DX2 analytically  !
 ! A13   A(1,5,4)              108.0032         calculate D2E/DX2 analytically  !
 ! A14   A(1,8,11)             109.6729         calculate D2E/DX2 analytically  !
 ! A15   A(1,8,13)             126.0019         calculate D2E/DX2 analytically  !
 ! A16   A(11,8,13)            122.5097         calculate D2E/DX2 analytically  !
 ! A17   A(2,9,10)             113.2556         calculate D2E/DX2 analytically  !
 ! A18   A(2,9,11)             115.3399         calculate D2E/DX2 analytically  !
 ! A19   A(10,9,11)            131.4044         calculate D2E/DX2 analytically  !
 ! A20   A(8,11,9)             100.309          calculate D2E/DX2 analytically  !
 ! A21   A(8,13,12)             96.2468         calculate D2E/DX2 analytically  !
 ! A22   A(8,13,14)            110.7957         calculate D2E/DX2 analytically  !
 ! A23   A(12,13,14)           109.3897         calculate D2E/DX2 analytically  !
 ! D1    D(5,1,2,3)             -0.0428         calculate D2E/DX2 analytically  !
 ! D2    D(5,1,2,9)           -179.8866         calculate D2E/DX2 analytically  !
 ! D3    D(8,1,2,3)           -176.0268         calculate D2E/DX2 analytically  !
 ! D4    D(8,1,2,9)              4.1293         calculate D2E/DX2 analytically  !
 ! D5    D(2,1,5,4)              0.0348         calculate D2E/DX2 analytically  !
 ! D6    D(8,1,5,4)            168.3842         calculate D2E/DX2 analytically  !
 ! D7    D(2,1,8,11)            -6.4857         calculate D2E/DX2 analytically  !
 ! D8    D(2,1,8,13)           158.3728         calculate D2E/DX2 analytically  !
 ! D9    D(5,1,8,11)          -175.4979         calculate D2E/DX2 analytically  !
 ! D10   D(5,1,8,13)           -10.6394         calculate D2E/DX2 analytically  !
 ! D11   D(1,2,3,4)              0.0319         calculate D2E/DX2 analytically  !
 ! D12   D(1,2,3,6)           -179.9015         calculate D2E/DX2 analytically  !
 ! D13   D(9,2,3,4)            179.8692         calculate D2E/DX2 analytically  !
 ! D14   D(9,2,3,6)             -0.0642         calculate D2E/DX2 analytically  !
 ! D15   D(1,2,9,10)          -179.6129         calculate D2E/DX2 analytically  !
 ! D16   D(1,2,9,11)             0.4511         calculate D2E/DX2 analytically  !
 ! D17   D(3,2,9,10)             0.5711         calculate D2E/DX2 analytically  !
 ! D18   D(3,2,9,11)          -179.3649         calculate D2E/DX2 analytically  !
 ! D19   D(2,3,4,5)             -0.0108         calculate D2E/DX2 analytically  !
 ! D20   D(2,3,4,7)           -179.9677         calculate D2E/DX2 analytically  !
 ! D21   D(6,3,4,5)            179.9119         calculate D2E/DX2 analytically  !
 ! D22   D(6,3,4,7)             -0.045          calculate D2E/DX2 analytically  !
 ! D23   D(3,4,5,1)             -0.0146         calculate D2E/DX2 analytically  !
 ! D24   D(7,4,5,1)            179.9464         calculate D2E/DX2 analytically  !
 ! D25   D(1,8,11,9)             7.339          calculate D2E/DX2 analytically  !
 ! D26   D(13,8,11,9)         -158.1492         calculate D2E/DX2 analytically  !
 ! D27   D(1,8,13,12)           57.6421         calculate D2E/DX2 analytically  !
 ! D28   D(1,8,13,14)          171.1465         calculate D2E/DX2 analytically  !
 ! D29   D(11,8,13,12)        -139.3153         calculate D2E/DX2 analytically  !
 ! D30   D(11,8,13,14)         -25.8109         calculate D2E/DX2 analytically  !
 ! D31   D(2,9,11,8)            -4.9982         calculate D2E/DX2 analytically  !
 ! D32   D(10,9,11,8)          175.0802         calculate D2E/DX2 analytically  !
 --------------------------------------------------------------------------------
 Trust Radius=3.00D-01 FncErr=5.00D-06 GrdErr=5.00D-06 EigMax=2.50D+02 EigMin=1.00D-04
 Number of steps in this run=     80 maximum allowed number of steps=    100.
 Search for a saddle point of order  1.
 GradGradGradGradGradGradGradGradGradGradGradGradGradGradGradGradGradGrad

                          Input orientation:                          
 ---------------------------------------------------------------------
 Center     Atomic      Atomic             Coordinates (Angstroms)
 Number     Number       Type             X           Y           Z
 ---------------------------------------------------------------------
      1          7           0       -0.351467   -0.978987   -0.012273
      2          7           0       -0.392727    0.356646    0.000356
      3          6           0       -1.677169    0.769131    0.010492
      4          6           0       -2.415041   -0.391338    0.004055
      5          7           0       -1.559747   -1.444612   -0.009768
      6          1           0       -1.944691    1.813593    0.019952
      7          1           0       -3.484534   -0.527535    0.007819
      8          1           0        1.380566   -0.944762    0.099839
      9          6           0        0.829228    1.221791   -0.000988
     10          8           0        0.572984    2.423357    0.019673
     11          8           0        1.914485    0.611326   -0.023757
     12          1           0        1.694000   -2.428880   -0.213278
     13          8           0        2.006483   -1.743682    0.452075
     14          1           0        2.945484   -1.543056    0.292526
 ---------------------------------------------------------------------
                    Distance matrix (angstroms):
                    1          2          3          4          5
     1  N    0.000000
     2  N    1.336330   0.000000
     3  C    2.194065   1.349088   0.000000
     4  C    2.145678   2.156211   1.375204   0.000000
     5  N    1.294895   2.146292   2.216948   1.356873   0.000000
     6  H    3.215261   2.128772   1.078220   2.254596   3.281001
     7  H    3.165489   3.215758   2.224392   1.078137   2.132169
     8  H    1.735995   2.201846   3.506445   3.836937   2.984511
     9  C    2.497517   1.497215   2.546971   3.623188   3.580082
    10  O    3.525844   2.281286   2.792801   4.105002   4.417080
    11  O    2.768351   2.321351   3.595282   4.444199   4.036999
    12  H    2.515259   3.487008   4.652110   4.591626   3.405447
    13  O    2.521965   3.220503   4.480906   4.645367   3.608426
    14  H    3.358714   3.851997   5.176357   5.490437   4.516434
                    6          7          8          9         10
     6  H    0.000000
     7  H    2.802168   0.000000
     8  H    4.321138   4.883825   0.000000
     9  C    2.836423   4.654972   2.237877   0.000000
    10  O    2.590463   5.017106   3.464512   1.228759   0.000000
    11  O    4.042350   5.517917   1.649774   1.245379   2.254987
    12  H    5.594019   5.520979   1.548835   3.757698   4.985493
    13  O    5.334108   5.641599   1.074298   3.222612   4.427878
    14  H    5.937609   6.515940   1.686432   3.494148   4.629864
                   11         12         13         14
    11  O    0.000000
    12  H    3.054076   0.000000
    13  O    2.404359   1.004906   0.000000
    14  H    2.409223   1.614538   0.973360   0.000000
 Stoichiometry    C3H5N3O3
 Framework group  C1[X(C3H5N3O3)]
 Deg. of freedom    36
 Full point group                 C1      NOp   1
 Largest Abelian subgroup         C1      NOp   1
 Largest concise Abelian subgroup C1      NOp   1
                         Standard orientation:                         
 ---------------------------------------------------------------------
 Center     Atomic      Atomic             Coordinates (Angstroms)
 Number     Number       Type             X           Y           Z
 ---------------------------------------------------------------------
      1          7           0        0.404279   -0.987469    0.100017
      2          7           0        0.394187    0.346407    0.019699
      3          6           0        1.660391    0.803519   -0.068700
      4          6           0        2.441400   -0.327979   -0.038349
      5          7           0        1.628134   -1.409100    0.065963
      6          1           0        1.887384    1.855043   -0.141707
      7          1           0        3.514130   -0.425849   -0.083640
      8          1           0       -1.331031   -1.020974    0.064609
      9          6           0       -0.858547    1.166235    0.033513
     10          8           0       -0.649266    2.373584   -0.057907
     11          8           0       -1.917829    0.519295    0.135292
     12          1           0       -1.574022   -2.497476    0.464343
     13          8           0       -1.940801   -1.858675   -0.219209
     14          1           0       -2.878963   -1.683899   -0.027545
 ---------------------------------------------------------------------
 Rotational constants (GHZ):           2.1807859           1.6145739           0.9333546
 Standard basis: 6-31+G(d,p) (6D, 7F)
 There are   196 symmetry adapted cartesian basis functions of A   symmetry.
 There are   196 symmetry adapted basis functions of A   symmetry.
   196 basis functions,   323 primitive gaussians,   196 cartesian basis functions
    34 alpha electrons       34 beta electrons
       nuclear repulsion energy       461.1487989828 Hartrees.
 NAtoms=   14 NActive=   14 NUniq=   14 SFac= 1.00D+00 NAtFMM=   60 NAOKFM=F Big=F
 Integral buffers will be    131072 words long.
 Raffenetti 2 integral format.
 Two-electron integral symmetry is turned on.
 Force inversion solution in PCM.
 ------------------------------------------------------------------------------
 Polarizable Continuum Model (PCM)
 =================================
 Model                : PCM.
 Atomic radii         : SMD-Coulomb.
 Polarization charges : Total charges.
 Charge compensation  : None.
 Solution method      : Matrix inversion.
 Cavity type          : VdW (van der Waals Surface) (Alpha=1.000).
 Cavity algorithm     : GePol (No added spheres)
                        Default sphere list used, NSphG=   14.
                        Lebedev-Laikov grids with approx.  5.0 points / Ang**2.
                        Smoothing algorithm: York/Karplus (Gamma=1.0000).
                        Polarization charges: spherical gaussians, with
                                              point-specific exponents (IZeta= 3).
                        Self-potential: point-specific (ISelfS= 7).
                        Self-field    : sphere-specific E.n sum rule (ISelfD= 2).
 1st derivatives      : Analytical E(r).r(x)/FMM algorithm (CHGder, D1EAlg=3).
                        Cavity 1st derivative terms included.
 2nd derivatives      : Analytical E(r).r(xy)/FMM algorithm (CHGder, D2EAlg=3).
                        Cavity 2nd derivative terms included.
 Solvent              : Water, Eps=  78.355300 Eps(inf)=   1.777849
 ------------------------------------------------------------------------------
 Spheres list:
 ISph  on   Nord     Re0    Alpha      Xe            Ye            Ze
    1   N      1    1.8900  1.000      0.404279     -0.987469      0.100017
    2   N      2    1.8900  1.000      0.394187      0.346407      0.019699
    3   C      3    1.8500  1.000      1.660391      0.803519     -0.068700
    4   C      4    1.8500  1.000      2.441400     -0.327979     -0.038349
    5   N      5    1.8900  1.000      1.628134     -1.409100      0.065963
    6   H      6    1.2000  1.000      1.887384      1.855043     -0.141707
    7   H      7    1.2000  1.000      3.514130     -0.425849     -0.083640
    8   H      8    1.2000  1.000     -1.331031     -1.020974      0.064609
    9   C      9    1.8500  1.000     -0.858547      1.166235      0.033513
   10   O     10    1.5200  1.000     -0.649266      2.373584     -0.057907
   11   O     11    1.5200  1.000     -1.917829      0.519295      0.135292
   12   H     12    1.2000  1.000     -1.574022     -2.497476      0.464343
   13   O     13    1.5200  1.000     -1.940801     -1.858675     -0.219209
   14   H     14    1.2000  1.000     -2.878963     -1.683899     -0.027545
 ------------------------------------------------------------------------------
 ------------------------------------------------------------------------------
 Atomic radii for non-electrostatic terms: SMD-CDS.
 ------------------------------------------------------------------------------
 Nuclear repulsion after PCM non-electrostatic terms =      461.1567511277 Hartrees.
 One-electron integrals computed using PRISM.
 NBasis=   196 RedAO= T EigKep=  1.92D-05  NBF=   196
 NBsUse=   196 1.00D-06 EigRej= -1.00D+00 NBFU=   196
 ExpMin= 4.38D-02 ExpMax= 5.48D+03 ExpMxC= 8.25D+02 IAcc=3 IRadAn=         5 AccDes= 0.00D+00
 Harris functional with IExCor= 1009 and IRadAn=       5 diagonalized for initial guess.
 HarFok:  IExCor= 1009 AccDes= 0.00D+00 IRadAn=         5 IDoV= 1 UseB2=F ITyADJ=14
 ICtDFT=  3500011 ScaDFX=  1.000000  1.000000  1.000000  1.000000
 FoFCou: FMM=F IPFlag=           0 FMFlag=      100000 FMFlg1=           0
         NFxFlg=           0 DoJE=T BraDBF=F KetDBF=T FulRan=T
         wScrn=  0.000000 ICntrl=       500 IOpCl=  0 I1Cent=   200000004 NGrid=           0
         NMat0=    1 NMatS0=      1 NMatT0=    0 NMatD0=    1 NMtDS0=    0 NMtDT0=    0
 Petite list used in FoFCou.
 Requested convergence on RMS density matrix=1.00D-08 within 128 cycles.
 Requested convergence on MAX density matrix=1.00D-06.
 Requested convergence on             energy=1.00D-06.
 No special actions if energy rises.
 Inv3:  Mode=1 IEnd=     3933075.
 Iteration    1 A*A^-1 deviation from unit magnitude is 2.66D-15 for    563.
 Iteration    1 A*A^-1 deviation from orthogonality  is 1.83D-15 for    511    123.
 Iteration    1 A^-1*A deviation from unit magnitude is 2.66D-15 for    620.
 Iteration    1 A^-1*A deviation from orthogonality  is 2.20D-15 for    730    568.
 Error on total polarization charges =  0.04099
 SCF Done:  E(RM062X) =  -507.052444355     A.U. after   14 cycles
            NFock= 14  Conv=0.28D-08     -V/T= 2.0083
 SMD-CDS (non-electrostatic) energy       (kcal/mol) =       4.99
 (included in total energy above)
 DoSCS=F DFT=T ScalE2(SS,OS)=  1.000000  1.000000
 Range of M.O.s used for correlation:     1   196
 NBasis=   196 NAE=    34 NBE=    34 NFC=     0 NFV=     0
 NROrb=    196 NOA=    34 NOB=    34 NVA=   162 NVB=   162

 **** Warning!!: The largest alpha MO coefficient is  0.77936186D+02

 Symmetrizing basis deriv contribution to polar:
 IMax=3 JMax=2 DiffMx= 0.00D+00
 G2DrvN: will do    15 centers at a time, making    1 passes.
 Calling FoFCou, ICntrl=  3107 FMM=F I1Cent=   0 AccDes= 0.00D+00.
 NEqPCM:  Using equilibrium solvation (IEInf=0, Eps=  78.3553, EpsInf=   1.7778)
 G2PCM: DoFxE=T DoFxN=T DoGrad=T DoDP/DQ/DG/TGxP=FFFF NFrqRd=   0 IEInf=0 SqF1=F DoCFld=F IF1Alg=4.
 End of G2Drv F.D. properties file   721 does not exist.
 End of G2Drv F.D. properties file   722 does not exist.
 End of G2Drv F.D. properties file   788 does not exist.
          IDoAtm=11111111111111
 NEqPCM:  Using equilibrium solvation (IEInf=0, Eps=  78.3553, EpsInf=   1.7778)
          Differentiating once with respect to nuclear coordinates.
 Keep R1 ints in memory in canonical form, NReq=210913844.
          There are    45 degrees of freedom in the 1st order CPHF.  IDoFFX=6 NUNeed=     0.
     39 vectors produced by pass  0 Test12= 1.22D-14 2.22D-09 XBig12= 1.22D-01 8.43D-02.
 AX will form    39 AO Fock derivatives at one time.
     39 vectors produced by pass  1 Test12= 1.22D-14 2.22D-09 XBig12= 1.75D-02 3.72D-02.
     39 vectors produced by pass  2 Test12= 1.22D-14 2.22D-09 XBig12= 3.34D-04 2.41D-03.
     39 vectors produced by pass  3 Test12= 1.22D-14 2.22D-09 XBig12= 3.11D-06 2.86D-04.
     39 vectors produced by pass  4 Test12= 1.22D-14 2.22D-09 XBig12= 2.70D-08 1.74D-05.
     39 vectors produced by pass  5 Test12= 1.22D-14 2.22D-09 XBig12= 1.47D-10 1.65D-06.
     32 vectors produced by pass  6 Test12= 1.22D-14 2.22D-09 XBig12= 5.01D-13 7.72D-08.
     11 vectors produced by pass  7 Test12= 1.22D-14 2.22D-09 XBig12= 1.71D-15 4.80D-09.
 InvSVY:  IOpt=1 It=  1 EMax= 1.11D-15
 Solved reduced A of dimension   277 with    39 vectors.
 End of Minotr F.D. properties file   721 does not exist.
 End of Minotr F.D. properties file   722 does not exist.
 End of Minotr F.D. properties file   788 does not exist.

 **********************************************************************

            Population analysis using the SCF density.

 **********************************************************************

 Orbital symmetries:
       Occupied  (A) (A) (A) (A) (A) (A) (A) (A) (A) (A) (A) (A)
                 (A) (A) (A) (A) (A) (A) (A) (A) (A) (A) (A) (A)
                 (A) (A) (A) (A) (A) (A) (A) (A) (A) (A)
       Virtual   (A) (A) (A) (A) (A) (A) (A) (A) (A) (A) (A) (A)
                 (A) (A) (A) (A) (A) (A) (A) (A) (A) (A) (A) (A)
                 (A) (A) (A) (A) (A) (A) (A) (A) (A) (A) (A) (A)
                 (A) (A) (A) (A) (A) (A) (A) (A) (A) (A) (A) (A)
                 (A) (A) (A) (A) (A) (A) (A) (A) (A) (A) (A) (A)
                 (A) (A) (A) (A) (A) (A) (A) (A) (A) (A) (A) (A)
                 (A) (A) (A) (A) (A) (A) (A) (A) (A) (A) (A) (A)
                 (A) (A) (A) (A) (A) (A) (A) (A) (A) (A) (A) (A)
                 (A) (A) (A) (A) (A) (A) (A) (A) (A) (A) (A) (A)
                 (A) (A) (A) (A) (A) (A) (A) (A) (A) (A) (A) (A)
                 (A) (A) (A) (A) (A) (A) (A) (A) (A) (A) (A) (A)
                 (A) (A) (A) (A) (A) (A) (A) (A) (A) (A) (A) (A)
                 (A) (A) (A) (A) (A) (A) (A) (A) (A) (A) (A) (A)
                 (A) (A) (A) (A) (A) (A)
 The electronic state is 1-A.
 Alpha  occ. eigenvalues --  -19.74540 -19.64505 -19.63553 -14.86822 -14.84821
 Alpha  occ. eigenvalues --  -14.81307 -10.72153 -10.60259 -10.58294  -1.25637
 Alpha  occ. eigenvalues --   -1.23684  -1.20848  -1.12598  -1.02751  -0.92077
 Alpha  occ. eigenvalues --   -0.76620  -0.73061  -0.69977  -0.66790  -0.65212
 Alpha  occ. eigenvalues --   -0.59039  -0.58361  -0.54679  -0.54142  -0.52544
 Alpha  occ. eigenvalues --   -0.51812  -0.51500  -0.43779  -0.39785  -0.38107
 Alpha  occ. eigenvalues --   -0.37784  -0.37076  -0.36011  -0.33310
 Alpha virt. eigenvalues --   -0.00522   0.01944   0.03728   0.04376   0.04857
 Alpha virt. eigenvalues --    0.05899   0.06145   0.06344   0.07642   0.09502
 Alpha virt. eigenvalues --    0.10480   0.10687   0.11795   0.12778   0.13197
 Alpha virt. eigenvalues --    0.15082   0.16066   0.16510   0.18010   0.18986
 Alpha virt. eigenvalues --    0.19309   0.21194   0.21484   0.21868   0.23587
 Alpha virt. eigenvalues --    0.24437   0.24673   0.25280   0.25571   0.25913
 Alpha virt. eigenvalues --    0.27317   0.27985   0.29090   0.29562   0.29983
 Alpha virt. eigenvalues --    0.30859   0.31670   0.31908   0.33193   0.34148
 Alpha virt. eigenvalues --    0.35640   0.36449   0.37377   0.38813   0.41609
 Alpha virt. eigenvalues --    0.42375   0.43697   0.45888   0.50662   0.52328
 Alpha virt. eigenvalues --    0.53003   0.65969   0.72358   0.73762   0.76228
 Alpha virt. eigenvalues --    0.80470   0.83050   0.83472   0.87866   0.90464
 Alpha virt. eigenvalues --    0.92568   0.94077   0.94727   0.97137   0.98282
 Alpha virt. eigenvalues --    0.98977   0.99859   1.01347   1.04429   1.06117
 Alpha virt. eigenvalues --    1.07805   1.11224   1.16093   1.17842   1.18589
 Alpha virt. eigenvalues --    1.20179   1.22711   1.25848   1.27437   1.28590
 Alpha virt. eigenvalues --    1.30130   1.32106   1.34474   1.35965   1.37083
 Alpha virt. eigenvalues --    1.38075   1.39311   1.39857   1.41705   1.45811
 Alpha virt. eigenvalues --    1.46703   1.48751   1.49772   1.51116   1.56755
 Alpha virt. eigenvalues --    1.56914   1.61018   1.63583   1.66445   1.71621
 Alpha virt. eigenvalues --    1.77179   1.77620   1.84294   1.86650   1.90488
 Alpha virt. eigenvalues --    1.92601   1.93701   1.96224   1.99544   2.00561
 Alpha virt. eigenvalues --    2.04841   2.08317   2.09257   2.11127   2.18570
 Alpha virt. eigenvalues --    2.21438   2.22916   2.23871   2.27199   2.30375
 Alpha virt. eigenvalues --    2.33270   2.35052   2.37150   2.41104   2.43482
 Alpha virt. eigenvalues --    2.44504   2.46217   2.54729   2.57049   2.58756
 Alpha virt. eigenvalues --    2.59155   2.61818   2.66323   2.73330   2.74422
 Alpha virt. eigenvalues --    2.78330   2.80062   2.83742   2.88261   2.94648
 Alpha virt. eigenvalues --    2.97828   3.00737   3.05741   3.10346   3.12303
 Alpha virt. eigenvalues --    3.14752   3.23430   3.29705   3.36503   3.37888
 Alpha virt. eigenvalues --    3.53163   3.58437   3.75540   4.02552   4.20517
 Alpha virt. eigenvalues --    4.21240   4.28686   4.33397   4.48188   4.58529
 Alpha virt. eigenvalues --    4.71190   4.77787
          Condensed to atoms (all electrons):
               1          2          3          4          5          6
     1  N    8.069689  -0.328869  -0.325247   0.388354  -0.585624  -0.000828
     2  N   -0.328869   7.181657   0.406720  -0.229638   0.314019  -0.040137
     3  C   -0.325247   0.406720   5.594531   0.007245   0.053812   0.418375
     4  C    0.388354  -0.229638   0.007245   5.661607   0.074818  -0.030454
     5  N   -0.585624   0.314019   0.053812   0.074818   7.415338  -0.000104
     6  H   -0.000828  -0.040137   0.418375  -0.030454  -0.000104   0.405613
     7  H    0.023306  -0.019913  -0.009324   0.386350  -0.048977   0.000437
     8  H    0.047439  -0.022243   0.006466  -0.008573   0.016201  -0.000002
     9  C   -0.004577   0.055277  -0.074215  -0.037202   0.032433  -0.009763
    10  O    0.006957  -0.096365  -0.081931   0.055610  -0.009079  -0.000922
    11  O   -0.063454  -0.059929   0.025828  -0.000268  -0.002340  -0.000524
    12  H   -0.007910   0.011766   0.001693  -0.001950   0.004211  -0.000000
    13  O   -0.047226  -0.001365   0.000549  -0.000883   0.021049   0.000029
    14  H    0.003030   0.000209  -0.000431   0.000576  -0.002304  -0.000000
               7          8          9         10         11         12
     1  N    0.023306   0.047439  -0.004577   0.006957  -0.063454  -0.007910
     2  N   -0.019913  -0.022243   0.055277  -0.096365  -0.059929   0.011766
     3  C   -0.009324   0.006466  -0.074215  -0.081931   0.025828   0.001693
     4  C    0.386350  -0.008573  -0.037202   0.055610  -0.000268  -0.001950
     5  N   -0.048977   0.016201   0.032433  -0.009079  -0.002340   0.004211
     6  H    0.000437  -0.000002  -0.009763  -0.000922  -0.000524  -0.000000
     7  H    0.440002  -0.000004  -0.001195  -0.000182   0.000023  -0.000000
     8  H   -0.000004   0.251496   0.014091   0.001445   0.063451  -0.007555
     9  C   -0.001195   0.014091   4.452708   0.469309   0.296557  -0.000426
    10  O   -0.000182   0.001445   0.469309   8.427867  -0.130397   0.000009
    11  O    0.000023   0.063451   0.296557  -0.130397   8.641933   0.000355
    12  H   -0.000000  -0.007555  -0.000426   0.000009   0.000355   0.240110
    13  O    0.000020   0.143520  -0.015157  -0.001102  -0.077444   0.281143
    14  H   -0.000000  -0.007473   0.001142  -0.000025  -0.001234  -0.014659
              13         14
     1  N   -0.047226   0.003030
     2  N   -0.001365   0.000209
     3  C    0.000549  -0.000431
     4  C   -0.000883   0.000576
     5  N    0.021049  -0.002304
     6  H    0.000029  -0.000000
     7  H    0.000020  -0.000000
     8  H    0.143520  -0.007473
     9  C   -0.015157   0.001142
    10  O   -0.001102  -0.000025
    11  O   -0.077444  -0.001234
    12  H    0.281143  -0.014659
    13  O    7.969147   0.283404
    14  H    0.283404   0.232688
 Mulliken charges:
               1
     1  N   -0.175042
     2  N   -0.171187
     3  C   -0.024073
     4  C   -0.265590
     5  N   -0.283453
     6  H    0.258279
     7  H    0.229458
     8  H    0.501740
     9  C    0.821017
    10  O   -0.641197
    11  O   -0.692558
    12  H    0.493213
    13  O   -0.555684
    14  H    0.505076
 Sum of Mulliken charges =  -0.00000
 Mulliken charges with hydrogens summed into heavy atoms:
               1
     1  N   -0.175042
     2  N   -0.171187
     3  C    0.234207
     4  C   -0.036132
     5  N   -0.283453
     9  C    0.821017
    10  O   -0.641197
    11  O   -0.692558
    13  O    0.944345
 APT charges:
               1
     1  N   -0.380983
     2  N   -0.386414
     3  C   -0.459294
     4  C   -0.495449
     5  N   -0.084876
     6  H    0.631358
     7  H    0.839996
     8  H    0.235290
     9  C    0.311464
    10  O   -0.347764
    11  O   -0.487167
    12  H    0.655178
    13  O   -0.968095
    14  H    0.936758
 Sum of APT charges =  -0.00000
 APT charges with hydrogens summed into heavy atoms:
               1
     1  N   -0.380983
     2  N   -0.386414
     3  C    0.172064
     4  C    0.344546
     5  N   -0.084876
     9  C    0.311464
    10  O   -0.347764
    11  O   -0.487167
    13  O    0.859131
 Electronic spatial extent (au):  <R**2>=           1155.3688
 Charge=             -0.0000 electrons
 Dipole moment (field-independent basis, Debye):
    X=             -0.9736    Y=             -7.5683    Z=              1.2340  Tot=              7.7298
 Quadrupole moment (field-independent basis, Debye-Ang):
   XX=            -37.8188   YY=            -57.4171   ZZ=            -52.9041
   XY=             24.0604   XZ=             -2.7673   YZ=             -3.6120
 Traceless Quadrupole moment (field-independent basis, Debye-Ang):
   XX=             11.5612   YY=             -8.0371   ZZ=             -3.5240
   XY=             24.0604   XZ=             -2.7673   YZ=             -3.6120
 Octapole moment (field-independent basis, Debye-Ang**2):
  XXX=            -21.4364  YYY=            -59.6686  ZZZ=              0.8302  XYY=            -24.5421
  XXY=            -33.3825  XXZ=              1.2274  XZZ=             -8.9312  YZZ=             -2.4159
  YYZ=             10.0444  XYZ=              6.7514
 Hexadecapole moment (field-independent basis, Debye-Ang**3):
 XXXX=           -592.0672 YYYY=           -626.8379 ZZZZ=            -55.0913 XXXY=            134.8751
 XXXZ=             -8.6099 YYYX=            140.4215 YYYZ=            -22.1603 ZZZX=             -0.4277
 ZZZY=             -1.4955 XXYY=           -189.7435 XXZZ=           -151.6679 YYZZ=           -107.4806
 XXYZ=            -11.5726 YYXZ=            -18.8763 ZZXY=              8.2966
 N-N= 4.611567511277D+02 E-N=-2.109035769791D+03  KE= 5.028849197188D+02
  Exact polarizability:   0.000   0.000   0.000   0.000   0.000   0.000
 Approx polarizability:  97.095   1.436 101.169  -1.653  -3.372  52.556
 D2PCM: PCM CHGder 2nd derivatives, FixD1E=F FixD2E=F DoIter=F DoCFld=F I1PDM=0
 Calling FoFJK, ICntrl=    100147 FMM=F ISym2X=0 I1Cent= 0 IOpClX= 0 NMat=1 NMatS=1 NMatT=0.
 ***** Axes restored to original set *****
 -------------------------------------------------------------------
 Center     Atomic                   Forces (Hartrees/Bohr)
 Number     Number              X              Y              Z
 -------------------------------------------------------------------
      1        7           0.005585183    0.007405033   -0.004163026
      2        7          -0.010393373    0.002750554   -0.000565951
      3        6          -0.004532854    0.003160452    0.000247879
      4        6          -0.001772754    0.004915080    0.000115979
      5        7           0.003587898    0.000259061    0.000056896
      6        1          -0.000711205   -0.000131832    0.000085152
      7        1          -0.000230112    0.000202847    0.000042434
      8        1           0.036097149   -0.016249896    0.019862843
      9        6          -0.004983777    0.008996006   -0.000745847
     10        8          -0.000163173    0.001734165    0.000242705
     11        8          -0.013568744    0.000128228   -0.003442808
     12        1           0.017136343    0.005349514    0.020529544
     13        8          -0.027347298   -0.019271117   -0.029553069
     14        1           0.001296717    0.000751906   -0.002712732
 -------------------------------------------------------------------
 Cartesian Forces:  Max     0.036097149 RMS     0.011237388
 FormGI is forming the generalized inverse of G from B-inverse, IUseBI=4.

 GradGradGradGradGradGradGradGradGradGradGradGradGradGradGradGradGradGrad
 Berny optimization.
 Internal  Forces:  Max     0.026223869 RMS     0.007068457
 Search for a saddle point.
 Step number   1 out of a maximum of   80
 All quantities printed in internal units (Hartrees-Bohrs-Radians)
 Swapping is turned off.
 Second derivative matrix not updated -- analytic derivatives used.
 ITU=  0
     Eigenvalues ---   -0.01875  -0.00017   0.00104   0.00200   0.00525
     Eigenvalues ---    0.00733   0.01346   0.02476   0.02560   0.03494
     Eigenvalues ---    0.04551   0.05820   0.06216   0.06685   0.09690
     Eigenvalues ---    0.09807   0.10661   0.11885   0.12585   0.13587
     Eigenvalues ---    0.19544   0.22179   0.25495   0.27409   0.33227
     Eigenvalues ---    0.35818   0.39042   0.39111   0.41701   0.43229
     Eigenvalues ---    0.45934   0.49604   0.51633   0.57225   0.60305
     Eigenvalues ---    0.83629
 Eigenvectors required to have negative eigenvalues:
                          R10       R3        A15       A16       A3
   1                   -0.64053   0.47636  -0.38467   0.35190   0.15644
                          A2        A20       D8        D10       R11
   1                   -0.13779   0.10409   0.09402   0.08857   0.06667
 RFO step:  Lambda0=1.841727487D-04 Lambda=-2.74169860D-02.
 Linear search not attempted -- option 19 set.
 Maximum step size (   0.300) exceeded in Quadratic search.
    -- Step size scaled by   0.525
 Iteration  1 RMS(Cart)=  0.08878032 RMS(Int)=  0.00748797
 Iteration  2 RMS(Cart)=  0.00792133 RMS(Int)=  0.00224186
 Iteration  3 RMS(Cart)=  0.00008368 RMS(Int)=  0.00224092
 Iteration  4 RMS(Cart)=  0.00000010 RMS(Int)=  0.00224092
 Variable       Old X    -DE/DX   Delta X   Delta X   Delta X     New X
                                 (Linear)    (Quad)   (Total)
    R1        2.52530   0.00615   0.00000  -0.00234  -0.00335   2.52195
    R2        2.44700   0.00055   0.00000   0.00118   0.00118   2.44818
    R3        3.28055   0.01251   0.00000   0.05953   0.06101   3.34157
    R4        2.54941   0.00350   0.00000   0.00144   0.00122   2.55062
    R5        2.82933  -0.00483   0.00000  -0.02309  -0.02474   2.80459
    R6        2.59876  -0.00382   0.00000  -0.00167  -0.00147   2.59729
    R7        2.03754   0.00006   0.00000   0.00025   0.00025   2.03780
    R8        2.56412   0.00547   0.00000   0.00514   0.00547   2.56959
    R9        2.03738   0.00020   0.00000   0.00026   0.00026   2.03764
   R10        3.11762   0.00819   0.00000   0.09032   0.09145   3.20907
   R11        2.03013   0.00075   0.00000  -0.04062  -0.04062   1.98951
   R12        2.32202   0.00173   0.00000   0.00376   0.00376   2.32578
   R13        2.35343   0.00740   0.00000   0.00259   0.00163   2.35505
   R14        1.89900  -0.02256   0.00000  -0.02950  -0.02950   1.86949
   R15        1.83938   0.00185   0.00000   0.00258   0.00258   1.84196
    A1        1.90770  -0.00980   0.00000  -0.00938  -0.00938   1.89832
    A2        1.58129   0.01715   0.00000   0.10399   0.10363   1.68492
    A3        2.78745  -0.00744   0.00000  -0.09016  -0.09014   2.69731
    A4        1.91246   0.00692   0.00000   0.01095   0.01162   1.92409
    A5        2.15595  -0.00725   0.00000  -0.03199  -0.03505   2.12090
    A6        2.21477   0.00033   0.00000   0.02110   0.02324   2.23801
    A7        1.82637  -0.00296   0.00000  -0.00599  -0.00646   1.81991
    A8        2.13231   0.00221   0.00000   0.00371   0.00394   2.13625
    A9        2.32450   0.00075   0.00000   0.00229   0.00252   2.32702
   A10        1.89323  -0.00004   0.00000   0.00000   0.00002   1.89325
   A11        2.26378  -0.00023   0.00000   0.00018   0.00016   2.26394
   A12        2.12617   0.00027   0.00000  -0.00017  -0.00019   2.12599
   A13        1.88501   0.00587   0.00000   0.00442   0.00419   1.88920
   A14        1.91415  -0.02285   0.00000  -0.13431  -0.13517   1.77898
   A15        2.19915   0.00743   0.00000   0.10029   0.09911   2.29825
   A16        2.13820   0.01574   0.00000   0.05447   0.05320   2.19140
   A17        1.97668   0.00296   0.00000   0.01305   0.01511   1.99180
   A18        2.01306  -0.00543   0.00000  -0.01597  -0.02016   1.99290
   A19        2.29344   0.00247   0.00000   0.00293   0.00504   2.29848
   A20        1.75072   0.01814   0.00000   0.09845   0.09544   1.84616
   A21        1.67982   0.02622   0.00000   0.09583   0.09593   1.77575
   A22        1.93375  -0.00437   0.00000  -0.02127  -0.02120   1.91255
   A23        1.90921  -0.00669   0.00000  -0.03127  -0.03105   1.87816
    D1       -0.00075   0.00018   0.00000  -0.00309  -0.00113  -0.00188
    D2       -3.13961   0.00043   0.00000  -0.02441  -0.02302   3.12055
    D3       -3.07225   0.00121   0.00000  -0.01746  -0.02216  -3.09441
    D4        0.07207   0.00146   0.00000  -0.03878  -0.04404   0.02803
    D5        0.00061  -0.00032   0.00000   0.00159   0.00051   0.00112
    D6        2.93886   0.00082   0.00000   0.09428   0.09024   3.02910
    D7       -0.11320  -0.00081   0.00000   0.10971   0.10788  -0.00532
    D8        2.76413   0.00228   0.00000   0.19602   0.19238   2.95650
    D9       -3.06302  -0.00118   0.00000   0.02328   0.02437  -3.03865
   D10       -0.18569   0.00191   0.00000   0.10959   0.10886  -0.07683
   D11        0.00056   0.00004   0.00000   0.00321   0.00124   0.00180
   D12       -3.13987  -0.00001   0.00000  -0.00218  -0.00312   3.14019
   D13        3.13931  -0.00023   0.00000   0.02533   0.02488  -3.11900
   D14       -0.00112  -0.00029   0.00000   0.01994   0.02051   0.01939
   D15       -3.13484  -0.00067   0.00000  -0.05455  -0.05074   3.09760
   D16        0.00787  -0.00020   0.00000  -0.05833  -0.05669  -0.04882
   D17        0.00997  -0.00038   0.00000  -0.07963  -0.07684  -0.06687
   D18       -3.13051   0.00009   0.00000  -0.08341  -0.08278   3.06989
   D19       -0.00019  -0.00023   0.00000  -0.00222  -0.00091  -0.00110
   D20       -3.14103  -0.00002   0.00000  -0.00503  -0.00428   3.13787
   D21        3.14006  -0.00017   0.00000   0.00403   0.00416  -3.13897
   D22       -0.00079   0.00005   0.00000   0.00122   0.00078  -0.00000
   D23       -0.00025   0.00035   0.00000   0.00044   0.00027   0.00001
   D24        3.14066   0.00015   0.00000   0.00298   0.00332  -3.13921
   D25        0.12809   0.00103   0.00000  -0.14807  -0.14772  -0.01963
   D26       -2.76022  -0.00073   0.00000  -0.24051  -0.23610  -2.99632
   D27        1.00604  -0.00115   0.00000   0.08682   0.08332   1.08936
   D28        2.98707   0.00230   0.00000   0.09040   0.08671   3.07377
   D29       -2.43151  -0.00323   0.00000   0.15885   0.16254  -2.26897
   D30       -0.45049   0.00023   0.00000   0.16243   0.16593  -0.28456
   D31       -0.08724  -0.00178   0.00000   0.11565   0.12366   0.03643
   D32        3.05573  -0.00120   0.00000   0.11101   0.11639  -3.11107
         Item               Value     Threshold  Converged?
 Maximum Force            0.026224     0.000450     NO 
 RMS     Force            0.007068     0.000300     NO 
 Maximum Displacement     0.299929     0.001800     NO 
 RMS     Displacement     0.089155     0.001200     NO 
 Predicted change in Energy=-1.180120D-02
 GradGradGradGradGradGradGradGradGradGradGradGradGradGradGradGradGradGrad

                          Input orientation:                          
 ---------------------------------------------------------------------
 Center     Atomic      Atomic             Coordinates (Angstroms)
 Number     Number       Type             X           Y           Z
 ---------------------------------------------------------------------
      1          7           0       -0.357360   -0.931398    0.062057
      2          7           0       -0.425970    0.400436    0.011453
      3          6           0       -1.714570    0.800800   -0.020081
      4          6           0       -2.434069   -0.369673    0.016755
      5          7           0       -1.560890   -1.410841    0.066771
      6          1           0       -1.995537    1.841093   -0.061257
      7          1           0       -3.501418   -0.522723    0.012652
      8          1           0        1.404283   -1.038249    0.171654
      9          6           0        0.796994    1.241217    0.020066
     10          8           0        0.578281    2.448215   -0.080261
     11          8           0        1.858222    0.597664    0.132986
     12          1           0        1.852716   -2.458350   -0.369882
     13          8           0        2.044808   -1.846506    0.383410
     14          1           0        2.972363   -1.558693    0.300401
 ---------------------------------------------------------------------
                    Distance matrix (angstroms):
                    1          2          3          4          5
     1  N    0.000000
     2  N    1.334560   0.000000
     3  C    2.202107   1.349731   0.000000
     4  C    2.151816   2.150711   1.374425   0.000000
     5  N    1.295521   2.138183   2.218674   1.359770   0.000000
     6  H    3.222660   2.131741   1.078355   2.255191   3.283350
     7  H    3.170892   3.211012   2.223872   1.078273   2.134791
     8  H    1.768280   2.333519   3.625756   3.899223   2.990331
     9  C    2.460599   1.484125   2.550202   3.610367   3.548973
    10  O    3.509624   2.282615   2.823963   4.126035   4.414747
    11  O    2.692929   2.295910   3.581834   4.401479   3.965956
    12  H    2.720770   3.675661   4.844579   4.784202   3.597311
    13  O    2.590579   3.360334   4.615620   4.730307   3.645698
    14  H    3.396669   3.933236   5.257114   5.542899   4.541676
                    6          7          8          9         10
     6  H    0.000000
     7  H    2.803706   0.000000
     8  H    4.461349   4.935276   0.000000
     9  C    2.857393   4.646276   2.363841   0.000000
    10  O    2.644522   5.047678   3.591821   1.230750   0.000000
    11  O    4.054048   5.476814   1.698167   1.246241   2.260146
    12  H    5.778366   5.706114   1.584626   3.866963   5.077642
    13  O    5.488214   5.714060   1.052801   3.350088   4.561832
    14  H    6.030702   6.562459   1.657199   3.556728   4.683144
                   11         12         13         14
    11  O    0.000000
    12  H    3.097116   0.000000
    13  O    2.464040   0.989294   0.000000
    14  H    2.432944   1.585014   0.974723   0.000000
 Stoichiometry    C3H5N3O3
 Framework group  C1[X(C3H5N3O3)]
 Deg. of freedom    36
 Full point group                 C1      NOp   1
 Largest Abelian subgroup         C1      NOp   1
 Largest concise Abelian subgroup C1      NOp   1
                         Standard orientation:                         
 ---------------------------------------------------------------------
 Center     Atomic      Atomic             Coordinates (Angstroms)
 Number     Number       Type             X           Y           Z
 ---------------------------------------------------------------------
      1          7           0        0.288426   -0.987198    0.047935
      2          7           0        0.454165    0.336647    0.016098
      3          6           0        1.768075    0.641762   -0.032058
      4          6           0        2.399709   -0.578925   -0.030204
      5          7           0        1.453116   -1.553832    0.019717
      6          1           0        2.124151    1.659095   -0.065119
      7          1           0        3.452413   -0.810011   -0.063178
      8          1           0       -1.479564   -0.969483    0.021225
      9          6           0       -0.704752    1.263742    0.010342
     10          8           0       -0.396004    2.454990    0.029036
     11          8           0       -1.813334    0.695097   -0.018018
     12          1           0       -2.001904   -2.319810    0.665286
     13          8           0       -2.185428   -1.738790   -0.114096
     14          1           0       -3.085106   -1.378961   -0.008322
 ---------------------------------------------------------------------
 Rotational constants (GHZ):           2.1031961           1.6170300           0.9165758
 Standard basis: 6-31+G(d,p) (6D, 7F)
 There are   196 symmetry adapted cartesian basis functions of A   symmetry.
 There are   196 symmetry adapted basis functions of A   symmetry.
   196 basis functions,   323 primitive gaussians,   196 cartesian basis functions
    34 alpha electrons       34 beta electrons
       nuclear repulsion energy       459.2685404978 Hartrees.
 NAtoms=   14 NActive=   14 NUniq=   14 SFac= 1.00D+00 NAtFMM=   60 NAOKFM=F Big=F
 Integral buffers will be    131072 words long.
 Raffenetti 2 integral format.
 Two-electron integral symmetry is turned on.
 ------------------------------------------------------------------------------
 Polarizable Continuum Model (PCM)
 =================================
 Model                : PCM.
 Atomic radii         : SMD-Coulomb.
 Polarization charges : Total charges.
 Charge compensation  : None.
 Solution method      : Matrix inversion.
 Cavity type          : VdW (van der Waals Surface) (Alpha=1.000).
 Cavity algorithm     : GePol (No added spheres)
                        Default sphere list used, NSphG=   14.
                        Lebedev-Laikov grids with approx.  5.0 points / Ang**2.
                        Smoothing algorithm: York/Karplus (Gamma=1.0000).
                        Polarization charges: spherical gaussians, with
                                              point-specific exponents (IZeta= 3).
                        Self-potential: point-specific (ISelfS= 7).
                        Self-field    : sphere-specific E.n sum rule (ISelfD= 2).
 1st derivatives      : Analytical E(r).r(x)/FMM algorithm (CHGder, D1EAlg=3).
                        Cavity 1st derivative terms included.
 Solvent              : Water, Eps=  78.355300 Eps(inf)=   1.777849
 ------------------------------------------------------------------------------
 Spheres list:
 ISph  on   Nord     Re0    Alpha      Xe            Ye            Ze
    1   N      1    1.8900  1.000      0.288426     -0.987198      0.047935
    2   N      2    1.8900  1.000      0.454165      0.336647      0.016098
    3   C      3    1.8500  1.000      1.768075      0.641762     -0.032058
    4   C      4    1.8500  1.000      2.399709     -0.578925     -0.030204
    5   N      5    1.8900  1.000      1.453116     -1.553832      0.019717
    6   H      6    1.2000  1.000      2.124151      1.659095     -0.065119
    7   H      7    1.2000  1.000      3.452413     -0.810011     -0.063178
    8   H      8    1.2000  1.000     -1.479564     -0.969483      0.021225
    9   C      9    1.8500  1.000     -0.704752      1.263742      0.010342
   10   O     10    1.5200  1.000     -0.396004      2.454990      0.029036
   11   O     11    1.5200  1.000     -1.813334      0.695097     -0.018018
   12   H     12    1.2000  1.000     -2.001904     -2.319810      0.665286
   13   O     13    1.5200  1.000     -2.185428     -1.738790     -0.114096
   14   H     14    1.2000  1.000     -3.085106     -1.378961     -0.008322
 ------------------------------------------------------------------------------
 ------------------------------------------------------------------------------
 Atomic radii for non-electrostatic terms: SMD-CDS.
 ------------------------------------------------------------------------------
 Nuclear repulsion after PCM non-electrostatic terms =      459.2765737098 Hartrees.
 One-electron integrals computed using PRISM.
 NBasis=   196 RedAO= T EigKep=  1.90D-05  NBF=   196
 NBsUse=   196 1.00D-06 EigRej= -1.00D+00 NBFU=   196
 Initial guess from the checkpoint file:  "/scratch/gongke2021/TS-2/Gau-27269.chk"
 B after Tr=    -0.000000    0.000000   -0.000000
         Rot=    0.998640    0.001044    0.000167    0.052117 Ang=   5.98 deg.
 ExpMin= 4.38D-02 ExpMax= 5.48D+03 ExpMxC= 8.25D+02 IAcc=2 IRadAn=         4 AccDes= 0.00D+00
 Harris functional with IExCor= 1009 and IRadAn=       4 diagonalized for initial guess.
 HarFok:  IExCor= 1009 AccDes= 0.00D+00 IRadAn=         4 IDoV= 1 UseB2=F ITyADJ=14
 ICtDFT=  3500011 ScaDFX=  1.000000  1.000000  1.000000  1.000000
 FoFCou: FMM=F IPFlag=           0 FMFlag=      100000 FMFlg1=           0
         NFxFlg=           0 DoJE=T BraDBF=F KetDBF=T FulRan=T
         wScrn=  0.000000 ICntrl=       500 IOpCl=  0 I1Cent=   200000004 NGrid=           0
         NMat0=    1 NMatS0=      1 NMatT0=    0 NMatD0=    1 NMtDS0=    0 NMtDT0=    0
 Petite list used in FoFCou.
 Requested convergence on RMS density matrix=1.00D-08 within 128 cycles.
 Requested convergence on MAX density matrix=1.00D-06.
 Requested convergence on             energy=1.00D-06.
 No special actions if energy rises.
 Inv3:  Mode=1 IEnd=     4043763.
 Iteration    1 A*A^-1 deviation from unit magnitude is 2.66D-15 for     44.
 Iteration    1 A*A^-1 deviation from orthogonality  is 1.93D-15 for    586    135.
 Iteration    1 A^-1*A deviation from unit magnitude is 3.00D-15 for    379.
 Iteration    1 A^-1*A deviation from orthogonality  is 1.80D-15 for    669    375.
 Error on total polarization charges =  0.04124
 SCF Done:  E(RM062X) =  -507.064041286     A.U. after   13 cycles
            NFock= 13  Conv=0.46D-08     -V/T= 2.0083
 SMD-CDS (non-electrostatic) energy       (kcal/mol) =       5.04
 (included in total energy above)
 D1PCM: PCM CHGder 1st derivatives, ID1Alg=3 FixD1E=F DoIter=F DoCFld=F I1PDM=0.
 Calling FoFJK, ICntrl=      2127 FMM=F ISym2X=0 I1Cent= 0 IOpClX= 0 NMat=1 NMatS=1 NMatT=0.
 ***** Axes restored to original set *****
 -------------------------------------------------------------------
 Center     Atomic                   Forces (Hartrees/Bohr)
 Number     Number              X              Y              Z
 -------------------------------------------------------------------
      1        7           0.001215402    0.007363075   -0.001258228
      2        7          -0.006616035    0.001620048   -0.000514819
      3        6          -0.002504803    0.001242572    0.000001207
      4        6          -0.000924478    0.002379934   -0.000090980
      5        7           0.001865984   -0.000567606   -0.000385129
      6        1          -0.000331096   -0.000072456    0.000040934
      7        1          -0.000136757    0.000084447   -0.000063660
      8        1           0.021821923   -0.012859733    0.012942515
      9        6          -0.002199246    0.005587303   -0.000208756
     10        8           0.000219192    0.000990200    0.000018375
     11        8          -0.008073465    0.001632208   -0.002034222
     12        1           0.007027571   -0.000022556    0.011251739
     13        8          -0.012327432   -0.008478757   -0.019466306
     14        1           0.000963240    0.001101322   -0.000232671
 -------------------------------------------------------------------
 Cartesian Forces:  Max     0.021821923 RMS     0.006585598

 GradGradGradGradGradGradGradGradGradGradGradGradGradGradGradGradGradGrad
 Berny optimization.
 FormGI is forming the generalized inverse of G from B-inverse, IUseBI=4.
 Internal  Forces:  Max     0.015196915 RMS     0.004167505
 Search for a saddle point.
 Step number   2 out of a maximum of   80
 All quantities printed in internal units (Hartrees-Bohrs-Radians)
 Swapping is turned off.
 Update second derivatives using D2CorX and points    1    2
 ITU=  0  0
     Eigenvalues ---   -0.01876   0.00022   0.00115   0.00199   0.00524
     Eigenvalues ---    0.00734   0.01346   0.02459   0.02549   0.03485
     Eigenvalues ---    0.04537   0.05808   0.06210   0.06675   0.09692
     Eigenvalues ---    0.09807   0.10661   0.11865   0.12605   0.13565
     Eigenvalues ---    0.19495   0.22166   0.25459   0.27388   0.33204
     Eigenvalues ---    0.35807   0.39042   0.39111   0.41742   0.43210
     Eigenvalues ---    0.45913   0.49546   0.51633   0.57155   0.60304
     Eigenvalues ---    0.83573
 Eigenvectors required to have negative eigenvalues:
                          R10       R3        A15       A16       A3
   1                    0.64116  -0.47018   0.38658  -0.35436  -0.16268
                          A2        A20       D8        D10       R11
   1                    0.14849  -0.11613  -0.07994  -0.07817  -0.06677
 RFO step:  Lambda0=2.932270135D-05 Lambda=-1.28993796D-02.
 Linear search not attempted -- option 19 set.
 Maximum step size (   0.300) exceeded in Quadratic search.
    -- Step size scaled by   0.722
 Iteration  1 RMS(Cart)=  0.05177811 RMS(Int)=  0.00221933
 Iteration  2 RMS(Cart)=  0.00190847 RMS(Int)=  0.00084568
 Iteration  3 RMS(Cart)=  0.00000415 RMS(Int)=  0.00084568
 Iteration  4 RMS(Cart)=  0.00000000 RMS(Int)=  0.00084568
 Variable       Old X    -DE/DX   Delta X   Delta X   Delta X     New X
                                 (Linear)    (Quad)   (Total)
    R1        2.52195   0.00319   0.00000  -0.00567  -0.00684   2.51511
    R2        2.44818   0.00047   0.00000   0.00107   0.00115   2.44933
    R3        3.34157   0.00983   0.00000   0.12533   0.12655   3.46812
    R4        2.55062   0.00191   0.00000   0.00215   0.00199   2.55261
    R5        2.80459  -0.00209   0.00000  -0.01767  -0.01946   2.78513
    R6        2.59729  -0.00186   0.00000  -0.00157  -0.00154   2.59574
    R7        2.03780   0.00001   0.00000   0.00016   0.00016   2.03795
    R8        2.56959   0.00264   0.00000   0.00453   0.00470   2.57430
    R9        2.03764   0.00012   0.00000   0.00027   0.00027   2.03791
   R10        3.20907   0.00698   0.00000   0.09491   0.09633   3.30540
   R11        1.98951   0.00132   0.00000  -0.05727  -0.05727   1.93224
   R12        2.32578   0.00094   0.00000   0.00354   0.00354   2.32932
   R13        2.35505   0.00439   0.00000   0.00013  -0.00043   2.35463
   R14        1.86949  -0.00991   0.00000  -0.01837  -0.01837   1.85112
   R15        1.84196   0.00127   0.00000   0.00236   0.00236   1.84432
    A1        1.89832  -0.00498   0.00000  -0.00576  -0.00594   1.89238
    A2        1.68492   0.01064   0.00000   0.08584   0.08613   1.77105
    A3        2.69731  -0.00567   0.00000  -0.07922  -0.07933   2.61798
    A4        1.92409   0.00343   0.00000   0.00815   0.00885   1.93293
    A5        2.12090  -0.00459   0.00000  -0.02727  -0.02945   2.09145
    A6        2.23801   0.00116   0.00000   0.01906   0.02054   2.25856
    A7        1.81991  -0.00145   0.00000  -0.00439  -0.00478   1.81513
    A8        2.13625   0.00108   0.00000   0.00259   0.00279   2.13903
    A9        2.32702   0.00037   0.00000   0.00181   0.00200   2.32902
   A10        1.89325  -0.00004   0.00000  -0.00068  -0.00077   1.89248
   A11        2.26394  -0.00007   0.00000   0.00051   0.00055   2.26450
   A12        2.12599   0.00011   0.00000   0.00017   0.00022   2.12620
   A13        1.88920   0.00303   0.00000   0.00269   0.00264   1.89184
   A14        1.77898  -0.01384   0.00000  -0.13520  -0.13221   1.64678
   A15        2.29825   0.00428   0.00000   0.06884   0.06729   2.36555
   A16        2.19140   0.00974   0.00000   0.06871   0.06714   2.25853
   A17        1.99180   0.00207   0.00000   0.01121   0.01224   2.00403
   A18        1.99290  -0.00324   0.00000  -0.01305  -0.01510   1.97780
   A19        2.29848   0.00117   0.00000   0.00183   0.00286   2.30134
   A20        1.84616   0.01103   0.00000   0.08975   0.09069   1.93685
   A21        1.77575   0.01520   0.00000   0.10045   0.10001   1.87576
   A22        1.91255  -0.00238   0.00000  -0.01061  -0.01104   1.90151
   A23        1.87816  -0.00272   0.00000   0.00571   0.00474   1.88290
    D1       -0.00188   0.00016   0.00000   0.00115   0.00186  -0.00002
    D2        3.12055   0.00017   0.00000  -0.00166  -0.00078   3.11978
    D3       -3.09441   0.00057   0.00000  -0.00253  -0.00362  -3.09802
    D4        0.02803   0.00058   0.00000  -0.00534  -0.00625   0.02177
    D5        0.00112  -0.00016   0.00000   0.00010  -0.00040   0.00072
    D6        3.02910   0.00037   0.00000   0.02877   0.02770   3.05680
    D7       -0.00532  -0.00078   0.00000   0.00495   0.00553   0.00021
    D8        2.95650   0.00095   0.00000   0.02091   0.02038   2.97688
    D9       -3.03865  -0.00097   0.00000  -0.02108  -0.01995  -3.05860
   D10       -0.07683   0.00075   0.00000  -0.00512  -0.00511  -0.08194
   D11        0.00180  -0.00008   0.00000  -0.00186  -0.00247  -0.00067
   D12        3.14019  -0.00007   0.00000  -0.00101  -0.00121   3.13898
   D13       -3.11900  -0.00002   0.00000   0.00185   0.00121  -3.11779
   D14        0.01939  -0.00001   0.00000   0.00270   0.00247   0.02186
   D15        3.09760  -0.00002   0.00000   0.00524   0.00552   3.10313
   D16       -0.04882   0.00018   0.00000   0.00467   0.00518  -0.04363
   D17       -0.06687   0.00000   0.00000   0.00162   0.00203  -0.06485
   D18        3.06989   0.00021   0.00000   0.00104   0.00168   3.07158
   D19       -0.00110  -0.00002   0.00000   0.00190   0.00218   0.00108
   D20        3.13787   0.00005   0.00000   0.00258   0.00287   3.14074
   D21       -3.13897  -0.00002   0.00000   0.00091   0.00072  -3.13825
   D22       -0.00000   0.00004   0.00000   0.00159   0.00140   0.00140
   D23        0.00001   0.00011   0.00000  -0.00128  -0.00116  -0.00115
   D24       -3.13921   0.00005   0.00000  -0.00189  -0.00178  -3.14099
   D25       -0.01963   0.00078   0.00000  -0.00421  -0.00471  -0.02434
   D26       -2.99632  -0.00027   0.00000  -0.02085  -0.02022  -3.01655
   D27        1.08936  -0.00202   0.00000  -0.04163  -0.04256   1.04680
   D28        3.07377   0.00128   0.00000   0.00893   0.00883   3.08261
   D29       -2.26897  -0.00211   0.00000  -0.03940  -0.03930  -2.30827
   D30       -0.28456   0.00120   0.00000   0.01116   0.01209  -0.27247
   D31        0.03643  -0.00041   0.00000   0.00254   0.00281   0.03924
   D32       -3.11107  -0.00016   0.00000   0.00186   0.00242  -3.10865
         Item               Value     Threshold  Converged?
 Maximum Force            0.015197     0.000450     NO 
 RMS     Force            0.004168     0.000300     NO 
 Maximum Displacement     0.202531     0.001800     NO 
 RMS     Displacement     0.051642     0.001200     NO 
 Predicted change in Energy=-6.554696D-03
 GradGradGradGradGradGradGradGradGradGradGradGradGradGradGradGradGradGrad

                          Input orientation:                          
 ---------------------------------------------------------------------
 Center     Atomic      Atomic             Coordinates (Angstroms)
 Number     Number       Type             X           Y           Z
 ---------------------------------------------------------------------
      1          7           0       -0.356401   -0.881267    0.065231
      2          7           0       -0.454769    0.444935    0.011320
      3          6           0       -1.749733    0.827784   -0.022068
      4          6           0       -2.447005   -0.355138    0.014081
      5          7           0       -1.552323   -1.380985    0.068217
      6          1           0       -2.047857    1.863311   -0.064901
      7          1           0       -3.511336   -0.528680    0.006372
      8          1           0        1.461254   -1.108221    0.178209
      9          6           0        0.765269    1.271693    0.023637
     10          8           0        0.569275    2.484825   -0.072558
     11          8           0        1.811810    0.604926    0.136457
     12          1           0        1.929326   -2.565525   -0.335313
     13          8           0        2.088504   -1.894835    0.360672
     14          1           0        3.011840   -1.589830    0.277367
 ---------------------------------------------------------------------
                    Distance matrix (angstroms):
                    1          2          3          4          5
     1  N    0.000000
     2  N    1.330938   0.000000
     3  C    2.206774   1.350785   0.000000
     4  C    2.156398   2.146889   1.373608   0.000000
     5  N    1.296131   2.131161   2.219410   1.362258   0.000000
     6  H    3.226556   2.134369   1.078438   2.255454   3.284620
     7  H    3.175121   3.207890   2.223522   1.078414   2.137283
     8  H    1.835249   2.472102   3.754818   3.983536   3.027894
     9  C    2.427985   1.473829   2.554287   3.600747   3.522772
    10  O    3.493771   2.284043   2.850637   4.143772   4.411970
    11  O    2.629635   2.275662   3.572028   4.367403   3.907159
    12  H    2.867352   3.855766   5.014792   4.915298   3.699709
    13  O    2.663113   3.473444   4.721357   4.802253   3.688522
    14  H    3.448494   4.028452   5.348560   5.602925   4.573723
                    6          7          8          9         10
     6  H    0.000000
     7  H    2.805080   0.000000
     8  H    4.604667   5.009196   0.000000
     9  C    2.876027   4.640150   2.484407   0.000000
    10  O    2.689929   5.073345   3.710592   1.232622   0.000000
    11  O    4.064617   5.444068   1.749144   1.246016   2.263096
    12  H    5.958665   5.819474   1.614475   4.025930   5.236871
    13  O    5.604843   5.774956   1.022496   3.448398   4.655875
    14  H    6.135296   6.614477   1.626683   3.646885   4.763548
                   11         12         13         14
    11  O    0.000000
    12  H    3.207512   0.000000
    13  O    2.525002   0.979570   0.000000
    14  H    2.505370   1.580884   0.975970   0.000000
 Stoichiometry    C3H5N3O3
 Framework group  C1[X(C3H5N3O3)]
 Deg. of freedom    36
 Full point group                 C1      NOp   1
 Largest Abelian subgroup         C1      NOp   1
 Largest concise Abelian subgroup C1      NOp   1
                         Standard orientation:                         
 ---------------------------------------------------------------------
 Center     Atomic      Atomic             Coordinates (Angstroms)
 Number     Number       Type             X           Y           Z
 ---------------------------------------------------------------------
      1          7           0        0.195883   -0.973768    0.038480
      2          7           0        0.506263    0.320271    0.015636
      3          6           0        1.845654    0.490482   -0.025381
      4          6           0        2.343463   -0.789747   -0.025453
      5          7           0        1.295583   -1.659329    0.013553
      6          1           0        2.306273    1.465249   -0.051603
      7          1           0        3.365762   -1.132048   -0.052134
      8          1           0       -1.638076   -0.909806    0.013107
      9          6           0       -0.566010    1.331384    0.008394
     10          8           0       -0.175238    2.500226    0.029898
     11          8           0       -1.709481    0.837474   -0.024537
     12          1           0       -2.305775   -2.246576    0.624463
     13          8           0       -2.390589   -1.592758   -0.100028
     14          1           0       -3.248469   -1.139279    0.004450
 ---------------------------------------------------------------------
 Rotational constants (GHZ):           2.0510711           1.6072029           0.9030511
 Standard basis: 6-31+G(d,p) (6D, 7F)
 There are   196 symmetry adapted cartesian basis functions of A   symmetry.
 There are   196 symmetry adapted basis functions of A   symmetry.
   196 basis functions,   323 primitive gaussians,   196 cartesian basis functions
    34 alpha electrons       34 beta electrons
       nuclear repulsion energy       457.6387219978 Hartrees.
 NAtoms=   14 NActive=   14 NUniq=   14 SFac= 1.00D+00 NAtFMM=   60 NAOKFM=F Big=F
 Integral buffers will be    131072 words long.
 Raffenetti 2 integral format.
 Two-electron integral symmetry is turned on.
 ------------------------------------------------------------------------------
 Polarizable Continuum Model (PCM)
 =================================
 Model                : PCM.
 Atomic radii         : SMD-Coulomb.
 Polarization charges : Total charges.
 Charge compensation  : None.
 Solution method      : Matrix inversion.
 Cavity type          : VdW (van der Waals Surface) (Alpha=1.000).
 Cavity algorithm     : GePol (No added spheres)
                        Default sphere list used, NSphG=   14.
                        Lebedev-Laikov grids with approx.  5.0 points / Ang**2.
                        Smoothing algorithm: York/Karplus (Gamma=1.0000).
                        Polarization charges: spherical gaussians, with
                                              point-specific exponents (IZeta= 3).
                        Self-potential: point-specific (ISelfS= 7).
                        Self-field    : sphere-specific E.n sum rule (ISelfD= 2).
 1st derivatives      : Analytical E(r).r(x)/FMM algorithm (CHGder, D1EAlg=3).
                        Cavity 1st derivative terms included.
 Solvent              : Water, Eps=  78.355300 Eps(inf)=   1.777849
 ------------------------------------------------------------------------------
 Spheres list:
 ISph  on   Nord     Re0    Alpha      Xe            Ye            Ze
    1   N      1    1.8900  1.000      0.195883     -0.973768      0.038480
    2   N      2    1.8900  1.000      0.506263      0.320271      0.015636
    3   C      3    1.8500  1.000      1.845654      0.490482     -0.025381
    4   C      4    1.8500  1.000      2.343463     -0.789747     -0.025453
    5   N      5    1.8900  1.000      1.295583     -1.659329      0.013553
    6   H      6    1.2000  1.000      2.306273      1.465249     -0.051603
    7   H      7    1.2000  1.000      3.365762     -1.132048     -0.052134
    8   H      8    1.2000  1.000     -1.638076     -0.909806      0.013107
    9   C      9    1.8500  1.000     -0.566010      1.331384      0.008394
   10   O     10    1.5200  1.000     -0.175238      2.500226      0.029898
   11   O     11    1.5200  1.000     -1.709481      0.837474     -0.024537
   12   H     12    1.2000  1.000     -2.305775     -2.246576      0.624463
   13   O     13    1.5200  1.000     -2.390589     -1.592758     -0.100028
   14   H     14    1.2000  1.000     -3.248469     -1.139279      0.004450
 ------------------------------------------------------------------------------
 ------------------------------------------------------------------------------
 Atomic radii for non-electrostatic terms: SMD-CDS.
 ------------------------------------------------------------------------------
 Nuclear repulsion after PCM non-electrostatic terms =      457.6468504774 Hartrees.
 One-electron integrals computed using PRISM.
 NBasis=   196 RedAO= T EigKep=  1.88D-05  NBF=   196
 NBsUse=   196 1.00D-06 EigRej= -1.00D+00 NBFU=   196
 Initial guess from the checkpoint file:  "/scratch/gongke2021/TS-2/Gau-27269.chk"
 B after Tr=     0.000000    0.000000   -0.000000
         Rot=    0.999020   -0.000046    0.000178    0.044260 Ang=  -5.07 deg.
 ExpMin= 4.38D-02 ExpMax= 5.48D+03 ExpMxC= 8.25D+02 IAcc=2 IRadAn=         4 AccDes= 0.00D+00
 Harris functional with IExCor= 1009 and IRadAn=       4 diagonalized for initial guess.
 HarFok:  IExCor= 1009 AccDes= 0.00D+00 IRadAn=         4 IDoV= 1 UseB2=F ITyADJ=14
 ICtDFT=  3500011 ScaDFX=  1.000000  1.000000  1.000000  1.000000
 FoFCou: FMM=F IPFlag=           0 FMFlag=      100000 FMFlg1=           0
         NFxFlg=           0 DoJE=T BraDBF=F KetDBF=T FulRan=T
         wScrn=  0.000000 ICntrl=       500 IOpCl=  0 I1Cent=   200000004 NGrid=           0
         NMat0=    1 NMatS0=      1 NMatT0=    0 NMatD0=    1 NMtDS0=    0 NMtDT0=    0
 Petite list used in FoFCou.
 Requested convergence on RMS density matrix=1.00D-08 within 128 cycles.
 Requested convergence on MAX density matrix=1.00D-06.
 Requested convergence on             energy=1.00D-06.
 No special actions if energy rises.
 Inv3:  Mode=1 IEnd=     4170123.
 Iteration    1 A*A^-1 deviation from unit magnitude is 2.55D-15 for    617.
 Iteration    1 A*A^-1 deviation from orthogonality  is 2.03D-15 for    705    418.
 Iteration    1 A^-1*A deviation from unit magnitude is 2.66D-15 for    229.
 Iteration    1 A^-1*A deviation from orthogonality  is 1.67D-15 for    304    200.
 Error on total polarization charges =  0.04143
 SCF Done:  E(RM062X) =  -507.070798003     A.U. after   12 cycles
            NFock= 12  Conv=0.78D-08     -V/T= 2.0083
 SMD-CDS (non-electrostatic) energy       (kcal/mol) =       5.10
 (included in total energy above)
 D1PCM: PCM CHGder 1st derivatives, ID1Alg=3 FixD1E=F DoIter=F DoCFld=F I1PDM=0.
 Calling FoFJK, ICntrl=      2127 FMM=F ISym2X=0 I1Cent= 0 IOpClX= 0 NMat=1 NMatS=1 NMatT=0.
 ***** Axes restored to original set *****
 -------------------------------------------------------------------
 Center     Atomic                   Forces (Hartrees/Bohr)
 Number     Number              X              Y              Z
 -------------------------------------------------------------------
      1        7          -0.002649904    0.001968859   -0.000223156
      2        7          -0.004166494    0.001645687   -0.000150439
      3        6          -0.001190076    0.000271725   -0.000263824
      4        6          -0.000353870    0.000657054    0.000020678
      5        7           0.000164528   -0.000639632   -0.000478678
      6        1          -0.000097364   -0.000051922   -0.000015136
      7        1          -0.000017345    0.000097235    0.000017997
      8        1           0.007608841   -0.003817284    0.004650957
      9        6           0.000668127    0.004001734    0.000304934
     10        8          -0.000055243    0.000558279   -0.000045342
     11        8          -0.002420798    0.002979538   -0.001260950
     12        1           0.001508445   -0.000847994    0.003268072
     13        8           0.000432880   -0.006797080   -0.006273484
     14        1           0.000568272   -0.000026200    0.000448370
 -------------------------------------------------------------------
 Cartesian Forces:  Max     0.007608841 RMS     0.002493243

 GradGradGradGradGradGradGradGradGradGradGradGradGradGradGradGradGradGrad
 Berny optimization.
 FormGI is forming the generalized inverse of G from B-inverse, IUseBI=4.
 Internal  Forces:  Max     0.007548562 RMS     0.002106356
 Search for a saddle point.
 Step number   3 out of a maximum of   80
 All quantities printed in internal units (Hartrees-Bohrs-Radians)
 Swapping is turned off.
 Update second derivatives using D2CorX and points    2    3
 ITU=  0  0  0
     Eigenvalues ---   -0.01853   0.00010   0.00144   0.00195   0.00522
     Eigenvalues ---    0.00731   0.01346   0.02128   0.02524   0.03447
     Eigenvalues ---    0.04520   0.05611   0.06194   0.06653   0.09746
     Eigenvalues ---    0.09829   0.10660   0.11765   0.12844   0.13538
     Eigenvalues ---    0.19488   0.22158   0.25458   0.27158   0.33188
     Eigenvalues ---    0.35785   0.39040   0.39110   0.41792   0.43197
     Eigenvalues ---    0.45886   0.49515   0.51633   0.57125   0.60292
     Eigenvalues ---    0.83543
 Eigenvectors required to have negative eigenvalues:
                          R10       R3        A15       A16       A3
   1                   -0.63869   0.47102  -0.38015   0.35807   0.16504
                          A2        A20       D8        D10       R11
   1                   -0.15360   0.13033   0.08598   0.07586   0.05758
 RFO step:  Lambda0=2.864407584D-05 Lambda=-4.38083439D-03.
 Linear search not attempted -- option 19 set.
 Maximum step size (   0.300) exceeded in Quadratic search.
    -- Step size scaled by   0.943
 Iteration  1 RMS(Cart)=  0.05326327 RMS(Int)=  0.00237025
 Iteration  2 RMS(Cart)=  0.00155188 RMS(Int)=  0.00091090
 Iteration  3 RMS(Cart)=  0.00000688 RMS(Int)=  0.00091089
 Iteration  4 RMS(Cart)=  0.00000001 RMS(Int)=  0.00091089
 Variable       Old X    -DE/DX   Delta X   Delta X   Delta X     New X
                                 (Linear)    (Quad)   (Total)
    R1        2.51511   0.00297   0.00000   0.00443   0.00375   2.51885
    R2        2.44933   0.00066   0.00000   0.00215   0.00235   2.45168
    R3        3.46812   0.00755   0.00000   0.17965   0.18078   3.64890
    R4        2.55261   0.00087   0.00000   0.00117   0.00101   2.55363
    R5        2.78513   0.00148   0.00000   0.02036   0.01879   2.80392
    R6        2.59574  -0.00039   0.00000  -0.00065  -0.00080   2.59494
    R7        2.03795  -0.00002   0.00000  -0.00021  -0.00021   2.03775
    R8        2.57430   0.00102   0.00000   0.00187   0.00194   2.57624
    R9        2.03791   0.00000   0.00000  -0.00000  -0.00000   2.03791
   R10        3.30540   0.00613   0.00000   0.16795   0.16901   3.47441
   R11        1.93224   0.00699   0.00000  -0.03799  -0.03799   1.89425
   R12        2.32932   0.00056   0.00000   0.00156   0.00156   2.33088
   R13        2.35463   0.00266   0.00000  -0.00377  -0.00443   2.35019
   R14        1.85112  -0.00199   0.00000  -0.00270  -0.00270   1.84841
   R15        1.84432   0.00049   0.00000   0.00185   0.00185   1.84616
    A1        1.89238  -0.00189   0.00000  -0.00317  -0.00380   1.88858
    A2        1.77105   0.00412   0.00000   0.04839   0.04809   1.81914
    A3        2.61798  -0.00222   0.00000  -0.04162  -0.04252   2.57546
    A4        1.93293   0.00081   0.00000   0.00087   0.00167   1.93460
    A5        2.09145  -0.00178   0.00000  -0.00025  -0.00210   2.08934
    A6        2.25856   0.00097   0.00000  -0.00057   0.00048   2.25904
    A7        1.81513  -0.00029   0.00000   0.00074   0.00040   1.81553
    A8        2.13903   0.00025   0.00000   0.00070   0.00087   2.13990
    A9        2.32902   0.00004   0.00000  -0.00144  -0.00127   2.32775
   A10        1.89248   0.00032   0.00000  -0.00054  -0.00066   1.89182
   A11        2.26450  -0.00026   0.00000  -0.00120  -0.00114   2.26336
   A12        2.12620  -0.00006   0.00000   0.00174   0.00180   2.12800
   A13        1.89184   0.00105   0.00000   0.00209   0.00238   1.89423
   A14        1.64678  -0.00564   0.00000  -0.10366  -0.10075   1.54602
   A15        2.36555   0.00127   0.00000   0.05455   0.05306   2.41861
   A16        2.25853   0.00447   0.00000   0.05140   0.04984   2.30837
   A17        2.00403   0.00075   0.00000  -0.00475  -0.00378   2.00026
   A18        1.97780  -0.00141   0.00000  -0.00135  -0.00331   1.97449
   A19        2.30134   0.00066   0.00000   0.00613   0.00710   2.30844
   A20        1.93685   0.00473   0.00000   0.05719   0.05757   1.99443
   A21        1.87576   0.00502   0.00000   0.05506   0.05444   1.93020
   A22        1.90151   0.00026   0.00000   0.00889   0.00826   1.90977
   A23        1.88290  -0.00071   0.00000   0.01984   0.01861   1.90151
    D1       -0.00002   0.00006   0.00000   0.00321   0.00417   0.00415
    D2        3.11978   0.00015   0.00000   0.00545   0.00655   3.12633
    D3       -3.09802   0.00007   0.00000  -0.03922  -0.04118  -3.13920
    D4        0.02177   0.00015   0.00000  -0.03699  -0.03880  -0.01702
    D5        0.00072  -0.00011   0.00000  -0.00265  -0.00323  -0.00252
    D6        3.05680   0.00028   0.00000   0.08777   0.08546  -3.14093
    D7        0.00021  -0.00032   0.00000   0.03220   0.03251   0.03272
    D8        2.97688   0.00054   0.00000   0.04711   0.04668   3.02356
    D9       -3.05860  -0.00057   0.00000  -0.05441  -0.05338  -3.11198
   D10       -0.08194   0.00028   0.00000  -0.03950  -0.03921  -0.12115
   D11       -0.00067   0.00001   0.00000  -0.00236  -0.00327  -0.00394
   D12        3.13898   0.00001   0.00000   0.00064   0.00039   3.13937
   D13       -3.11779  -0.00004   0.00000  -0.00488  -0.00591  -3.12370
[...]
 ! D3    D(8,1,2,3)            179.1368         -DE/DX =    0.0                 !
 ! D4    D(8,1,2,9)             -0.9163         -DE/DX =    0.0                 !
 ! D5    D(2,1,5,4)             -0.0315         -DE/DX =    0.0                 !
 ! D6    D(8,1,5,4)           -178.5516         -DE/DX =    0.0                 !
 ! D7    D(2,1,8,11)             1.2574         -DE/DX =    0.0                 !
 ! D8    D(2,1,8,13)           179.8332         -DE/DX =    0.0                 !
 ! D9    D(5,1,8,11)           179.7905         -DE/DX =    0.0                 !
 ! D10   D(5,1,8,13)            -1.6337         -DE/DX =    0.0                 !
 ! D11   D(1,2,3,4)             -0.0027         -DE/DX =    0.0                 !
 ! D12   D(1,2,3,6)            179.965          -DE/DX =    0.0                 !
 ! D13   D(9,2,3,4)           -179.9429         -DE/DX =    0.0                 !
 ! D14   D(9,2,3,6)              0.0248         -DE/DX =    0.0                 !
 ! D15   D(1,2,9,10)           179.7064         -DE/DX =    0.0                 !
 ! D16   D(1,2,9,11)            -0.2819         -DE/DX =    0.0                 !
 ! D17   D(3,2,9,10)            -0.3579         -DE/DX =    0.0                 !
 ! D18   D(3,2,9,11)           179.6538         -DE/DX =    0.0                 !
 ! D19   D(2,3,4,5)             -0.0162         -DE/DX =    0.0                 !
 ! D20   D(2,3,4,7)            179.9581         -DE/DX =    0.0                 !
 ! D21   D(6,3,4,5)           -179.9788         -DE/DX =    0.0                 !
 ! D22   D(6,3,4,7)             -0.0045         -DE/DX =    0.0                 !
 ! D23   D(3,4,5,1)              0.0301         -DE/DX =    0.0                 !
 ! D24   D(7,4,5,1)           -179.9466         -DE/DX =    0.0                 !
 ! D25   D(1,8,11,9)            -1.5727         -DE/DX =    0.0                 !
 ! D26   D(13,8,11,9)          179.5803         -DE/DX =    0.0                 !
 ! D27   D(1,8,13,12)           42.2483         -DE/DX =    0.0                 !
 ! D28   D(1,8,13,14)          161.1935         -DE/DX =    0.0                 !
 ! D29   D(11,8,13,12)        -139.6549         -DE/DX =    0.0                 !
 ! D30   D(11,8,13,14)         -20.7097         -DE/DX =    0.0                 !
 ! D31   D(2,9,11,8)             1.4024         -DE/DX =    0.0                 !
 ! D32   D(10,9,11,8)         -178.5833         -DE/DX =    0.0                 !
 --------------------------------------------------------------------------------
 GradGradGradGradGradGradGradGradGradGradGradGradGradGradGradGradGradGrad


 ----------------------------------------------------------------------

 Electric dipole moment (input orientation):
 (Debye = 10**-18 statcoulomb cm , SI units = C m)
                  (au)            (Debye)         (10**-30 SI)
   Tot        0.409684D+01      0.104131D+02      0.347345D+02
   x          0.106650D+01      0.271078D+01      0.904219D+01
   y         -0.390693D+01     -0.993041D+01     -0.331243D+02
   z         -0.618573D+00     -0.157226D+01     -0.524448D+01

 Dipole polarizability, Alpha (input orientation).
 (esu units = cm**3 , SI units = C**2 m**2 J**-1)
 Alpha(0;0):
               (au)            (10**-24 esu)      (10**-40 SI)
   iso        0.932760D+02      0.138221D+02      0.153791D+02
   aniso      0.558676D+02      0.827873D+01      0.921133D+01
   xx         0.111109D+03      0.164647D+02      0.183194D+02
   yx        -0.442981D+00     -0.656430D-01     -0.730377D-01
   yy         0.112320D+03      0.166440D+02      0.185190D+02
   zx         0.286562D+01      0.424641D+00      0.472477D+00
   zy        -0.342124D+01     -0.506976D+00     -0.564087D+00
   zz         0.563993D+02      0.835751D+01      0.929899D+01

 ----------------------------------------------------------------------

 Dipole orientation:
     7         -0.92471901          0.74642427          1.27409144
     7         -0.64410001          0.08713371         -1.14114339
     6         -2.85698875          0.29414468         -2.39978883
     6         -4.52985139          1.12709586         -0.59931019
     7         -3.26584701          1.37960168          1.63089205
     1         -3.03949054         -0.14912142         -4.38049728
     1         -6.51642487          1.55122804         -0.76473630
     1          2.38532165          0.31364740          2.88571406
     6          1.86726947         -0.72584245         -2.07355842
     8          1.92120393         -1.30558364         -4.33288778
     8          3.53269610         -0.69372628         -0.41504046
     1          2.23584848         -0.13981381          5.91337638
     8          3.29910727          0.49373138          4.54391352
     1          4.85252853         -0.50369498          4.49583747

 Electric dipole moment (dipole orientation):
 (Debye = 10**-18 statcoulomb cm , SI units = C m)
                  (au)            (Debye)         (10**-30 SI)
   Tot        0.409684D+01      0.104131D+02      0.347345D+02
   x          0.000000D+00      0.000000D+00      0.000000D+00
   y          0.000000D+00      0.000000D+00      0.000000D+00
   z          0.409684D+01      0.104131D+02      0.347345D+02

 Dipole polarizability, Alpha (dipole orientation).
 (esu units = cm**3 , SI units = C**2 m**2 J**-1)
 Alpha(0;0):
               (au)            (10**-24 esu)      (10**-40 SI)
   iso        0.932760D+02      0.138221D+02      0.153791D+02
   aniso      0.558676D+02      0.827873D+01      0.921133D+01
   xx         0.108298D+03      0.160481D+02      0.178559D+02
   yx        -0.116345D+02     -0.172406D+01     -0.191827D+01
   yy         0.615579D+02      0.912194D+01      0.101495D+02
   zx         0.302189D+01      0.447798D+00      0.498242D+00
   zy         0.118606D+02      0.175756D+01      0.195555D+01
   zz         0.109972D+03      0.162962D+02      0.181320D+02

 ----------------------------------------------------------------------
 1\1\GINC-NODE5\Freq\RM062X\6-31+G(d,p)\C3H5N3O3\GONGKE2021\08-Jul-2023
 \0\\#N Geom=AllCheck Guess=TCheck SCRF=Check GenChk RM062X/6-31+G(d,p)
  Freq\\test\\0,1\N,-0.3702088078,-0.8314055163,0.1474945619\N,-0.48792
 05632,0.492680722,0.0464189104\C,-1.7869988546,0.8522874833,-0.0533899
 176\C,-2.4671607608,-0.3397579327,-0.0073498739\N,-1.5592554439,-1.348
 9925964,0.1160101347\H,-2.100151582,1.88024133,-0.1439661522\H,-3.5277
 125489,-0.530121581,-0.053760249\H,1.5496667774,-1.2188417965,0.256309
 2674\C,0.7271366497,1.3401480788,0.0566117359\O,0.5089289094,2.5508495
 523,-0.048003762\O,1.781359587,0.6897046573,0.1697288586\H,1.944064811
 7,-2.7134404242,-0.2350271125\O,2.212624737,-1.9713477534,0.3405793921
 \H,3.0934809691,-1.6590121332,0.0550680361\\Version=ES64L-G16RevA.03\S
 tate=1-A\HF=-507.0735949\RMSD=5.653e-09\RMSF=9.672e-06\ZeroPoint=0.098
 7487\Thermal=0.1074083\Dipole=1.0665027,-3.9069255,-0.6185731\DipoleDe
 riv=-0.7138933,0.6511562,-0.0692634,0.5635272,0.3102691,-0.0030694,-0.
 0631534,-0.0059907,-0.1702548,-1.1350946,-0.9939533,0.0053758,-1.01265
 98,-0.8652925,0.0046897,0.0058706,0.0074319,0.0067599,0.2462598,0.5141
 846,-0.0180971,-0.0270209,0.083454,-0.0112687,0.0184209,0.0211545,-0.0
 449808,0.1154617,0.0217282,0.0139014,0.1299576,-0.2946602,0.0177613,0.
 005091,0.0122856,-0.1383918,-0.2328768,-0.6897836,0.0562052,-0.1882194
 ,-0.362265,-0.0096559,0.0194745,-0.036407,-0.3142416,0.1811618,-0.0111
 784,-0.0035581,0.0041277,0.1741008,0.0063025,-0.0045503,0.0046936,0.25
 50046,0.0572536,-0.0034839,-0.0097566,-0.0325292,0.1400218,0.0045444,-
 0.008121,0.0064199,0.2322373,1.1029016,-0.4331552,0.0188223,-0.4727537
 ,1.0496158,-0.0328983,0.0157408,-0.0234512,0.4401896,3.4266589,-0.0056
 721,0.1715653,0.0398525,3.5705798,-0.2218519,0.1726208,-0.2300991,0.57
 20516,-1.0876217,0.0989279,-0.0330595,0.1126321,-2.380112,0.1336196,-0
 .0362817,0.1383474,-0.6546867,-2.090732,0.5247476,-0.124054,0.5425421,
 -1.5534572,0.0876975,-0.1222016,0.0927581,-0.6551717,0.4348226,0.04744
 11,0.0183517,0.0225908,0.6048184,0.0467843,0.0101541,0.0497805,0.49362
 21,-0.9335745,0.2493209,-0.0226706,0.2625963,-0.9131245,-0.0066214,-0.
 0088837,-0.0233942,-0.4943103,0.6292729,0.0297201,-0.0037626,0.0553567
 ,0.4360516,-0.0160338,-0.0041809,-0.0135294,0.4721726\Polar=111.109137
 3,-0.4429807,112.3195585,2.8656191,-3.4212414,56.3992894\Quadrupole=11
 .4381541,-6.1960324,-5.2421217,-21.5934485,-1.8081817,3.2742714\PG=C01
  [X(C3H5N3O3)]\NImag=1\\0.67012805,-0.00474859,0.50098645,0.03105721,-
 0.02608229,0.12882662,-0.12118197,0.09136940,-0.00913422,0.79268934,0.
 02542428,-0.25910010,0.01435200,0.01985288,0.66932240,-0.00446566,0.01
 815059,-0.07793924,0.03746816,-0.03817721,0.12378894,-0.05972049,0.067
 53102,-0.00921464,-0.31319546,0.05945275,-0.01836719,0.62153106,0.0150
 9651,-0.06791000,0.00693967,0.06536562,-0.14122153,0.00919220,-0.06509
 177,0.94337784,-0.00551118,0.00994895,0.01671615,-0.01874144,0.0088273
 1,-0.06656811,0.03247280,-0.06106255,0.13971931,-0.11704080,-0.0081530
 4,-0.00736704,-0.06915720,-0.00112276,-0.00446288,-0.19228802,-0.14314
 773,0.00334157,0.91253763,0.07071245,0.00756438,0.00511849,-0.10472841
 ,0.00403468,-0.00551488,-0.10079545,-0.32423634,0.01219002,0.11493009,
 0.61862819,-0.01306878,0.00070878,0.02248705,0.00284766,0.00041259,0.0
 1038685,0.00037045,0.00981082,-0.07212045,0.03596643,-0.02785275,0.141
 15653,-0.35135244,-0.13309674,-0.00524036,-0.08321751,-0.09786889,0.00
 060523,0.04882364,0.06441537,-0.00290469,-0.18261416,0.08260984,-0.012
 10749,0.56596890,-0.06702842,-0.14369688,-0.00044961,-0.04236890,-0.10
 978061,0.00728414,-0.02448390,-0.07582926,0.00535037,0.08899683,-0.236
 99641,0.01667630,0.04782746,0.56211674,-0.00988949,-0.00426960,-0.0947
 2597,-0.00329060,0.00425136,0.02761603,0.00342080,0.01042314,0.0189201
 4,-0.01259304,0.01636744,-0.07483230,0.02233651,-0.02884368,0.11891752
 ,-0.00660049,0.00013118,-0.00076667,-0.00325597,0.03244546,-0.00233146
 ,-0.08116161,0.08044182,-0.00864746,0.01349308,-0.01149175,0.00150811,
 -0.00047559,-0.00633125,0.00007140,0.07751362,-0.00260392,0.00172126,0
 .00021417,0.00014836,0.00128936,-0.00026280,0.09071077,-0.35277068,0.0
 2783957,0.00889922,-0.00476195,0.00092944,0.00007720,-0.00237232,0.000
 61380,-0.09562168,0.35800941,-0.00060320,0.00036343,0.00683789,-0.0000
 6200,0.00159732,-0.00271329,-0.00936184,0.02721656,-0.03392988,0.00006
 587,-0.00021056,0.00124325,-0.00037475,0.00025634,0.00624093,0.0099859
 6,-0.02905765,0.02601542,-0.00071904,0.00247274,-0.00067419,0.00013428
 ,0.00004432,-0.00036777,-0.00096936,0.00285561,-0.00025944,-0.36214067
 ,-0.05913972,-0.01461826,-0.01261266,-0.00479380,-0.00000232,-0.000284
 10,-0.00023709,0.00012699,0.37621055,0.00625610,-0.00339100,0.00117550
 ,-0.00340519,-0.00635923,0.00072773,-0.02217901,0.00513124,-0.00161838
 ,-0.06535070,-0.07033637,-0.00080441,0.02570891,0.01034064,0.00024912,
 0.00071757,0.00010006,-0.00012691,0.05894483,0.06279428,-0.00098186,0.
 00098686,0.00825503,-0.00013024,0.00090417,0.00651055,0.00150460,-0.00
 020514,0.00011783,-0.01413508,-0.00045701,-0.03227464,-0.00217203,-0.0
 0146594,-0.00678195,0.00006103,-0.00017955,-0.00222815,0.01581870,0.00
 048803,0.02552616,0.00310022,0.00946769,-0.00040613,-0.00212700,0.0027
 3181,-0.00030772,0.00528362,-0.00161054,0.00042352,0.00394823,-0.00426
 423,0.00052490,0.00095358,-0.00548048,0.00042260,0.00036783,0.00010275
 ,0.00001088,0.00044277,-0.00062536,0.00007100,0.18287831,-0.00130286,-
 0.00591585,-0.00005494,-0.00020337,-0.00227384,0.00013923,-0.00020186,
 -0.00090064,0.00007527,-0.00136938,-0.00007682,-0.00002029,-0.00247482
 ,0.00173505,-0.00031718,0.00006754,-0.00004928,0.00001958,-0.00014389,
 0.00012533,-0.00000719,-0.15808484,0.22026701,0.00047784,0.00044485,-0
 .00586785,-0.00016342,0.00027453,0.00001437,0.00023395,0.00001515,0.00
 027745,0.00018677,-0.00014340,0.00079656,0.00016205,-0.00040269,-0.001
 25990,0.00000387,0.00001405,0.00010623,0.00001383,-0.00001787,0.000185
 28,0.01842067,-0.01132426,0.03878125,0.00167505,-0.04621251,0.00414794
 ,-0.10505104,0.00395906,-0.00314644,-0.03606722,-0.00792429,-0.0011037
 2,-0.00182308,0.01792878,-0.00158905,0.03057765,0.01990397,-0.00012484
 ,0.00018376,0.00062433,0.00006406,0.00056939,0.00092295,-0.00012190,0.
 00577934,0.02041502,-0.00060321,0.60307112,-0.03038561,-0.03621316,0.0
 0009793,0.00640695,-0.08861802,0.00272492,-0.01372698,0.01732052,-0.00
 253003,0.00836480,0.01019093,0.00000651,0.02127652,0.00020431,0.001738
 72,0.00049104,-0.00160970,0.00002616,0.00044580,0.00179856,0.00001182,
 0.00727669,-0.01399941,0.00100424,-0.25537057,0.84056329,0.00291979,-0
 .00096979,-0.01194554,-0.00332694,0.00248726,-0.05623529,-0.00065932,-
 0.00216259,-0.00694858,-0.00090183,0.00056300,0.00361161,-0.00020100,0
 .00170309,0.00769748,0.00006566,0.00004193,-0.00167687,-0.00008698,0.0
 0003942,0.00154361,-0.00008564,0.00226403,-0.00074184,0.04134160,-0.06
 230877,0.23362408,-0.00424187,0.00567381,-0.00088250,0.00193866,-0.046
 19163,0.00248148,0.00081946,-0.00058080,0.00007453,0.00165248,-0.00101
 235,0.00015654,-0.00345571,-0.00623788,0.00034723,0.00009783,-0.001950
 37,0.00012877,-0.00009959,-0.00015186,0.00001228,-0.00146842,-0.005529
 65,0.00012757,-0.10156089,0.08083192,-0.00709667,0.12465050,-0.0090079
 4,0.01199101,-0.00109157,-0.02760225,-0.07968399,0.00561890,0.01028106
 ,-0.00195674,0.00075776,-0.00030808,-0.00532340,0.00037918,-0.01074258
 ,-0.00782109,-0.00021700,-0.00058064,0.00006328,-0.00003671,-0.0003182
 9,-0.00027331,-0.00001096,-0.00188323,0.00954290,-0.00048505,0.0665649
 0,-0.53615198,0.03891002,-0.10557029,0.69602704,0.00021008,-0.00028065
 ,0.00404615,0.00108550,0.00455045,0.01766638,-0.00072988,0.00012072,0.
 00030264,0.00010328,0.00034284,0.00021833,0.00069385,0.00009543,-0.001
 83114,0.00002275,-0.00011570,0.00010298,0.00002622,0.00000124,-0.00013
 449,-0.00001788,-0.00107496,0.00076567,-0.00601396,0.03976409,-0.08506
 567,0.01342818,-0.05700387,0.03721762,-0.00002827,0.01383498,-0.001184
 59,-0.09596970,0.00096288,-0.00693697,0.00881415,-0.01060359,0.0010160
 7,-0.00487619,-0.00607649,0.00020383,-0.01114244,-0.00253423,-0.000437
 12,0.00029931,-0.00011008,0.00002006,-0.00034585,-0.00111449,0.0001056
 6,-0.00885500,-0.00825818,0.00033543,-0.39721417,0.17708022,-0.0321013
 9,-0.01826839,0.07756180,-0.00870444,0.52631209,-0.00821216,-0.0081657
 3,0.00014180,-0.00643333,0.01253780,-0.00000503,-0.00215404,-0.0010085
 3,0.00019520,-0.00254149,0.00164697,-0.00029185,0.00076762,0.00357096,
 -0.00022994,-0.00029080,0.00035647,-0.00003851,-0.00021097,0.00019109,
 -0.00007350,-0.00280480,0.01808494,-0.00102529,0.18772493,-0.19644967,
 0.02023071,0.07812769,-0.08241094,0.01309299,-0.24901270,0.27595651,0.
 00049236,0.00155126,0.00181050,-0.00632985,0.00047994,0.01728398,0.000
 46266,-0.00032461,0.00359732,-0.00008733,-0.00049760,-0.00048378,-0.00
 069032,-0.00040569,-0.00023689,0.00003653,-0.00003154,0.00003292,0.000
 03378,-0.00012969,-0.00067893,0.00009570,-0.00178423,-0.00447695,-0.03
 317931,0.01977768,-0.08439006,-0.00868202,0.01287618,0.02700300,0.0480
 2657,-0.03266447,0.03877060,-0.00280506,0.00125401,-0.00011787,0.00010
 563,-0.00008477,-0.00004721,0.00013239,-0.00014158,0.00003912,0.000006
 11,-0.00014671,0.00004811,-0.00031299,0.00001521,-0.00008017,0.0000249
 5,0.00000200,0.00001039,0.00000390,-0.00000476,0.00001040,0.01423934,0
 .01476135,0.01735067,0.00139588,-0.00035916,0.00008717,-0.00039949,0.0
 0045925,-0.00002516,-0.00073293,0.00228660,-0.00046588,0.09547305,0.00
 070800,-0.00106067,-0.00010433,-0.00009329,-0.00012636,0.00005551,-0.0
 0035209,0.00013692,-0.00004635,-0.00024158,0.00030969,-0.00007329,0.00
 009958,0.00024348,0.00002242,-0.00003212,-0.00001152,-0.00001694,-0.00
 002821,0.00003395,-0.00001305,-0.00721863,-0.01770421,-0.01620073,-0.0
 0031015,-0.00061249,0.00008745,0.00007785,0.00020874,-0.00004244,0.000
 54064,-0.00028579,0.00019408,0.09655049,0.30693530,-0.00003754,-0.0006
 5818,-0.00033232,-0.00010115,-0.00009068,-0.00000131,-0.00007855,0.000
 02000,0.00000386,-0.00009635,0.00006072,-0.00000353,-0.00005774,0.0000
 7511,-0.00000942,-0.00000829,-0.00000500,0.00000529,-0.00001140,0.0000
 0985,0.00000227,0.00390936,0.00439839,0.00086272,0.00072370,-0.0003980
 6,0.00011873,-0.00025261,0.00043386,-0.00006479,-0.00058904,0.00168871
 ,-0.00012543,0.07168291,0.21613876,0.17387662,-0.01103831,-0.00006669,
 -0.00016991,-0.00178109,0.00026847,-0.00007258,-0.00205593,0.00087227,
 -0.00020422,-0.00177006,0.00152411,-0.00025971,-0.00118771,0.00256869,
 -0.00017280,-0.00020102,-0.00004695,-0.00001138,-0.00019786,0.00028158
 ,-0.00004536,-0.18451223,0.14901182,-0.04547513,0.00021978,-0.00311114
 ,0.00031518,-0.00020683,0.00201509,-0.00023552,0.00092827,0.00412739,0
 .00023306,-0.10020741,-0.08665044,-0.07900441,0.69501480,0.00333313,0.
 00327847,-0.00046886,0.00176164,0.00000866,0.00006400,0.00059604,0.000
 05731,0.00003869,0.00079101,-0.00032266,0.00010112,0.00138676,-0.00134
 270,0.00014487,0.00001445,0.00002909,0.00000859,0.00007835,-0.00010811
 ,0.00001876,0.13980844,-0.22578178,0.03680990,-0.00933003,0.00340274,-
 0.00097515,0.00285981,-0.00452261,0.00060978,0.00848964,-0.02310491,0.
 00136870,-0.08871833,-0.28155642,-0.23485795,0.05979924,0.64044664,-0.
 00018935,-0.00001515,0.00157758,-0.00006219,0.00014342,0.00014999,0.00
 001632,-0.00002157,-0.00006977,0.00004218,-0.00001533,-0.00016409,-0.0
 0003967,0.00005476,0.00030854,0.00000787,0.00000250,-0.00002766,0.0000
 1036,-0.00000373,-0.00003585,-0.01863165,0.00843258,-0.02847722,-0.000
 47742,0.00023711,0.00043507,0.00019092,-0.00023979,-0.00022811,0.00020
 291,-0.00070253,0.00199486,-0.06493882,-0.19411072,-0.18105394,-0.0267
 0148,0.16195592,0.27090552,-0.00017457,0.00054273,-0.00004703,0.000069
 03,0.00012612,-0.00004900,0.00005376,0.00005310,0.00000453,0.00007266,
 -0.00005017,0.00001727,0.00004745,-0.00005330,-0.00000814,-0.00000159,
 0.00000545,0.00000019,0.00000823,-0.00000058,0.00000278,-0.02003057,-0
 .00668685,0.00892911,-0.00175558,0.00077952,-0.00026961,0.00054225,-0.
 00086880,0.00015697,0.00107913,-0.00137392,0.00005405,-0.00692339,-0.0
 0305003,0.00392111,-0.39300439,-0.12087016,0.11057001,0.42001759,0.001
 75906,-0.00008818,0.00021202,-0.00007012,-0.00002923,0.00000270,0.0004
 1347,-0.00019011,0.00003418,0.00025279,-0.00032090,0.00001784,0.000013
 77,-0.00037193,0.00006655,0.00003917,0.00000650,-0.00000068,0.00003034
 ,-0.00004713,0.00000271,0.02258471,0.01694660,-0.00896343,0.00110359,0
 .00017408,0.00008937,-0.00034625,0.00031110,-0.00005992,-0.00076040,-0
 .00091919,-0.00041001,-0.02587358,-0.00651063,0.01318447,-0.13059344,-
 0.11048371,0.02428253,0.13144690,0.10152273,-0.00041020,0.00012094,0.0
 0025396,-0.00005926,-0.00001246,0.00004015,-0.00007017,0.00003820,-0.0
 0001792,-0.00006255,0.00004902,-0.00002139,-0.00000958,0.00007207,-0.0
 0002306,-0.00000929,-0.00000321,-0.00000906,-0.00000953,0.00001009,-0.
 00000671,-0.00442962,-0.00074605,-0.00096577,0.00008253,-0.00015230,-0
 .00002673,-0.00003371,0.00010906,0.00000144,0.00004302,-0.00031829,-0.
 00010114,-0.02355366,-0.00589037,0.00672126,0.15180426,0.03518163,-0.0
 6531491,-0.12328224,-0.02845833,0.05946988\\-0.00000350,0.00000204,0.0
 0000983,-0.00000175,-0.00000115,-0.00000779,-0.00000277,-0.00000522,-0
 .00000918,0.00000027,-0.00000651,0.00000612,0.00000280,-0.00000287,0.0
 0001561,-0.00000542,-0.00000698,-0.00001801,0.00000058,-0.00000959,0.0
 0001074,0.00000209,0.00000360,0.00000817,-0.00000352,0.00000200,-0.000
 01666,-0.00000691,-0.00000003,-0.00002975,-0.00000155,0.00000434,-0.00
 001520,0.00000546,0.00000242,0.00002342,0.00000968,0.00000996,0.000011
 73,0.00000454,0.00000796,0.00001097\\\@


 UNLESS WE CHANGE DIRECTIONS, WE WILL WIND UP WHERE WE ARE HEADED.
     -- CONFUCIUS
 Job cpu time:       0 days  0 hours 23 minutes 17.8 seconds.
 Elapsed time:       0 days  0 hours  0 minutes 58.9 seconds.
 File lengths (MBytes):  RWF=     91 Int=      0 D2E=      0 Chk=     10 Scr=      1
 Normal termination of Gaussian 16 at Sat Jul  8 23:50:21 2023.
