 Entering Gaussian System, Link 0=/opt/soft/g16/g16
 Initial command:
 /opt/soft/g16/l1.exe "/scratch/gongke2021/PC/Gau-21887.inp" -scrdir="/scratch/gongke2021/PC/"
 Entering Link 1 = /opt/soft/g16/l1.exe PID=     21888.
  
 Copyright (c) 1988,1990,1992,1993,1995,1998,2003,2009,2016,
            Gaussian, Inc.  All Rights Reserved.
  
 This is part of the Gaussian(R) 16 program.  It is based on
 the Gaussian(R) 09 system (copyright 2009, Gaussian, Inc.),
 the Gaussian(R) 03 system (copyright 2003, Gaussian, Inc.),
 the Gaussian(R) 98 system (copyright 1998, Gaussian, Inc.),
 the Gaussian(R) 94 system (copyright 1995, Gaussian, Inc.),
 the Gaussian 92(TM) system (copyright 1992, Gaussian, Inc.),
 the Gaussian 90(TM) system (copyright 1990, Gaussian, Inc.),
 the Gaussian 88(TM) system (copyright 1988, Gaussian, Inc.),
 the Gaussian 86(TM) system (copyright 1986, Carnegie Mellon
 University), and the Gaussian 82(TM) system (copyright 1983,
 Carnegie Mellon University). Gaussian is a federally registered
 trademark of Gaussian, Inc.
  
 This software contains proprietary and confidential information,
 including trade secrets, belonging to Gaussian, Inc.
  
 This software is provided under written license and may be
 used, copied, transmitted, or stored only in accord with that
 written license.
  
 The following legend is applicable only to US Government
 contracts under FAR:
  
                    RESTRICTED RIGHTS LEGEND
  
 Use, reproduction and disclosure by the US Government is
 subject to restrictions as set forth in subparagraphs (a)
 and (c) of the Commercial Computer Software - Restricted
 Rights clause in FAR 52.227-19.
  
 Gaussian, Inc.
 340 Quinnipiac St., Bldg. 40, Wallingford CT 06492
  
  
 ---------------------------------------------------------------
 Warning -- This program may not be used in any manner that
 competes with the business of Gaussian, Inc. or will provide
 assistance to any competitor of Gaussian, Inc.  The licensee
 of this program is prohibited from giving any competitor of
 Gaussian, Inc. access to this program.  By using this program,
 the user acknowledges that Gaussian, Inc. is engaged in the
 business of creating and licensing software in the field of
 computational chemistry and represents and warrants to the
 licensee that it is not a competitor of Gaussian, Inc. and that
 it will not use this program in any manner prohibited above.
 ---------------------------------------------------------------
  

 Cite this work as:
 Gaussian 16, Revision A.03,
 M. J. Frisch, G. W. Trucks, H. B. Schlegel, G. E. Scuseria, 
 M. A. Robb, J. R. Cheeseman, G. Scalmani, V. Barone, 
 G. A. Petersson, H. Nakatsuji, X. Li, M. Caricato, A. V. Marenich, 
 J. Bloino, B. G. Janesko, R. Gomperts, B. Mennucci, H. P. Hratchian, 
 J. V. Ortiz, A. F. Izmaylov, J. L. Sonnenberg, D. Williams-Young, 
 F. Ding, F. Lipparini, F. Egidi, J. Goings, B. Peng, A. Petrone, 
 T. Henderson, D. Ranasinghe, V. G. Zakrzewski, J. Gao, N. Rega, 
 G. Zheng, W. Liang, M. Hada, M. Ehara, K. Toyota, R. Fukuda, 
 J. Hasegawa, M. Ishida, T. Nakajima, Y. Honda, O. Kitao, H. Nakai, 
 T. Vreven, K. Throssell, J. A. Montgomery, Jr., J. E. Peralta, 
 F. Ogliaro, M. J. Bearpark, J. J. Heyd, E. N. Brothers, K. N. Kudin, 
 V. N. Staroverov, T. A. Keith, R. Kobayashi, J. Normand, 
 K. Raghavachari, A. P. Rendell, J. C. Burant, S. S. Iyengar, 
 J. Tomasi, M. Cossi, J. M. Millam, M. Klene, C. Adamo, R. Cammi, 
 J. W. Ochterski, R. L. Martin, K. Morokuma, O. Farkas, 
 J. B. Foresman, and D. J. Fox, Gaussian, Inc., Wallingford CT, 2016.
 
 ******************************************
 Gaussian 16:  ES64L-G16RevA.03 25-Dec-2016
                11-Jul-2023 
 ******************************************
 %mem=10GB
 %nprocshared=24
 Will use up to   24 processors via shared memory.
 -----------------------------------------------------
 # opt freq 6-31+g(d,p) m062x scrf=(SMD,solvent=water)
 -----------------------------------------------------
 1/18=20,19=15,26=3,38=1/1,3;
 2/9=110,12=2,17=6,18=5,40=1/2;
 3/5=1,6=6,7=111,11=2,25=1,30=1,70=32201,71=1,72=1,74=-55/1,2,3;
 4//1;
 5/5=2,38=5,53=1/2;
 6/7=2,8=2,9=2,10=2,28=1/1;
 7//1,2,3,16;
 1/18=20,19=15,26=3/3(2);
 2/9=110/2;
 99//99;
 2/9=110/2;
 3/5=1,6=6,7=111,11=2,25=1,30=1,70=32205,71=1,72=1,74=-55/1,2,3;
 4/5=5,16=3,69=1/1;
 5/5=2,38=5,53=1/2;
 7//1,2,3,16;
 1/18=20,19=15,26=3/3(-5);
 2/9=110/2;
 6/7=2,8=2,9=2,10=2,19=2,28=1/1;
 99/9=1/99;
 ----
 test
 ----
 Symbolic Z-matrix:
 Charge =  0 Multiplicity = 1
 N                     0.5435   -0.95407  -0.10324 
 N                     0.93022   0.32008  -0.04593 
 C                     2.26301   0.38426   0.12669 
 C                     2.67076  -0.93226   0.1646 
 N                     1.5794   -1.7239    0.02509 
 H                     2.76719   1.33413   0.20255 
 H                     3.65809  -1.34905   0.28215 
 H                    -0.9473   -1.43392  -0.09256 
 C                    -0.03291   1.48751  -0.1423 
 O                     0.47399   2.55642   0.10365 
 O                    -1.17747   1.1133   -0.48847 
 H                    -2.59163  -0.69554   0.24208 
 O                    -1.85584  -1.88504  -0.08476 
 H                    -2.06358  -2.3389   -0.91038 
 H                    -1.73904   0.31883   0.06383 
 O                    -3.16831   0.06064   0.35042 
 H                    -3.45271   0.22845   1.2559 
 
 Add virtual bond connecting atoms H15        and H12        Dist= 2.53D+00.
 Add virtual bond connecting atoms H15        and O16        Dist= 2.80D+00.
 Add virtual bond connecting atoms H8         and N1         Dist= 2.96D+00.
 Add virtual bond connecting atoms O13        and H12        Dist= 2.71D+00.

 GradGradGradGradGradGradGradGradGradGradGradGradGradGradGradGradGradGrad
 Berny optimization.
 Initialization pass.
                           ----------------------------
                           !    Initial Parameters    !
                           ! (Angstroms and Degrees)  !
 --------------------------                            --------------------------
 ! Name  Definition              Value          Derivative Info.                !
 --------------------------------------------------------------------------------
 ! R1    R(1,2)                  1.3328         estimate D2E/DX2                !
 ! R2    R(1,5)                  1.297          estimate D2E/DX2                !
 ! R3    R(1,8)                  1.5662         estimate D2E/DX2                !
 ! R4    R(2,3)                  1.3455         estimate D2E/DX2                !
 ! R5    R(2,9)                  1.5165         estimate D2E/DX2                !
 ! R6    R(3,4)                  1.3787         estimate D2E/DX2                !
 ! R7    R(3,6)                  1.0781         estimate D2E/DX2                !
 ! R8    R(4,5)                  1.3555         estimate D2E/DX2                !
 ! R9    R(4,7)                  1.0781         estimate D2E/DX2                !
 ! R10   R(8,13)                 1.0144         estimate D2E/DX2                !
 ! R11   R(9,10)                 1.2083         estimate D2E/DX2                !
 ! R12   R(9,11)                 1.253          estimate D2E/DX2                !
 ! R13   R(11,15)                1.1187         estimate D2E/DX2                !
 ! R14   R(12,13)                1.4364         estimate D2E/DX2                !
 ! R15   R(12,15)                1.337          estimate D2E/DX2                !
 ! R16   R(12,16)                0.9571         estimate D2E/DX2                !
 ! R17   R(13,14)                0.9648         estimate D2E/DX2                !
 ! R18   R(15,16)                1.4804         estimate D2E/DX2                !
 ! R19   R(16,17)                0.9638         estimate D2E/DX2                !
 ! A1    A(2,1,5)              109.3561         estimate D2E/DX2                !
 ! A2    A(2,1,8)              124.6682         estimate D2E/DX2                !
 ! A3    A(5,1,8)              125.2906         estimate D2E/DX2                !
 ! A4    A(1,2,3)              109.7885         estimate D2E/DX2                !
 ! A5    A(1,2,9)              123.2941         estimate D2E/DX2                !
 ! A6    A(3,2,9)              126.9096         estimate D2E/DX2                !
 ! A7    A(2,3,4)              104.5335         estimate D2E/DX2                !
 ! A8    A(2,3,6)              120.9527         estimate D2E/DX2                !
 ! A9    A(4,3,6)              134.5139         estimate D2E/DX2                !
 ! A10   A(3,4,5)              108.4654         estimate D2E/DX2                !
 ! A11   A(3,4,7)              130.0146         estimate D2E/DX2                !
 ! A12   A(5,4,7)              121.52           estimate D2E/DX2                !
 ! A13   A(1,5,4)              107.8546         estimate D2E/DX2                !
 ! A14   A(2,9,10)             113.6808         estimate D2E/DX2                !
 ! A15   A(2,9,11)             111.5798         estimate D2E/DX2                !
 ! A16   A(10,9,11)            134.7217         estimate D2E/DX2                !
 ! A17   A(9,11,15)            122.2928         estimate D2E/DX2                !
 ! A18   A(13,12,15)           105.7415         estimate D2E/DX2                !
 ! A19   A(8,13,12)             95.2942         estimate D2E/DX2                !
 ! A20   A(8,13,14)            113.2956         estimate D2E/DX2                !
 ! A21   A(12,13,14)           118.2942         estimate D2E/DX2                !
 ! A22   A(11,15,12)           157.6207         estimate D2E/DX2                !
 ! A23   A(11,15,16)           134.7532         estimate D2E/DX2                !
 ! A24   A(12,16,17)           114.9408         estimate D2E/DX2                !
 ! A25   A(15,16,17)           115.8738         estimate D2E/DX2                !
 ! A26   L(1,8,13,11,-1)       188.4639         estimate D2E/DX2                !
 ! A27   L(13,12,16,2,-1)      185.3322         estimate D2E/DX2                !
 ! A28   L(1,8,13,11,-2)       178.6388         estimate D2E/DX2                !
 ! A29   L(13,12,16,2,-2)      172.8161         estimate D2E/DX2                !
 ! D1    D(5,1,2,3)             -0.0526         estimate D2E/DX2                !
 ! D2    D(5,1,2,9)           -179.0931         estimate D2E/DX2                !
 ! D3    D(8,1,2,3)            170.8693         estimate D2E/DX2                !
 ! D4    D(8,1,2,9)             -8.1712         estimate D2E/DX2                !
 ! D5    D(2,1,5,4)             -0.2347         estimate D2E/DX2                !
 ! D6    D(8,1,5,4)           -171.0868         estimate D2E/DX2                !
 ! D7    D(2,1,13,12)           -9.8459         estimate D2E/DX2                !
 ! D8    D(2,1,13,14)          116.242          estimate D2E/DX2                !
 ! D9    D(5,1,13,12)          159.7481         estimate D2E/DX2                !
 ! D10   D(5,1,13,14)          -74.164          estimate D2E/DX2                !
 ! D11   D(1,2,3,4)              0.3075         estimate D2E/DX2                !
 ! D12   D(1,2,3,6)           -179.6783         estimate D2E/DX2                !
 ! D13   D(9,2,3,4)            179.3045         estimate D2E/DX2                !
 ! D14   D(9,2,3,6)             -0.6814         estimate D2E/DX2                !
 ! D15   D(1,2,9,10)           170.8418         estimate D2E/DX2                !
 ! D16   D(1,2,9,11)           -10.4578         estimate D2E/DX2                !
 ! D17   D(3,2,9,10)            -8.0291         estimate D2E/DX2                !
 ! D18   D(3,2,9,11)           170.6713         estimate D2E/DX2                !
 ! D19   D(2,3,4,5)             -0.4457         estimate D2E/DX2                !
 ! D20   D(2,3,4,7)            179.6454         estimate D2E/DX2                !
 ! D21   D(6,3,4,5)            179.5373         estimate D2E/DX2                !
 ! D22   D(6,3,4,7)             -0.3717         estimate D2E/DX2                !
 ! D23   D(3,4,5,1)              0.4291         estimate D2E/DX2                !
 ! D24   D(7,4,5,1)           -179.6527         estimate D2E/DX2                !
 ! D25   D(2,9,11,15)           54.5657         estimate D2E/DX2                !
 ! D26   D(10,9,11,15)        -127.1094         estimate D2E/DX2                !
 ! D27   D(9,11,15,12)        -149.8341         estimate D2E/DX2                !
 ! D28   D(9,11,15,16)         147.1656         estimate D2E/DX2                !
 ! D29   D(15,12,13,8)          12.7975         estimate D2E/DX2                !
 ! D30   D(15,12,13,14)       -107.2649         estimate D2E/DX2                !
 ! D31   D(8,13,16,17)         -98.6805         estimate D2E/DX2                !
 ! D32   D(14,13,16,17)        141.2304         estimate D2E/DX2                !
 ! D33   D(13,12,15,11)         84.9524         estimate D2E/DX2                !
 ! D34   D(11,15,16,17)       -106.4589         estimate D2E/DX2                !
 --------------------------------------------------------------------------------
 Trust Radius=3.00D-01 FncErr=1.00D-07 GrdErr=1.00D-06 EigMax=2.50D+02 EigMin=1.00D-04
 Number of steps in this run=     92 maximum allowed number of steps=    102.
 GradGradGradGradGradGradGradGradGradGradGradGradGradGradGradGradGradGrad

                          Input orientation:                          
 ---------------------------------------------------------------------
 Center     Atomic      Atomic             Coordinates (Angstroms)
 Number     Number       Type             X           Y           Z
 ---------------------------------------------------------------------
      1          7           0        0.543495   -0.954066   -0.103236
      2          7           0        0.930219    0.320083   -0.045931
      3          6           0        2.263006    0.384257    0.126693
      4          6           0        2.670762   -0.932261    0.164604
      5          7           0        1.579395   -1.723904    0.025090
      6          1           0        2.767190    1.334125    0.202549
      7          1           0        3.658086   -1.349054    0.282151
      8          1           0       -0.947301   -1.433924   -0.092562
      9          6           0       -0.032905    1.487507   -0.142296
     10          8           0        0.473992    2.556418    0.103650
     11          8           0       -1.177465    1.113297   -0.488467
     12          1           0       -2.591630   -0.695541    0.242078
     13          8           0       -1.855839   -1.885042   -0.084756
     14          1           0       -2.063580   -2.338898   -0.910376
     15          1           0       -1.739043    0.318828    0.063832
     16          8           0       -3.168310    0.060638    0.350417
     17          1           0       -3.452714    0.228449    1.255904
 ---------------------------------------------------------------------
                    Distance matrix (angstroms):
                    1          2          3          4          5
     1  N    0.000000
     2  N    1.332777   0.000000
     3  C    2.191049   1.345451   0.000000
     4  C    2.144173   2.154572   1.378739   0.000000
     5  N    1.296999   2.145776   2.218556   1.355450   0.000000
     6  H    3.205330   2.112933   1.078056   2.268754   3.285406
     7  H    3.163102   3.214796   2.230422   1.078120   2.127804
     8  H    1.566158   2.569785   3.695934   3.661718   2.546001
     9  C    2.508992   1.516500   2.561391   3.641329   3.597317
    10  O    3.517262   2.287294   2.814140   4.123154   4.421453
    11  O    2.717369   2.295073   3.570261   4.406774   3.989201
    12  H    3.164662   3.676665   4.974613   5.268284   4.301403
    13  O    2.573686   3.553337   4.707368   4.632503   3.440765
    14  H    3.060404   4.096374   5.216362   5.054523   3.811113
    15  H    2.618807   2.671518   4.003077   4.584949   3.896959
    16  O    3.874651   4.125814   5.445546   5.925803   5.082434
    17  H    4.383525   4.573103   5.828280   6.327333   5.536127
                    6          7          8          9         10
     6  H    0.000000
     7  H    2.828336   0.000000
     8  H    4.641835   4.621385   0.000000
     9  C    2.825416   4.674361   3.061593   0.000000
    10  O    2.600488   5.042125   4.240449   1.208307   0.000000
    11  O    4.010807   5.480837   2.588060   1.252951   2.271676
    12  H    5.730450   6.283919   1.833306   3.385339   4.471291
    13  O    5.640743   5.552051   1.014401   3.834121   5.018982
    14  H    6.169768   5.927847   1.653444   4.399428   5.606393
    15  H    4.621277   5.653185   1.929626   2.078270   3.147367
    16  O    6.072380   6.970766   2.713453   3.479869   4.422236
    17  H    6.404630   7.348482   3.295290   3.903240   4.708094
                   11         12         13         14         15
    11  O    0.000000
    12  H    2.409451   0.000000
    13  O    3.100518   1.436357   0.000000
    14  H    3.588991   2.075478   0.964775   0.000000
    15  H    1.118742   1.337020   2.211959   2.849195   0.000000
    16  O    2.403181   0.957133   2.386970   2.927081   1.480405
    17  H    3.000424   1.619588   2.968876   3.635070   2.089467
                   16         17
    16  O    0.000000
    17  H    0.963822   0.000000
 Stoichiometry    C3H7N3O4
 Framework group  C1[X(C3H7N3O4)]
 Deg. of freedom    45
 Full point group                 C1      NOp   1
 Largest Abelian subgroup         C1      NOp   1
 Largest concise Abelian subgroup C1      NOp   1
                         Standard orientation:                         
 ---------------------------------------------------------------------
 Center     Atomic      Atomic             Coordinates (Angstroms)
 Number     Number       Type             X           Y           Z
 ---------------------------------------------------------------------
      1          7           0        0.532497   -0.955436   -0.105072
      2          7           0        0.923909    0.317225   -0.046564
      3          6           0        2.256809    0.376324    0.126993
      4          6           0        2.659651   -0.941727    0.164198
      5          7           0        1.565446   -1.729209    0.023371
      6          1           0        2.764465    1.324257    0.203889
      7          1           0        3.645342   -1.362269    0.282092
      8          1           0       -0.960077   -1.429765   -0.095745
      9          6           0       -0.034811    1.488288   -0.142703
     10          8           0        0.475886    2.555127    0.104373
     11          8           0       -1.180521    1.118585   -0.489912
     12          1           0       -2.601877   -0.685531    0.238350
     13          8           0       -1.870288   -1.877513   -0.088878
     14          1           0       -2.079161   -2.329983   -0.914972
     15          1           0       -1.745412    0.325798    0.061423
     16          8           0       -3.175819    0.072704    0.346867
     17          1           0       -3.460202    0.240899    1.252289
 ---------------------------------------------------------------------
 Rotational constants (GHZ):           1.7011727           1.0160301           0.6518726
 Standard basis: 6-31+G(d,p) (6D, 7F)
 There are   225 symmetry adapted cartesian basis functions of A   symmetry.
 There are   225 symmetry adapted basis functions of A   symmetry.
   225 basis functions,   369 primitive gaussians,   225 cartesian basis functions
    39 alpha electrons       39 beta electrons
       nuclear repulsion energy       564.5023641170 Hartrees.
 NAtoms=   17 NActive=   17 NUniq=   17 SFac= 1.00D+00 NAtFMM=   60 NAOKFM=F Big=F
 Integral buffers will be    131072 words long.
 Raffenetti 2 integral format.
 Two-electron integral symmetry is turned on.
 ------------------------------------------------------------------------------
 Polarizable Continuum Model (PCM)
 =================================
 Model                : PCM.
 Atomic radii         : SMD-Coulomb.
 Polarization charges : Total charges.
 Charge compensation  : None.
 Solution method      : On-the-fly selection.
 Cavity type          : VdW (van der Waals Surface) (Alpha=1.000).
 Cavity algorithm     : GePol (No added spheres)
                        Default sphere list used, NSphG=   17.
                        Lebedev-Laikov grids with approx.  5.0 points / Ang**2.
                        Smoothing algorithm: York/Karplus (Gamma=1.0000).
                        Polarization charges: spherical gaussians, with
                                              point-specific exponents (IZeta= 3).
                        Self-potential: point-specific (ISelfS= 7).
                        Self-field    : sphere-specific E.n sum rule (ISelfD= 2).
 1st derivatives      : Analytical E(r).r(x)/FMM algorithm (CHGder, D1EAlg=3).
                        Cavity 1st derivative terms included.
 Solvent              : Water, Eps=  78.355300 Eps(inf)=   1.777849
 ------------------------------------------------------------------------------
 Spheres list:
 ISph  on   Nord     Re0    Alpha      Xe            Ye            Ze
    1   N      1    1.8900  1.000      0.532497     -0.955436     -0.105072
    2   N      2    1.8900  1.000      0.923909      0.317225     -0.046564
    3   C      3    1.8500  1.000      2.256809      0.376324      0.126993
    4   C      4    1.8500  1.000      2.659651     -0.941727      0.164198
    5   N      5    1.8900  1.000      1.565446     -1.729209      0.023371
    6   H      6    1.2000  1.000      2.764465      1.324257      0.203889
    7   H      7    1.2000  1.000      3.645342     -1.362269      0.282092
    8   H      8    1.2000  1.000     -0.960077     -1.429765     -0.095745
    9   C      9    1.8500  1.000     -0.034811      1.488288     -0.142703
   10   O     10    1.5200  1.000      0.475886      2.555127      0.104373
   11   O     11    1.5200  1.000     -1.180521      1.118585     -0.489912
   12   H     12    1.2000  1.000     -2.601877     -0.685531      0.238350
   13   O     13    1.5200  1.000     -1.870288     -1.877513     -0.088878
   14   H     14    1.2000  1.000     -2.079161     -2.329983     -0.914972
   15   H     15    1.2000  1.000     -1.745412      0.325798      0.061423
   16   O     16    1.5200  1.000     -3.175819      0.072704      0.346867
   17   H     17    1.2000  1.000     -3.460202      0.240899      1.252289
 ------------------------------------------------------------------------------
 ------------------------------------------------------------------------------
 Atomic radii for non-electrostatic terms: SMD-CDS.
 ------------------------------------------------------------------------------
 Nuclear repulsion after PCM non-electrostatic terms =      564.5108290769 Hartrees.
 One-electron integrals computed using PRISM.
 NBasis=   225 RedAO= T EigKep=  1.90D-05  NBF=   225
 NBsUse=   225 1.00D-06 EigRej= -1.00D+00 NBFU=   225
 ExpMin= 4.38D-02 ExpMax= 5.48D+03 ExpMxC= 8.25D+02 IAcc=3 IRadAn=         5 AccDes= 0.00D+00
 Harris functional with IExCor= 1009 and IRadAn=       5 diagonalized for initial guess.
 HarFok:  IExCor= 1009 AccDes= 0.00D+00 IRadAn=         5 IDoV= 1 UseB2=F ITyADJ=14
 ICtDFT=  3500011 ScaDFX=  1.000000  1.000000  1.000000  1.000000
 FoFCou: FMM=F IPFlag=           0 FMFlag=      100000 FMFlg1=           0
         NFxFlg=           0 DoJE=T BraDBF=F KetDBF=T FulRan=T
         wScrn=  0.000000 ICntrl=       500 IOpCl=  0 I1Cent=   200000004 NGrid=           0
         NMat0=    1 NMatS0=      1 NMatT0=    0 NMatD0=    1 NMtDS0=    0 NMtDT0=    0
 Petite list used in FoFCou.
 Requested convergence on RMS density matrix=1.00D-08 within 128 cycles.
 Requested convergence on MAX density matrix=1.00D-06.
 Requested convergence on             energy=1.00D-06.
 No special actions if energy rises.
 Inv3:  Mode=1 IEnd=     5235123.
 Iteration    1 A*A^-1 deviation from unit magnitude is 2.89D-15 for    120.
 Iteration    1 A*A^-1 deviation from orthogonality  is 2.28D-15 for    981    251.
 Iteration    1 A^-1*A deviation from unit magnitude is 3.11D-15 for   1098.
 Iteration    1 A^-1*A deviation from orthogonality  is 2.44D-15 for    977    241.
 Error on total polarization charges =  0.04582
 SCF Done:  E(RM062X) =  -583.449049935     A.U. after   14 cycles
            NFock= 14  Conv=0.48D-08     -V/T= 2.0079
 SMD-CDS (non-electrostatic) energy       (kcal/mol) =       5.31
 (included in total energy above)

 **********************************************************************

            Population analysis using the SCF density.

 **********************************************************************

 Orbital symmetries:
       Occupied  (A) (A) (A) (A) (A) (A) (A) (A) (A) (A) (A) (A)
                 (A) (A) (A) (A) (A) (A) (A) (A) (A) (A) (A) (A)
                 (A) (A) (A) (A) (A) (A) (A) (A) (A) (A) (A) (A)
                 (A) (A) (A)
       Virtual   (A) (A) (A) (A) (A) (A) (A) (A) (A) (A) (A) (A)
                 (A) (A) (A) (A) (A) (A) (A) (A) (A) (A) (A) (A)
                 (A) (A) (A) (A) (A) (A) (A) (A) (A) (A) (A) (A)
                 (A) (A) (A) (A) (A) (A) (A) (A) (A) (A) (A) (A)
                 (A) (A) (A) (A) (A) (A) (A) (A) (A) (A) (A) (A)
                 (A) (A) (A) (A) (A) (A) (A) (A) (A) (A) (A) (A)
                 (A) (A) (A) (A) (A) (A) (A) (A) (A) (A) (A) (A)
                 (A) (A) (A) (A) (A) (A) (A) (A) (A) (A) (A) (A)
                 (A) (A) (A) (A) (A) (A) (A) (A) (A) (A) (A) (A)
                 (A) (A) (A) (A) (A) (A) (A) (A) (A) (A) (A) (A)
                 (A) (A) (A) (A) (A) (A) (A) (A) (A) (A) (A) (A)
                 (A) (A) (A) (A) (A) (A) (A) (A) (A) (A) (A) (A)
                 (A) (A) (A) (A) (A) (A) (A) (A) (A) (A) (A) (A)
                 (A) (A) (A) (A) (A) (A) (A) (A) (A) (A) (A) (A)
                 (A) (A) (A) (A) (A) (A) (A) (A) (A) (A) (A) (A)
                 (A) (A) (A) (A) (A) (A)
 The electronic state is 1-A.
 Alpha  occ. eigenvalues --  -19.70381 -19.67535 -19.64987 -19.64463 -14.87824
 Alpha  occ. eigenvalues --  -14.85638 -14.81910 -10.76075 -10.60942 -10.58865
 Alpha  occ. eigenvalues --   -1.28233  -1.23992  -1.18888  -1.16308  -1.12152
 Alpha  occ. eigenvalues --   -1.03613  -0.92751  -0.78573  -0.73582  -0.72803
 Alpha  occ. eigenvalues --   -0.68072  -0.65332  -0.61771  -0.60746  -0.58731
 Alpha  occ. eigenvalues --   -0.55897  -0.55080  -0.52953  -0.50749  -0.47198
 Alpha  occ. eigenvalues --   -0.46113  -0.43819  -0.43068  -0.41219  -0.40666
 Alpha  occ. eigenvalues --   -0.39490  -0.38538  -0.37302  -0.33895
 Alpha virt. eigenvalues --   -0.02077   0.01863   0.03662   0.04379   0.04646
 Alpha virt. eigenvalues --    0.05629   0.05924   0.06851   0.07489   0.08023
 Alpha virt. eigenvalues --    0.09302   0.10355   0.11787   0.12498   0.13240
 Alpha virt. eigenvalues --    0.14716   0.15320   0.16132   0.16742   0.17876
 Alpha virt. eigenvalues --    0.18793   0.19291   0.20809   0.21058   0.22049
 Alpha virt. eigenvalues --    0.22340   0.23526   0.24002   0.24408   0.24742
 Alpha virt. eigenvalues --    0.25196   0.26392   0.27080   0.27640   0.28071
 Alpha virt. eigenvalues --    0.28408   0.29319   0.29735   0.30427   0.32301
 Alpha virt. eigenvalues --    0.32335   0.33394   0.34116   0.35105   0.36310
 Alpha virt. eigenvalues --    0.37383   0.37932   0.38297   0.41144   0.41901
 Alpha virt. eigenvalues --    0.43893   0.44931   0.45293   0.47854   0.48700
 Alpha virt. eigenvalues --    0.51114   0.53061   0.65701   0.72461   0.74002
 Alpha virt. eigenvalues --    0.76176   0.80082   0.82611   0.86176   0.87834
 Alpha virt. eigenvalues --    0.89164   0.93117   0.93728   0.96140   0.96649
 Alpha virt. eigenvalues --    0.97327   0.98631   1.00865   1.01434   1.02871
 Alpha virt. eigenvalues --    1.05796   1.07836   1.11784   1.12498   1.13565
 Alpha virt. eigenvalues --    1.15005   1.15593   1.19006   1.20608   1.21542
 Alpha virt. eigenvalues --    1.23575   1.25931   1.26746   1.27807   1.28419
 Alpha virt. eigenvalues --    1.33650   1.34265   1.34701   1.36196   1.36615
 Alpha virt. eigenvalues --    1.37912   1.38289   1.39040   1.40011   1.41414
 Alpha virt. eigenvalues --    1.44061   1.47156   1.49086   1.51014   1.54154
 Alpha virt. eigenvalues --    1.55099   1.56554   1.58401   1.61350   1.63608
 Alpha virt. eigenvalues --    1.64959   1.66311   1.70189   1.72285   1.72504
 Alpha virt. eigenvalues --    1.78106   1.81066   1.82820   1.83747   1.87118
 Alpha virt. eigenvalues --    1.90774   1.92818   1.95307   1.96828   1.98763
 Alpha virt. eigenvalues --    2.02883   2.06074   2.09624   2.13132   2.19505
 Alpha virt. eigenvalues --    2.20733   2.24457   2.25351   2.26663   2.26991
 Alpha virt. eigenvalues --    2.32171   2.34923   2.38222   2.39537   2.40321
 Alpha virt. eigenvalues --    2.43326   2.47023   2.51155   2.53492   2.53744
 Alpha virt. eigenvalues --    2.55753   2.58135   2.60457   2.64606   2.66808
 Alpha virt. eigenvalues --    2.67514   2.71346   2.74023   2.74657   2.76778
 Alpha virt. eigenvalues --    2.84749   2.86181   2.91314   2.94815   2.96146
 Alpha virt. eigenvalues --    2.98193   3.03362   3.06577   3.07077   3.12796
 Alpha virt. eigenvalues --    3.15356   3.19664   3.22778   3.29572   3.35238
 Alpha virt. eigenvalues --    3.45148   3.47333   3.64909   3.68292   3.75362
 Alpha virt. eigenvalues --    3.87370   4.05612   4.20647   4.25639   4.27630
 Alpha virt. eigenvalues --    4.30293   4.49213   4.53722   4.54568   4.71792
 Alpha virt. eigenvalues --    4.75191
          Condensed to atoms (all electrons):
               1          2          3          4          5          6
     1  N    8.574179  -0.595569  -0.364986   0.401277  -0.855149  -0.000269
     2  N   -0.595569   7.542855   0.355396  -0.189013   0.262004  -0.042591
     3  C   -0.364986   0.355396   5.667038  -0.017879   0.144581   0.414751
     4  C    0.401277  -0.189013  -0.017879   5.667107   0.007428  -0.025787
     5  N   -0.855149   0.262004   0.144581   0.007428   7.660105   0.001165
     6  H   -0.000269  -0.042591   0.414751  -0.025787   0.001165   0.398822
     7  H    0.033670  -0.026269  -0.011964   0.392310  -0.055356   0.000388
     8  H    0.027968   0.012255   0.005195  -0.000513   0.006481  -0.000003
     9  C   -0.027098   0.113062  -0.111970  -0.027771   0.057951  -0.010338
    10  O   -0.000043  -0.081331  -0.071203   0.048888  -0.005712  -0.000063
    11  O    0.012075  -0.129584   0.013106   0.012683  -0.023655  -0.000949
    12  H    0.001232   0.002222   0.000507  -0.000726   0.004670  -0.000000
    13  O   -0.016611  -0.033665  -0.000401  -0.002957   0.002158   0.000023
    14  H    0.003072   0.000482  -0.000202   0.000183  -0.000035  -0.000000
    15  H    0.028961  -0.039011  -0.001392  -0.004198   0.024706   0.000000
    16  O   -0.009379  -0.002029  -0.000387   0.000846   0.004298  -0.000005
    17  H    0.001867  -0.001346   0.000083  -0.000084   0.000585   0.000000
               7          8          9         10         11         12
     1  N    0.033670   0.027968  -0.027098  -0.000043   0.012075   0.001232
     2  N   -0.026269   0.012255   0.113062  -0.081331  -0.129584   0.002222
     3  C   -0.011964   0.005195  -0.111970  -0.071203   0.013106   0.000507
     4  C    0.392310  -0.000513  -0.027771   0.048888   0.012683  -0.000726
     5  N   -0.055356   0.006481   0.057951  -0.005712  -0.023655   0.004670
     6  H    0.000388  -0.000003  -0.010338  -0.000063  -0.000949  -0.000000
     7  H    0.434424  -0.000001  -0.000960  -0.000203   0.000018  -0.000000
     8  H   -0.000001   0.266820  -0.002937   0.000146   0.000732   0.001769
     9  C   -0.000960  -0.002937   4.415985   0.518407   0.251057  -0.001905
    10  O   -0.000203   0.000146   0.518407   8.200898  -0.108143   0.000167
    11  O    0.000018   0.000732   0.251057  -0.108143   8.465749  -0.002351
    12  H   -0.000000   0.001769  -0.001905   0.000167  -0.002351   0.264718
    13  O    0.000046   0.186522  -0.005519  -0.000764  -0.008334   0.010914
    14  H   -0.000000  -0.012565   0.000188  -0.000008  -0.001380  -0.002887
    15  H    0.000000   0.003682   0.013552   0.000161   0.113519   0.009101
    16  O    0.000000   0.000740   0.011988  -0.002899  -0.102507   0.222656
    17  H   -0.000000   0.000041  -0.000637   0.000082  -0.001327  -0.014114
              13         14         15         16         17
     1  N   -0.016611   0.003072   0.028961  -0.009379   0.001867
     2  N   -0.033665   0.000482  -0.039011  -0.002029  -0.001346
     3  C   -0.000401  -0.000202  -0.001392  -0.000387   0.000083
     4  C   -0.002957   0.000183  -0.004198   0.000846  -0.000084
     5  N    0.002158  -0.000035   0.024706   0.004298   0.000585
     6  H    0.000023  -0.000000   0.000000  -0.000005   0.000000
     7  H    0.000046  -0.000000   0.000000   0.000000  -0.000000
     8  H    0.186522  -0.012565   0.003682   0.000740   0.000041
     9  C   -0.005519   0.000188   0.013552   0.011988  -0.000637
    10  O   -0.000764  -0.000008   0.000161  -0.002899   0.000082
    11  O   -0.008334  -0.001380   0.113519  -0.102507  -0.001327
    12  H    0.010914  -0.002887   0.009101   0.222656  -0.014114
    13  O    8.584325   0.286195   0.022781  -0.111314   0.005694
    14  H    0.286195   0.265721  -0.000452   0.005993  -0.000083
    15  H    0.022781  -0.000452   0.328873   0.091556  -0.000153
    16  O   -0.111314   0.005993   0.091556   8.448405   0.286716
    17  H    0.005694  -0.000083  -0.000153   0.286716   0.265931
 Mulliken charges:
               1
     1  N   -0.215199
     2  N   -0.147869
     3  C   -0.020273
     4  C   -0.261795
     5  N   -0.236227
     6  H    0.264855
     7  H    0.233897
     8  H    0.503668
     9  C    0.806944
    10  O   -0.498380
    11  O   -0.490711
    12  H    0.504026
    13  O   -0.919094
    14  H    0.455778
    15  H    0.408313
    16  O   -0.844680
    17  H    0.456745
 Sum of Mulliken charges =  -0.00000
 Mulliken charges with hydrogens summed into heavy atoms:
               1
     1  N   -0.215199
     2  N   -0.147869
     3  C    0.244582
     4  C   -0.027898
     5  N   -0.236227
     9  C    0.806944
    10  O   -0.498380
    11  O   -0.082398
    13  O    0.040353
    16  O    0.116092
 Electronic spatial extent (au):  <R**2>=           1645.3135
 Charge=             -0.0000 electrons
 Dipole moment (field-independent basis, Debye):
    X=              1.8743    Y=             -1.3774    Z=              1.1247  Tot=              2.5836
 Quadrupole moment (field-independent basis, Debye-Ang):
   XX=            -48.9481   YY=            -74.7960   ZZ=            -55.0516
   XY=              4.1509   XZ=             -3.8590   YZ=              4.9059
 Traceless Quadrupole moment (field-independent basis, Debye-Ang):
   XX=             10.6505   YY=            -15.1975   ZZ=              4.5470
   XY=              4.1509   XZ=             -3.8590   YZ=              4.9059
 Octapole moment (field-independent basis, Debye-Ang**2):
  XXX=             28.4449  YYY=            -18.5387  ZZZ=              2.2492  XYY=            -14.3273
  XXY=             -4.0983  XXZ=             23.3625  XZZ=            -23.6592  YZZ=             -0.9386
  YYZ=            -12.1055  XYZ=            -14.3692
 Hexadecapole moment (field-independent basis, Debye-Ang**3):
 XXXX=          -1106.6724 YYYY=           -853.9305 ZZZZ=            -69.5948 XXXY=              3.0385
 XXXZ=            -62.2329 YYYX=             36.5174 YYYZ=             27.1255 ZZZX=            -18.3878
 ZZZY=              8.8418 XXYY=           -309.7072 XXZZ=           -182.4735 YYZZ=           -124.5248
 XXYZ=             29.2345 YYXZ=             22.0180 ZZXY=             12.3194
 N-N= 5.645108290769D+02 E-N=-2.494890959341D+03  KE= 5.788764456596D+02
 D1PCM: PCM CHGder 1st derivatives, ID1Alg=3 FixD1E=F DoIter=F DoCFld=F I1PDM=0.
 Calling FoFJK, ICntrl=      2127 FMM=F ISym2X=0 I1Cent= 0 IOpClX= 0 NMat=1 NMatS=1 NMatT=0.
 ***** Axes restored to original set *****
 -------------------------------------------------------------------
 Center     Atomic                   Forces (Hartrees/Bohr)
 Number     Number              X              Y              Z
 -------------------------------------------------------------------
      1        7          -0.000584288    0.003032022   -0.000895611
      2        7          -0.004925952    0.007294622    0.001591899
      3        6           0.005530753    0.000796996    0.001368838
      4        6           0.002756193    0.005220199    0.000286756
      5        7          -0.004529496    0.004241857   -0.000283877
      6        1           0.002846787   -0.000808726    0.000114719
      7        1           0.000532795    0.000907616   -0.000035970
      8        1           0.000132393   -0.022224233   -0.011587235
      9        6           0.063558661   -0.020047488    0.019525493
     10        8          -0.016325087   -0.000497488   -0.009387274
     11        8          -0.040656435   -0.014279601    0.004486515
     12        1          -0.006705214   -0.064567493    0.005437501
     13        8           0.006927289   -0.009367375    0.009129786
     14        1           0.005515448    0.003554720   -0.003385954
     15        1           0.003643749    0.059247018   -0.020300193
     16        8          -0.023465028    0.052390415    0.000040401
     17        1           0.005747431   -0.004893062    0.003894204
 -------------------------------------------------------------------
 Cartesian Forces:  Max     0.064567493 RMS     0.019658824

 GradGradGradGradGradGradGradGradGradGradGradGradGradGradGradGradGradGrad
 Berny optimization.
 FormGI is forming the generalized inverse of G from B-inverse, IUseBI=4.
 Internal  Forces:  Max     0.043878986 RMS     0.010342011
 Search for a local minimum.
 Step number   1 out of a maximum of   92
 All quantities printed in internal units (Hartrees-Bohrs-Radians)
 Mixed Optimization -- RFO/linear search
 Second derivative matrix not updated -- first step.
 ITU=  0
     Eigenvalues ---    0.00315   0.00477   0.00736   0.01412   0.01501
     Eigenvalues ---    0.01733   0.02052   0.02342   0.02360   0.02388
     Eigenvalues ---    0.02416   0.02825   0.03553   0.03995   0.05152
     Eigenvalues ---    0.06675   0.07339   0.09049   0.10050   0.10452
     Eigenvalues ---    0.12943   0.13588   0.14828   0.16000   0.16000
     Eigenvalues ---    0.16793   0.22406   0.23096   0.23525   0.24992
     Eigenvalues ---    0.30050   0.30556   0.36222   0.36230   0.42873
     Eigenvalues ---    0.44761   0.48593   0.49602   0.54432   0.54459
     Eigenvalues ---    0.54659   0.55183   0.65092   0.79433   1.00758
 RFO step:  Lambda=-3.97886919D-02 EMin= 3.14946209D-03
 Linear search not attempted -- first point.
 Maximum step size (   0.300) exceeded in Quadratic search.
    -- Step size scaled by   0.611
 Iteration  1 RMS(Cart)=  0.04684955 RMS(Int)=  0.00222768
 Iteration  2 RMS(Cart)=  0.00293677 RMS(Int)=  0.00074545
 Iteration  3 RMS(Cart)=  0.00000801 RMS(Int)=  0.00074543
 Iteration  4 RMS(Cart)=  0.00000001 RMS(Int)=  0.00074543
 Variable       Old X    -DE/DX   Delta X   Delta X   Delta X     New X
                                 (Linear)    (Quad)   (Total)
    R1        2.51858   0.00629   0.00000   0.00774   0.00755   2.52613
    R2        2.45097  -0.00225   0.00000  -0.00155  -0.00153   2.44944
    R3        2.95961   0.01296   0.00000   0.05759   0.05742   3.01703
    R4        2.54253   0.00647   0.00000   0.00731   0.00730   2.54983
    R5        2.86577  -0.01210   0.00000  -0.02115  -0.02122   2.84455
    R6        2.60544  -0.00566   0.00000  -0.00800  -0.00800   2.59744
    R7        2.03723   0.00064   0.00000   0.00098   0.00098   2.03821
    R8        2.56143   0.00508   0.00000   0.00384   0.00386   2.56529
    R9        2.03735   0.00013   0.00000   0.00020   0.00020   2.03755
   R10        1.91694   0.00436   0.00000   0.00544   0.00527   1.92221
   R11        2.28337  -0.00921   0.00000  -0.00537  -0.00537   2.27800
   R12        2.36773   0.03478   0.00000   0.02491   0.02505   2.39279
   R13        2.11412  -0.02590   0.00000  -0.04561  -0.04544   2.06868
   R14        2.71432   0.02546   0.00000   0.09204   0.09213   2.80645
   R15        2.52660   0.02866   0.00000   0.16224   0.16303   2.68963
   R16        1.80872   0.04388   0.00000   0.05810   0.05935   1.86807
   R17        1.82316   0.00004   0.00000   0.00005   0.00005   1.82321
   R18        2.79756   0.00195   0.00000  -0.03866  -0.04008   2.75748
   R19        1.82136   0.00110   0.00000   0.00114   0.00114   1.82250
    A1        1.90862  -0.00727   0.00000  -0.01633  -0.01627   1.89235
    A2        2.17587   0.00812   0.00000   0.03668   0.03649   2.21236
    A3        2.18673  -0.00066   0.00000  -0.01876  -0.01864   2.16809
    A4        1.91617   0.00369   0.00000   0.00896   0.00899   1.92516
    A5        2.15189  -0.00073   0.00000   0.00674   0.00660   2.15848
    A6        2.21499  -0.00297   0.00000  -0.01560  -0.01550   2.19949
    A7        1.82445  -0.00207   0.00000  -0.00319  -0.00324   1.82121
    A8        2.11102   0.00395   0.00000   0.01050   0.01052   2.12154
    A9        2.34771  -0.00187   0.00000  -0.00731  -0.00728   2.34043
   A10        1.89308   0.00017   0.00000  -0.00228  -0.00231   1.89077
   A11        2.26918  -0.00118   0.00000  -0.00221  -0.00220   2.26698
   A12        2.12092   0.00101   0.00000   0.00450   0.00451   2.12543
   A13        1.88242   0.00548   0.00000   0.01287   0.01285   1.89527
   A14        1.98411   0.01157   0.00000   0.01840   0.01817   2.00227
   A15        1.94743   0.01272   0.00000   0.03819   0.03834   1.98577
   A16        2.35134  -0.02432   0.00000  -0.05719  -0.05737   2.29397
   A17        2.13441  -0.00862   0.00000  -0.01869  -0.01908   2.11533
   A18        1.84554   0.00203   0.00000  -0.00014  -0.00066   1.84488
   A19        1.66320   0.00852   0.00000   0.05041   0.05066   1.71386
   A20        1.97738  -0.00498   0.00000  -0.03397  -0.03448   1.94290
   A21        2.06462  -0.00198   0.00000  -0.00663  -0.00678   2.05784
   A22        2.75100   0.00464   0.00000   0.00992   0.00838   2.75938
   A23        2.35189  -0.00596   0.00000   0.03452   0.03835   2.39024
   A24        2.00610  -0.01294   0.00000  -0.03891  -0.03970   1.96639
   A25        2.02238   0.00178   0.00000  -0.00434  -0.00270   2.01968
   A26        3.28932  -0.01401   0.00000  -0.07084  -0.07100   3.21832
   A27        3.23466  -0.02360   0.00000  -0.12670  -0.12424   3.11041
   A28        3.11784   0.01046   0.00000   0.05770   0.05657   3.17441
   A29        3.01621   0.00662   0.00000   0.06606   0.06401   3.08022
    D1       -0.00092   0.00004   0.00000  -0.00033  -0.00027  -0.00119
    D2       -3.12576   0.00033   0.00000  -0.00613  -0.00618  -3.13195
    D3        2.98223   0.00102   0.00000   0.00759   0.00801   2.99024
    D4       -0.14261   0.00131   0.00000   0.00179   0.00210  -0.14052
    D5       -0.00410   0.00009   0.00000   0.00187   0.00183  -0.00227
    D6       -2.98603  -0.00188   0.00000  -0.01233  -0.01237  -2.99840
    D7       -0.17184   0.00468   0.00000   0.00998   0.00990  -0.16195
    D8        2.02881   0.00263   0.00000   0.00458   0.00447   2.03328
    D9        2.78813   0.00117   0.00000  -0.00329  -0.00323   2.78490
   D10       -1.29441  -0.00088   0.00000  -0.00869  -0.00865  -1.30305
   D11        0.00537  -0.00014   0.00000  -0.00130  -0.00134   0.00402
   D12       -3.13598  -0.00006   0.00000  -0.00255  -0.00259  -3.13857
   D13        3.12945  -0.00041   0.00000   0.00504   0.00501   3.13446
   D14       -0.01189  -0.00033   0.00000   0.00379   0.00377  -0.00812
   D15        2.98175   0.00157   0.00000   0.03307   0.03352   3.01527
   D16       -0.18252   0.00006   0.00000   0.01011   0.01024  -0.17229
   D17       -0.14013   0.00185   0.00000   0.02595   0.02637  -0.11376
   D18        2.97878   0.00034   0.00000   0.00300   0.00309   2.98187
   D19       -0.00778   0.00021   0.00000   0.00246   0.00247  -0.00531
   D20        3.13540  -0.00001   0.00000  -0.00119  -0.00117   3.13423
   D21        3.13352   0.00012   0.00000   0.00398   0.00395   3.13747
   D22       -0.00649  -0.00010   0.00000   0.00032   0.00031  -0.00618
   D23        0.00749  -0.00015   0.00000  -0.00266  -0.00266   0.00483
   D24       -3.13553   0.00005   0.00000   0.00062   0.00062  -3.13491
   D25        0.95235  -0.00421   0.00000  -0.01030  -0.01081   0.94154
   D26       -2.21848  -0.00530   0.00000  -0.03800  -0.03727  -2.25575
   D27       -2.61510   0.01706   0.00000   0.08325   0.08315  -2.53195
   D28        2.56852  -0.00869   0.00000  -0.03853  -0.03928   2.52925
   D29        0.22336   0.00220   0.00000  -0.00589  -0.00748   0.21588
   D30       -1.87213   0.00331   0.00000   0.00394   0.00287  -1.86925
   D31       -1.72230   0.00046   0.00000   0.00780   0.00853  -1.71377
   D32        2.46494   0.00525   0.00000   0.03348   0.03411   2.49904
   D33        1.48270  -0.00496   0.00000  -0.05488  -0.05362   1.42908
   D34       -1.85806  -0.00191   0.00000  -0.01864  -0.01830  -1.87636
         Item               Value     Threshold  Converged?
 Maximum Force            0.043879     0.000450     NO 
 RMS     Force            0.010342     0.000300     NO 
 Maximum Displacement     0.158669     0.001800     NO 
 RMS     Displacement     0.046670     0.001200     NO 
 Predicted change in Energy=-1.889111D-02
 GradGradGradGradGradGradGradGradGradGradGradGradGradGradGradGradGradGrad

                          Input orientation:                          
 ---------------------------------------------------------------------
 Center     Atomic      Atomic             Coordinates (Angstroms)
 Number     Number       Type             X           Y           Z
 ---------------------------------------------------------------------
      1          7           0        0.546305   -0.967774   -0.113589
      2          7           0        0.927914    0.311394   -0.042462
      3          6           0        2.261569    0.392342    0.145838
      4          6           0        2.680601   -0.916251    0.181274
      5          7           0        1.595682   -1.716467    0.021940
      6          1           0        2.762736    1.343510    0.232051
      7          1           0        3.671752   -1.321758    0.306781
      8          1           0       -0.952293   -1.517888   -0.136720
      9          6           0       -0.023557    1.473182   -0.146346
     10          8           0        0.470067    2.550433    0.075046
     11          8           0       -1.192990    1.144888   -0.504020
     12          1           0       -2.652629   -0.712904    0.226381
     13          8           0       -1.879317   -1.935652   -0.108921
     14          1           0       -2.085360   -2.387576   -0.936052
     15          1           0       -1.755462    0.375143    0.034016
     16          8           0       -3.148064    0.126370    0.391828
     17          1           0       -3.369597    0.249919    1.322299
 ---------------------------------------------------------------------
                    Distance matrix (angstroms):
                    1          2          3          4          5
     1  N    0.000000
     2  N    1.336771   0.000000
     3  C    2.204393   1.349312   0.000000
     4  C    2.155185   2.151530   1.374504   0.000000
     5  N    1.296187   2.135950   2.214911   1.357491   0.000000
     6  H    3.220880   2.123014   1.078574   2.261824   3.281710
     7  H    3.173395   3.212134   2.225457   1.078224   2.132369
     8  H    1.596545   2.624946   3.749363   3.696080   2.560621
     9  C    2.506807   1.505271   2.544678   3.623424   3.581078
    10  O    3.524085   2.288390   2.805682   4.112864   4.413192
    11  O    2.764222   2.325077   3.594804   4.441017   4.029972
    12  H    3.227029   3.733866   5.037598   5.337296   4.370021
    13  O    2.611599   3.596412   4.757246   4.681479   3.484363
    14  H    3.101281   4.142797   5.272022   5.111517   3.862409
    15  H    2.668959   2.685223   4.018623   4.622558   3.950334
    16  O    3.885995   4.103223   5.421750   5.924924   5.102547
    17  H    4.344979   4.509430   5.754509   6.266322   5.496508
                    6          7          8          9         10
     6  H    0.000000
     7  H    2.817011   0.000000
     8  H    4.703725   4.649403   0.000000
     9  C    2.814858   4.655354   3.131956   0.000000
    10  O    2.595698   5.029747   4.314996   1.205466   0.000000
    11  O    4.028526   5.514296   2.698745   1.266208   2.253138
    12  H    5.792672   6.354130   1.915982   3.439465   4.519237
    13  O    5.693665   5.600361   1.017189   3.881417   5.067386
    14  H    6.228122   5.985394   1.636805   4.447485   5.651236
    15  H    4.625047   5.692849   2.063444   2.058571   3.112322
    16  O    6.036929   6.972388   2.793628   3.444717   4.366612
    17  H    6.323772   7.285743   3.331252   3.853476   4.646614
                   11         12         13         14         15
    11  O    0.000000
    12  H    2.472938   0.000000
    13  O    3.180703   1.485109   0.000000
    14  H    3.668962   2.116027   0.964799   0.000000
    15  H    1.094698   1.423292   2.318522   2.946606   0.000000
    16  O    2.379545   0.988539   2.472327   3.035215   1.459198
    17  H    2.978931   1.625456   3.007664   3.702134   2.069007
                   16         17
    16  O    0.000000
    17  H    0.964426   0.000000
 Stoichiometry    C3H7N3O4
 Framework group  C1[X(C3H7N3O4)]
 Deg. of freedom    45
 Full point group                 C1      NOp   1
 Largest Abelian subgroup         C1      NOp   1
 Largest concise Abelian subgroup C1      NOp   1
                         Standard orientation:                         
 ---------------------------------------------------------------------
 Center     Atomic      Atomic             Coordinates (Angstroms)
 Number     Number       Type             X           Y           Z
 ---------------------------------------------------------------------
      1          7           0        0.540189   -0.969367   -0.113923
      2          7           0        0.919419    0.310508   -0.042796
      3          6           0        2.252921    0.393935    0.145504
      4          6           0        2.674386   -0.913876    0.180940
      5          7           0        1.590956   -1.716108    0.021606
      6          1           0        2.752319    1.346034    0.231717
      7          1           0        3.666289   -1.317540    0.306447
      8          1           0       -0.957383   -1.522267   -0.137054
      9          6           0       -0.034210    1.470526   -0.146679
     10          8           0        0.457410    2.548692    0.074712
     11          8           0       -1.203031    1.140057   -0.504354
     12          1           0       -2.659213   -0.720445    0.226047
     13          8           0       -1.883629   -1.941753   -0.109254
     14          1           0       -2.088832   -2.394060   -0.936386
     15          1           0       -1.764071    0.369268    0.033682
     16          8           0       -3.156207    0.117906    0.391494
     17          1           0       -3.377970    0.241043    1.321965
 ---------------------------------------------------------------------
 Rotational constants (GHZ):           1.6751020           1.0112357           0.6479542
 Standard basis: 6-31+G(d,p) (6D, 7F)
 There are   225 symmetry adapted cartesian basis functions of A   symmetry.
 There are   225 symmetry adapted basis functions of A   symmetry.
   225 basis functions,   369 primitive gaussians,   225 cartesian basis functions
    39 alpha electrons       39 beta electrons
       nuclear repulsion energy       562.2036874427 Hartrees.
 NAtoms=   17 NActive=   17 NUniq=   17 SFac= 1.00D+00 NAtFMM=   60 NAOKFM=F Big=F
 Integral buffers will be    131072 words long.
 Raffenetti 2 integral format.
 Two-electron integral symmetry is turned on.
 ------------------------------------------------------------------------------
 Polarizable Continuum Model (PCM)
 =================================
 Model                : PCM.
 Atomic radii         : SMD-Coulomb.
 Polarization charges : Total charges.
 Charge compensation  : None.
 Solution method      : On-the-fly selection.
 Cavity type          : VdW (van der Waals Surface) (Alpha=1.000).
 Cavity algorithm     : GePol (No added spheres)
                        Default sphere list used, NSphG=   17.
                        Lebedev-Laikov grids with approx.  5.0 points / Ang**2.
                        Smoothing algorithm: York/Karplus (Gamma=1.0000).
                        Polarization charges: spherical gaussians, with
                                              point-specific exponents (IZeta= 3).
                        Self-potential: point-specific (ISelfS= 7).
                        Self-field    : sphere-specific E.n sum rule (ISelfD= 2).
 1st derivatives      : Analytical E(r).r(x)/FMM algorithm (CHGder, D1EAlg=3).
                        Cavity 1st derivative terms included.
 Solvent              : Water, Eps=  78.355300 Eps(inf)=   1.777849
 ------------------------------------------------------------------------------
 Spheres list:
 ISph  on   Nord     Re0    Alpha      Xe            Ye            Ze
    1   N      1    1.8900  1.000      0.540189     -0.969367     -0.113923
    2   N      2    1.8900  1.000      0.919419      0.310508     -0.042796
    3   C      3    1.8500  1.000      2.252921      0.393935      0.145504
    4   C      4    1.8500  1.000      2.674386     -0.913876      0.180940
    5   N      5    1.8900  1.000      1.590956     -1.716108      0.021606
    6   H      6    1.2000  1.000      2.752319      1.346034      0.231717
    7   H      7    1.2000  1.000      3.666289     -1.317540      0.306447
    8   H      8    1.2000  1.000     -0.957383     -1.522267     -0.137054
    9   C      9    1.8500  1.000     -0.034210      1.470526     -0.146679
   10   O     10    1.5200  1.000      0.457410      2.548692      0.074712
   11   O     11    1.5200  1.000     -1.203031      1.140057     -0.504354
   12   H     12    1.2000  1.000     -2.659213     -0.720445      0.226047
   13   O     13    1.5200  1.000     -1.883629     -1.941753     -0.109254
   14   H     14    1.2000  1.000     -2.088832     -2.394060     -0.936386
   15   H     15    1.2000  1.000     -1.764071      0.369268      0.033682
   16   O     16    1.5200  1.000     -3.156207      0.117906      0.391494
   17   H     17    1.2000  1.000     -3.377970      0.241043      1.321965
 ------------------------------------------------------------------------------
 ------------------------------------------------------------------------------
 Atomic radii for non-electrostatic terms: SMD-CDS.
 ------------------------------------------------------------------------------
 Nuclear repulsion after PCM non-electrostatic terms =      562.2121306759 Hartrees.
 One-electron integrals computed using PRISM.
 NBasis=   225 RedAO= T EigKep=  1.91D-05  NBF=   225
 NBsUse=   225 1.00D-06 EigRej= -1.00D+00 NBFU=   225
 Initial guess from the checkpoint file:  "/scratch/gongke2021/PC/Gau-21888.chk"
 B after Tr=     0.000000   -0.000000   -0.000000
         Rot=    0.999997    0.001608   -0.000863   -0.001883 Ang=   0.30 deg.
 ExpMin= 4.38D-02 ExpMax= 5.48D+03 ExpMxC= 8.25D+02 IAcc=2 IRadAn=         4 AccDes= 0.00D+00
 Harris functional with IExCor= 1009 and IRadAn=       4 diagonalized for initial guess.
 HarFok:  IExCor= 1009 AccDes= 0.00D+00 IRadAn=         4 IDoV= 1 UseB2=F ITyADJ=14
 ICtDFT=  3500011 ScaDFX=  1.000000  1.000000  1.000000  1.000000
 FoFCou: FMM=F IPFlag=           0 FMFlag=      100000 FMFlg1=           0
         NFxFlg=           0 DoJE=T BraDBF=F KetDBF=T FulRan=T
         wScrn=  0.000000 ICntrl=       500 IOpCl=  0 I1Cent=   200000004 NGrid=           0
         NMat0=    1 NMatS0=      1 NMatT0=    0 NMatD0=    1 NMtDS0=    0 NMtDT0=    0
 Petite list used in FoFCou.
 Requested convergence on RMS density matrix=1.00D-08 within 128 cycles.
 Requested convergence on MAX density matrix=1.00D-06.
 Requested convergence on             energy=1.00D-06.
 No special actions if energy rises.
 Inv3:  Mode=1 IEnd=     5235123.
 Iteration    1 A*A^-1 deviation from unit magnitude is 3.77D-15 for    372.
 Iteration    1 A*A^-1 deviation from orthogonality  is 2.70D-15 for    976    238.
 Iteration    1 A^-1*A deviation from unit magnitude is 3.33D-15 for    372.
 Iteration    1 A^-1*A deviation from orthogonality  is 2.16D-15 for    333    105.
 Error on total polarization charges =  0.04615
 SCF Done:  E(RM062X) =  -583.468412134     A.U. after   12 cycles
            NFock= 12  Conv=0.50D-08     -V/T= 2.0081
 SMD-CDS (non-electrostatic) energy       (kcal/mol) =       5.30
 (included in total energy above)
 D1PCM: PCM CHGder 1st derivatives, ID1Alg=3 FixD1E=F DoIter=F DoCFld=F I1PDM=0.
 Calling FoFJK, ICntrl=      2127 FMM=F ISym2X=0 I1Cent= 0 IOpClX= 0 NMat=1 NMatS=1 NMatT=0.
 ***** Axes restored to original set *****
 -------------------------------------------------------------------
 Center     Atomic                   Forces (Hartrees/Bohr)
 Number     Number              X              Y              Z
 -------------------------------------------------------------------
      1        7           0.005565660    0.004452870   -0.000507036
      2        7          -0.010536404    0.011500188    0.001130090
      3        6           0.002514920    0.000988410    0.001127373
      4        6           0.000690672    0.003094536   -0.000211117
      5        7          -0.004282814   -0.000605517   -0.000195974
      6        1           0.001448061   -0.000652468    0.000058949
      7        1           0.000121344    0.000386264   -0.000023443
      8        1          -0.007603820   -0.017344601   -0.008215195
      9        6           0.045226769   -0.018830096    0.010602221
     10        8          -0.008391006    0.002468194   -0.005461607
     11        8          -0.020065027   -0.012043320    0.003669900
     12        1          -0.016013288   -0.035579386    0.005571061
     13        8           0.007536662   -0.000051617    0.007517946
     14        1           0.003725252    0.002433892   -0.002925022
     15        1          -0.000958782    0.046489715   -0.012764389
     16        8          -0.003131615    0.018007983   -0.002298985
     17        1           0.004153417   -0.004715048    0.002925228
 -------------------------------------------------------------------
 Cartesian Forces:  Max     0.046489715 RMS     0.012795023

 GradGradGradGradGradGradGradGradGradGradGradGradGradGradGradGradGradGrad
 Berny optimization.
 Using GEDIIS/GDIIS optimizer.
 FormGI is forming the generalized inverse of G from B-inverse, IUseBI=4.
 Internal  Forces:  Max     0.023941164 RMS     0.005994029
 Search for a local minimum.
 Step number   2 out of a maximum of   92
 All quantities printed in internal units (Hartrees-Bohrs-Radians)
 Mixed Optimization -- RFO/linear search
 Update second derivatives using D2CorX and points    1    2
 DE= -1.94D-02 DEPred=-1.89D-02 R= 1.02D+00
 TightC=F SS=  1.41D+00  RLast= 3.27D-01 DXNew= 5.0454D-01 9.7981D-01
 Trust test= 1.02D+00 RLast= 3.27D-01 DXMaxT set to 5.05D-01
 ITU=  1  0
 Use linear search instead of GDIIS.
 Linear search step of   0.600 exceeds DXMaxT=   0.505 but not scaled.
 Quartic linear search produced a step of  2.00000.
 Iteration  1 RMS(Cart)=  0.08466257 RMS(Int)=  0.01696761
 Iteration  2 RMS(Cart)=  0.02027353 RMS(Int)=  0.00411311
 Iteration  3 RMS(Cart)=  0.00037775 RMS(Int)=  0.00409561
 Iteration  4 RMS(Cart)=  0.00000397 RMS(Int)=  0.00409561
 Iteration  5 RMS(Cart)=  0.00000003 RMS(Int)=  0.00409561
 Variable       Old X    -DE/DX   Delta X   Delta X   Delta X     New X
                                 (Linear)    (Quad)   (Total)
    R1        2.52613   0.00468   0.01509   0.00000   0.01380   2.53994
    R2        2.44944  -0.00221  -0.00307   0.00000  -0.00299   2.44645
    R3        3.01703   0.01013   0.11485   0.00000   0.11374   3.13077
    R4        2.54983   0.00274   0.01459   0.00000   0.01450   2.56433
    R5        2.84455  -0.01542  -0.04244   0.00000  -0.04297   2.80158
    R6        2.59744  -0.00230  -0.01601   0.00000  -0.01604   2.58139
    R7        2.03821   0.00012   0.00196   0.00000   0.00196   2.04017
    R8        2.56529   0.00278   0.00771   0.00000   0.00778   2.57307
    R9        2.03755  -0.00004   0.00039   0.00000   0.00039   2.03794
   R10        1.92221  -0.00341   0.01054   0.00000   0.00950   1.93171
   R11        2.27800  -0.00226  -0.01074   0.00000  -0.01074   2.26726
   R12        2.39279   0.02268   0.05011   0.00000   0.05087   2.44365
   R13        2.06868  -0.01420  -0.09087   0.00000  -0.08957   1.97911
   R14        2.80645   0.01095   0.18426   0.00000   0.18478   2.99123
   R15        2.68963   0.02394   0.32606   0.00000   0.32823   3.01786
   R16        1.86807   0.01108   0.11870   0.00000   0.12346   1.99153
   R17        1.82321   0.00054   0.00009   0.00000   0.00009   1.82330
   R18        2.75748   0.00059  -0.08015   0.00000  -0.08458   2.67290
   R19        1.82250   0.00122   0.00228   0.00000   0.00228   1.82479
    A1        1.89235  -0.00185  -0.03254   0.00000  -0.03220   1.86016
    A2        2.21236   0.00583   0.07297   0.00000   0.07168   2.28403
    A3        2.16809  -0.00384  -0.03728   0.00000  -0.03651   2.13158
    A4        1.92516   0.00056   0.01797   0.00000   0.01818   1.94333
    A5        2.15848   0.00137   0.01319   0.00000   0.01225   2.17073
    A6        2.19949  -0.00193  -0.03100   0.00000  -0.03037   2.16912
    A7        1.82121  -0.00103  -0.00648   0.00000  -0.00679   1.81442
    A8        2.12154   0.00209   0.02104   0.00000   0.02119   2.14274
    A9        2.34043  -0.00106  -0.01456   0.00000  -0.01441   2.32602
   A10        1.89077   0.00109  -0.00462   0.00000  -0.00479   1.88598
   A11        2.26698  -0.00101  -0.00440   0.00000  -0.00433   2.26265
   A12        2.12543  -0.00008   0.00902   0.00000   0.00909   2.13452
   A13        1.89527   0.00124   0.02571   0.00000   0.02562   1.92089
   A14        2.00227   0.00846   0.03634   0.00000   0.03497   2.03725
   A15        1.98577   0.00478   0.07667   0.00000   0.07757   2.06334
   A16        2.29397  -0.01327  -0.11474   0.00000  -0.11559   2.17838
   A17        2.11533  -0.00420  -0.03816   0.00000  -0.03949   2.07584
   A18        1.84488  -0.00033  -0.00131   0.00000  -0.00374   1.84114
   A19        1.71386   0.00491   0.10133   0.00000   0.10275   1.81661
   A20        1.94290  -0.00365  -0.06895   0.00000  -0.07144   1.87147
   A21        2.05784  -0.00104  -0.01356   0.00000  -0.01481   2.04304
   A22        2.75938   0.00309   0.01676   0.00000   0.00890   2.76828
   A23        2.39024   0.00404   0.07669   0.00000   0.09770   2.48793
   A24        1.96639  -0.00885  -0.07941   0.00000  -0.08520   1.88119
   A25        2.01968   0.00016  -0.00540   0.00000   0.00314   2.02282
   A26        3.21832  -0.00727  -0.14200   0.00000  -0.14286   3.07545
   A27        3.11041  -0.01378  -0.24849   0.00000  -0.23492   2.87550
   A28        3.17441   0.00660   0.11315   0.00000   0.10651   3.28092
   A29        3.08022   0.00476   0.12802   0.00000   0.11474   3.19497
    D1       -0.00119  -0.00000  -0.00054   0.00000  -0.00012  -0.00131
    D2       -3.13195  -0.00015  -0.01236   0.00000  -0.01254   3.13870
    D3        2.99024   0.00055   0.01602   0.00000   0.01851   3.00875
    D4       -0.14052   0.00040   0.00420   0.00000   0.00609  -0.13443
    D5       -0.00227   0.00012   0.00365   0.00000   0.00330   0.00103
    D6       -2.99840  -0.00144  -0.02475   0.00000  -0.02477  -3.02317
    D7       -0.16195   0.00216   0.01979   0.00000   0.01970  -0.14225
    D8        2.03328   0.00117   0.00895   0.00000   0.00838   2.04166
    D9        2.78490   0.00019  -0.00645   0.00000  -0.00570   2.77921
   D10       -1.30305  -0.00079  -0.01730   0.00000  -0.01701  -1.32007
   D11        0.00402  -0.00011  -0.00269   0.00000  -0.00299   0.00104
   D12       -3.13857  -0.00011  -0.00518   0.00000  -0.00538   3.13924
   D13        3.13446   0.00007   0.01002   0.00000   0.00975  -3.13897
   D14       -0.00812   0.00007   0.00754   0.00000   0.00735  -0.00077
   D15        3.01527   0.00168   0.06703   0.00000   0.06928   3.08454
   D16       -0.17229   0.00085   0.02047   0.00000   0.02147  -0.15082
   D17       -0.11376   0.00148   0.05275   0.00000   0.05492  -0.05884
   D18        2.98187   0.00066   0.00619   0.00000   0.00711   2.98899
   D19       -0.00531   0.00018   0.00494   0.00000   0.00493  -0.00038
   D20        3.13423   0.00001  -0.00235   0.00000  -0.00221   3.13202
   D21        3.13747   0.00018   0.00790   0.00000   0.00766  -3.13806
   D22       -0.00618   0.00001   0.00061   0.00000   0.00052  -0.00566
   D23        0.00483  -0.00018  -0.00532   0.00000  -0.00523  -0.00040
   D24       -3.13491  -0.00003   0.00124   0.00000   0.00129  -3.13362
   D25        0.94154  -0.00311  -0.02162   0.00000  -0.02404   0.91750
   D26       -2.25575  -0.00324  -0.07454   0.00000  -0.07038  -2.32613
   D27       -2.53195   0.01046   0.16630   0.00000   0.16530  -2.36665
   D28        2.52925  -0.00301  -0.07855   0.00000  -0.08258   2.44667
   D29        0.21588   0.00045  -0.01496   0.00000  -0.02418   0.19170
   D30       -1.86925   0.00201   0.00575   0.00000  -0.00028  -1.86953
   D31       -1.71377   0.00010   0.01706   0.00000   0.02129  -1.69248
   D32        2.49904   0.00363   0.06821   0.00000   0.07201   2.57105
   D33        1.42908  -0.00435  -0.10724   0.00000  -0.09992   1.32915
   D34       -1.87636  -0.00297  -0.03661   0.00000  -0.03316  -1.90952
         Item               Value     Threshold  Converged?
 Maximum Force            0.023941     0.000450     NO 
 RMS     Force            0.005994     0.000300     NO 
 Maximum Displacement     0.364633     0.001800     NO 
 RMS     Displacement     0.091076     0.001200     NO 
 Predicted change in Energy=-1.117394D-02
 GradGradGradGradGradGradGradGradGradGradGradGradGradGradGradGradGradGrad

                          Input orientation:                          
 ---------------------------------------------------------------------
 Center     Atomic      Atomic             Coordinates (Angstroms)
 Number     Number       Type             X           Y           Z
 ---------------------------------------------------------------------
      1          7           0        0.541888   -0.990713   -0.129739
      2          7           0        0.917448    0.296406   -0.035840
      3          6           0        2.252254    0.406799    0.182147
      4          6           0        2.688485   -0.887204    0.217512
      5          7           0        1.613829   -1.700379    0.022977
      6          1           0        2.750783    1.358875    0.285012
      7          1           0        3.685250   -1.273585    0.359592
      8          1           0       -0.963315   -1.676735   -0.221968
      9          6           0       -0.007028    1.449050   -0.156915
     10          8           0        0.465248    2.539325    0.009634
     11          8           0       -1.222712    1.220888   -0.534050
     12          1           0       -2.773535   -0.734894    0.195136
     13          8           0       -1.922236   -2.023676   -0.151081
     14          1           0       -2.125142   -2.474113   -0.979855
     15          1           0       -1.785105    0.500369   -0.022770
     16          8           0       -3.082113    0.233338    0.474327
     17          1           0       -3.176642    0.247159    1.435225
 ---------------------------------------------------------------------
                    Distance matrix (angstroms):
                    1          2          3          4          5
     1  N    0.000000
     2  N    1.344076   0.000000
     3  C    2.230620   1.356986   0.000000
     4  C    2.176965   2.145155   1.366014   0.000000
     5  N    1.294606   2.115551   2.207515   1.361610   0.000000
     6  H    3.251430   2.143105   1.079611   2.247956   3.274196
     7  H    3.193774   3.206551   2.215549   1.078433   2.141553
     8  H    1.656734   2.732252   3.852831   3.761934   2.588866
     9  C    2.500898   1.482533   2.511096   3.586651   3.546610
    10  O    3.533619   2.288501   2.787618   4.089877   4.392551
    11  O    2.858052   2.383939   3.640201   4.506258   4.109750
    12  H    3.341110   3.839308   5.153851   5.464189   4.495638
    13  O    2.671960   3.668769   4.841964   4.763001   3.555077
    14  H    3.167999   4.221883   5.367634   5.207972   3.947688
    15  H    2.765803   2.710271   4.043639   4.690001   4.049462
    16  O    3.872542   4.032461   5.345178   5.883993   5.098515
    17  H    4.220060   4.350636   5.573921   6.096664   5.360593
                    6          7          8          9         10
     6  H    0.000000
     7  H    2.794394   0.000000
     8  H    4.823533   4.702116   0.000000
     9  C    2.794450   4.616540   3.269442   0.000000
    10  O    2.587077   5.002916   4.457532   1.199784   0.000000
    11  O    4.059379   5.577552   2.925902   1.293126   2.209768
    12  H    5.908471   6.483297   2.082772   3.542190   4.609190
    13  O    5.785233   5.680433   1.022214   3.965839   5.152366
    14  H    6.329796   6.082437   1.600014   4.533745   5.729202
    15  H    4.626666   5.763498   2.335552   2.019789   3.036853
    16  O    5.943513   6.934060   2.936412   3.366388   4.256440
    17  H    6.139484   7.110219   3.368453   3.745117   4.533177
                   11         12         13         14         15
    11  O    0.000000
    12  H    2.600355   0.000000
    13  O    3.341137   1.582888   0.000000
    14  H    3.829642   2.196793   0.964847   0.000000
    15  H    1.047302   1.596982   2.531022   3.143117   0.000000
    16  O    2.334406   1.053870   2.613535   3.218809   1.414440
    17  H    2.940074   1.632405   3.040821   3.787293   2.031314
                   16         17
    16  O    0.000000
    17  H    0.965635   0.000000
 Stoichiometry    C3H7N3O4
 Framework group  C1[X(C3H7N3O4)]
 Deg. of freedom    45
 Full point group                 C1      NOp   1
 Largest Abelian subgroup         C1      NOp   1
 Largest concise Abelian subgroup C1      NOp   1
                         Standard orientation:                         
 ---------------------------------------------------------------------
 Center     Atomic      Atomic             Coordinates (Angstroms)
 Number     Number       Type             X           Y           Z
 ---------------------------------------------------------------------
      1          7           0        0.540549   -0.996300   -0.131925
      2          7           0        0.907165    0.293292   -0.036620
      3          6           0        2.241774    0.412820    0.177724
      4          6           0        2.687350   -0.878093    0.209324
      5          7           0        1.617978   -1.698566    0.016321
      6          1           0        2.733776    1.368241    0.280991
      7          1           0        3.687262   -1.257600    0.347776
      8          1           0       -0.959969   -1.692902   -0.221133
      9          6           0       -0.025880    1.439519   -0.152793
     10          8           0        0.439067    2.532825    0.014500
     11          8           0       -1.240990    1.203383   -0.526856
     12          1           0       -2.775661   -0.764843    0.203020
     13          8           0       -1.916174   -2.046833   -0.148149
     14          1           0       -2.118257   -2.497123   -0.977203
     15          1           0       -1.796729    0.477879   -0.015349
     16          8           0       -3.090346    0.200619    0.484975
     17          1           0       -3.182182    0.211923    1.446167
 ---------------------------------------------------------------------
 Rotational constants (GHZ):           1.6217569           1.0111574           0.6439909
 Standard basis: 6-31+G(d,p) (6D, 7F)
 There are   225 symmetry adapted cartesian basis functions of A   symmetry.
 There are   225 symmetry adapted basis functions of A   symmetry.
   225 basis functions,   369 primitive gaussians,   225 cartesian basis functions
    39 alpha electrons       39 beta electrons
       nuclear repulsion energy       558.8918212852 Hartrees.
 NAtoms=   17 NActive=   17 NUniq=   17 SFac= 1.00D+00 NAtFMM=   60 NAOKFM=F Big=F
 Integral buffers will be    131072 words long.
 Raffenetti 2 integral format.
 Two-electron integral symmetry is turned on.
 ------------------------------------------------------------------------------
 Polarizable Continuum Model (PCM)
 =================================
 Model                : PCM.
 Atomic radii         : SMD-Coulomb.
 Polarization charges : Total charges.
 Charge compensation  : None.
 Solution method      : On-the-fly selection.
 Cavity type          : VdW (van der Waals Surface) (Alpha=1.000).
 Cavity algorithm     : GePol (No added spheres)
                        Default sphere list used, NSphG=   17.
                        Lebedev-Laikov grids with approx.  5.0 points / Ang**2.
                        Smoothing algorithm: York/Karplus (Gamma=1.0000).
                        Polarization charges: spherical gaussians, with
                                              point-specific exponents (IZeta= 3).
                        Self-potential: point-specific (ISelfS= 7).
                        Self-field    : sphere-specific E.n sum rule (ISelfD= 2).
 1st derivatives      : Analytical E(r).r(x)/FMM algorithm (CHGder, D1EAlg=3).
                        Cavity 1st derivative terms included.
 Solvent              : Water, Eps=  78.355300 Eps(inf)=   1.777849
 ------------------------------------------------------------------------------
 Spheres list:
 ISph  on   Nord     Re0    Alpha      Xe            Ye            Ze
    1   N      1    1.8900  1.000      0.540549     -0.996300     -0.131925
    2   N      2    1.8900  1.000      0.907165      0.293292     -0.036620
    3   C      3    1.8500  1.000      2.241774      0.412820      0.177724
    4   C      4    1.8500  1.000      2.687350     -0.878093      0.209324
    5   N      5    1.8900  1.000      1.617978     -1.698566      0.016321
    6   H      6    1.2000  1.000      2.733776      1.368241      0.280991
    7   H      7    1.2000  1.000      3.687262     -1.257600      0.347776
    8   H      8    1.2000  1.000     -0.959969     -1.692902     -0.221133
    9   C      9    1.8500  1.000     -0.025880      1.439519     -0.152793
   10   O     10    1.5200  1.000      0.439067      2.532825      0.014500
   11   O     11    1.5200  1.000     -1.240990      1.203383     -0.526856
   12   H     12    1.2000  1.000     -2.775661     -0.764843      0.203020
   13   O     13    1.5200  1.000     -1.916174     -2.046833     -0.148149
   14   H     14    1.2000  1.000     -2.118257     -2.497123     -0.977203
   15   H     15    1.2000  1.000     -1.796729      0.477879     -0.015349
   16   O     16    1.5200  1.000     -3.090346      0.200619      0.484975
   17   H     17    1.2000  1.000     -3.182182      0.211923      1.446167
 ------------------------------------------------------------------------------
 ------------------------------------------------------------------------------
 Atomic radii for non-electrostatic terms: SMD-CDS.
 ------------------------------------------------------------------------------
 Nuclear repulsion after PCM non-electrostatic terms =      558.9002578043 Hartrees.
 One-electron integrals computed using PRISM.
 NBasis=   225 RedAO= T EigKep=  1.93D-05  NBF=   225
 NBsUse=   225 1.00D-06 EigRej= -1.00D+00 NBFU=   225
 Initial guess from the checkpoint file:  "/scratch/gongke2021/PC/Gau-21888.chk"
 B after Tr=    -0.000000   -0.000000    0.000000
         Rot=    0.999994    0.002188   -0.002609   -0.000854 Ang=   0.40 deg.
 ExpMin= 4.38D-02 ExpMax= 5.48D+03 ExpMxC= 8.25D+02 IAcc=2 IRadAn=         4 AccDes= 0.00D+00
 Harris functional with IExCor= 1009 and IRadAn=       4 diagonalized for initial guess.
 HarFok:  IExCor= 1009 AccDes= 0.00D+00 IRadAn=         4 IDoV= 1 UseB2=F ITyADJ=14
 ICtDFT=  3500011 ScaDFX=  1.000000  1.000000  1.000000  1.000000
 FoFCou: FMM=F IPFlag=           0 FMFlag=      100000 FMFlg1=           0
         NFxFlg=           0 DoJE=T BraDBF=F KetDBF=T FulRan=T
         wScrn=  0.000000 ICntrl=       500 IOpCl=  0 I1Cent=   200000004 NGrid=           0
         NMat0=    1 NMatS0=      1 NMatT0=    0 NMatD0=    1 NMtDS0=    0 NMtDT0=    0
 Petite list used in FoFCou.
 Requested convergence on RMS density matrix=1.00D-08 within 128 cycles.
 Requested convergence on MAX density matrix=1.00D-06.
 Requested convergence on             energy=1.00D-06.
 No special actions if energy rises.
 Inv3:  Mode=1 IEnd=     5435148.
 Iteration    1 A*A^-1 deviation from unit magnitude is 3.33D-15 for    580.
 Iteration    1 A*A^-1 deviation from orthogonality  is 1.78D-15 for   1241     92.
 Iteration    1 A^-1*A deviation from unit magnitude is 2.89D-15 for     70.
 Iteration    1 A^-1*A deviation from orthogonality  is 3.40D-15 for   1012    999.
 Error on total polarization charges =  0.04672
 SCF Done:  E(RM062X) =  -583.482349656     A.U. after   13 cycles
            NFock= 13  Conv=0.37D-08     -V/T= 2.0084
 SMD-CDS (non-electrostatic) energy       (kcal/mol) =       5.29
 (included in total energy above)
 D1PCM: PCM CHGder 1st derivatives, ID1Alg=3 FixD1E=F DoIter=F DoCFld=F I1PDM=0.
 Calling FoFJK, ICntrl=      2127 FMM=F ISym2X=0 I1Cent= 0 IOpClX= 0 NMat=1 NMatS=1 NMatT=0.
 ***** Axes restored to original set *****
 -------------------------------------------------------------------
 Center     Atomic                   Forces (Hartrees/Bohr)
 Number     Number              X              Y              Z
 -------------------------------------------------------------------
      1        7           0.019155794    0.008489625    0.001618849
      2        7          -0.019474699    0.019426841    0.000232521
      3        6          -0.002853941    0.001477852    0.000549432
      4        6          -0.002758713   -0.001524836   -0.001304203
      5        7          -0.003472482   -0.010775684   -0.000172197
      6        1          -0.001257114   -0.000350643   -0.000125473
      7        1          -0.000645519   -0.000723541   -0.000050089
      8        1          -0.021661072   -0.007793593    0.000380225
      9        6           0.010392089   -0.012220321   -0.006876456
     10        8           0.009294365    0.010562919    0.002635390
     11        8           0.017831076   -0.007985230   -0.001913803
     12        1          -0.016141429    0.016083293    0.013300807
     13        8           0.014290156    0.006681321    0.001625897
     14        1          -0.000393083    0.000216691   -0.002104139
     15        1          -0.009599497    0.021733060    0.000962229
     16        8           0.005569239   -0.040806882   -0.010695248
     17        1           0.001724830   -0.002490873    0.001936257
 -------------------------------------------------------------------
 Cartesian Forces:  Max     0.040806882 RMS     0.010952359

 GradGradGradGradGradGradGradGradGradGradGradGradGradGradGradGradGradGrad
 Berny optimization.
 Using GEDIIS/GDIIS optimizer.
 FormGI is forming the generalized inverse of G from B-inverse, IUseBI=4.
 Internal  Forces:  Max     0.038087103 RMS     0.006920816
 Search for a local minimum.
 Step number   3 out of a maximum of   92
[...]
   xx         0.112086D+03      0.166094D+02      0.184804D+02
   yx         0.150651D+02      0.223241D+01      0.248390D+01
   yy         0.766972D+02      0.113654D+02      0.126457D+02
   zx        -0.237154D+00     -0.351426D-01     -0.391014D-01
   zy        -0.126044D+02     -0.186778D+01     -0.207818D+01
   zz         0.119982D+03      0.177794D+02      0.197823D+02

 ----------------------------------------------------------------------
 1\1\GINC-NODE4\Freq\RM062X\6-31+G(d,p)\C3H7N3O4\GONGKE2021\11-Jul-2023
 \0\\#N Geom=AllCheck Guess=TCheck SCRF=Check GenChk RM062X/6-31+G(d,p)
  Freq\\test\\0,1\N,0.326907131,-0.7299350312,-0.0033205967\N,0.8506528
 418,0.5072946444,-0.047204092\C,2.1716210173,0.4848181557,0.2710268057
 \C,2.4274975569,-0.8342638592,0.5232833783\N,1.271561638,-1.5408324543
 ,0.3384350216\H,2.7755917568,1.3780295355,0.2962984197\H,3.3466667698,
 -1.3134047554,0.8202244035\H,-1.2065923959,-2.0149368572,-0.7686068183
 \C,0.0857312164,1.6666889054,-0.4254997121\O,0.6962608754,2.6699645239
 ,-0.7334683135\O,-1.1964070991,1.5370998276,-0.4210356068\H,-2.4945994
 439,-0.9771282082,0.3648586898\O,-2.0768640178,-2.3718118194,-0.527018
 9731\H,-2.5679925334,-2.451886824,-1.3560430791\H,-1.697416207,0.74489
 10302,0.1286409485\O,-2.5571312315,-0.079674253,0.7807282076\H,-2.2981
 301248,-0.1840008505,1.708045867\\Version=ES64L-G16RevA.03\State=1-A\H
 F=-583.5062575\RMSD=1.697e-09\RMSF=8.205e-06\ZeroPoint=0.1216277\Therm
 al=0.1333496\Dipole=0.3234668,-1.3236425,0.6737955\DipoleDeriv=-0.7858
 629,-0.2462274,-0.128955,-0.2487943,0.6913411,-0.1919564,-0.1319657,-0
 .244696,-0.1538752,-0.4706547,0.8314544,-0.1720838,0.8022237,-1.560067
 ,0.4659975,-0.2009855,0.4319441,-0.1418513,0.1301966,-0.5796441,0.1253
 558,-0.0009749,0.2730567,-0.0523744,0.0265185,-0.1468524,0.0016063,0.0
 39692,-0.1825886,0.0707879,-0.2349554,-0.3257473,-0.0230621,0.0707657,
 -0.0199279,-0.0946286,0.0481588,0.6761613,-0.0195483,0.08608,-0.556109
 3,0.0605777,0.06096,0.2062038,-0.322842,0.1934203,0.0142084,-0.0163341
 ,0.006714,0.1969481,0.00735,-0.0116548,0.0108147,0.2510766,0.1071781,0
 .0064332,-0.0322926,0.0344612,0.1382102,0.0208071,-0.0327918,0.0100867
 ,0.2243776,0.620363,0.1210887,0.0738418,0.1466823,0.5510127,0.0629092,
 0.1134539,0.0828393,0.3634425,3.2910801,0.1043351,-0.0802895,-0.153938
 9,3.2141681,-0.7949159,0.085158,-0.7697866,0.8614164,-1.1721479,-0.464
 536,0.1632805,-0.3565209,-1.9215,0.4171828,0.130985,0.3897652,-0.69358
 3,-2.4799344,-0.5257437,0.2911438,-0.5488532,-1.200953,0.3247601,0.286
 0089,0.334133,-0.7364323,0.4825573,-0.0601371,-0.0589965,-0.0578973,0.
 9759534,0.3830646,-0.0409261,0.3989823,0.6149449,-0.9289907,0.0162116,
 -0.0182049,-0.0125443,-1.1454383,-0.2081425,-0.0267164,-0.2360725,-0.7
 63865,0.424946,0.0000097,0.0211658,-0.0088495,0.446092,0.0212205,0.002
 8661,0.0213031,0.3450435,1.2283862,0.597319,-0.4390854,0.8685985,1.109
 528,-0.4763696,-0.6318581,-0.4877305,0.7716612,-1.1660003,-0.3052947,0
 .2548635,-0.3162988,-1.2687027,-0.0572927,0.3486027,0.0107311,-0.97227
 43,0.4376124,-0.0030497,-0.0346489,-0.0051323,0.3822072,0.0402442,-0.0
 484205,0.0082627,0.4457827\Polar=114.8202654,3.884466,122.4081606,5.93
 96743,-10.6631355,71.5359494\Quadrupole=8.8541692,-14.6144056,5.760236
 4,3.6165856,2.9810196,7.5182311\PG=C01 [X(C3H7N3O4)]\NImag=0\\0.629771
 17,-0.03721769,0.46871225,0.12857057,-0.05498348,0.16251204,-0.1624162
 4,-0.12345061,-0.00582756,0.73129587,-0.04921323,-0.18239274,0.0004978
 2,-0.05235571,0.68860694,-0.01436150,-0.01272135,-0.07318273,0.1408986
 7,-0.10952572,0.16913250,-0.07647282,-0.05865199,-0.01553584,-0.305196
 47,-0.00969010,-0.05598402,0.64812295,-0.01118491,-0.04642476,0.006715
 82,-0.01677828,-0.11463133,0.00525928,0.16002460,0.88772293,-0.0207007
 7,-0.00636643,0.01358588,-0.05674549,0.00741041,-0.07893123,0.10394331
 ,-0.06879543,0.16797698,-0.11329137,0.04477591,-0.04082108,-0.02624376
 ,0.00912231,-0.01108666,-0.13089086,0.07648822,-0.02548204,0.77351085,
 -0.03205506,0.01822886,-0.00774793,0.11010969,-0.03474422,0.03160550,0
 .03499181,-0.38944803,0.05597970,-0.15830574,0.70645896,-0.02928719,0.
 01280038,0.01569768,-0.02226006,0.00749280,0.00252552,-0.02073275,0.06
 508981,-0.08571203,0.17980288,-0.12062652,0.19839421,-0.27648919,0.168
 73533,-0.06716092,-0.04159874,0.07616738,-0.02534434,0.02700676,-0.096
 21281,0.01406416,-0.22292767,-0.07649924,-0.02614949,0.52158024,0.1097
 7144,-0.21382460,0.04205672,0.01967147,-0.14471448,0.02793745,-0.01031
 720,-0.05282902,0.00716905,-0.08634274,-0.18227268,-0.00651667,-0.0362
 2447,0.58250695,-0.05990655,0.05542513,-0.11800911,-0.01892199,0.04471
 034,0.01742817,0.00390581,-0.01384938,0.02147434,-0.02453332,-0.002995
 58,-0.07849522,0.10363557,-0.07234608,0.15119850,-0.00406345,0.0016840
 3,-0.00280401,-0.01270011,-0.02666276,0.00090009,-0.15210265,-0.144244
 76,-0.00920334,0.01212446,0.00597889,0.00167545,0.00151602,0.00475085,
 -0.00188510,0.15506778,0.00440395,0.00028910,0.00195242,0.00478398,0.0
 0974771,-0.00038039,-0.15492418,-0.28177342,-0.00341912,-0.01343703,-0
 .00375305,-0.00255552,-0.00167194,-0.00359790,0.00104922,0.15963474,0.
 28017672,-0.00303906,0.00111625,0.00530797,-0.00289169,-0.00829866,-0.
 00158335,-0.00818237,-0.00080905,-0.03299654,0.00454599,0.00239176,0.0
 0257889,-0.00112601,0.00274650,0.00572438,0.00997750,0.00327308,0.0246
 0050,-0.00270629,-0.00292471,-0.00229686,0.00100857,-0.00248326,-0.001
 00043,0.00546374,-0.00266661,0.00166630,-0.28315703,0.12140896,-0.0796
 6850,-0.01601940,0.01274809,-0.00415812,-0.00046687,0.00044816,0.00040
 583,0.29522873,-0.00631381,-0.00073306,-0.00031448,0.00045662,-0.00614
 478,0.00213800,0.02157207,-0.00093452,0.00551712,0.12732230,-0.1260398
 5,0.04498168,-0.01676857,0.01395399,-0.00703834,-0.00046720,0.00019764
 ,-0.00048595,-0.12688094,0.11872955,-0.00165615,0.00078456,0.00746252,
 -0.00148425,0.00085118,0.00614400,-0.00183596,-0.00047293,-0.00001164,
 -0.08054759,0.04339477,-0.05792261,0.00022204,0.00035216,-0.00632961,0
 .00053896,-0.00025906,-0.00221418,0.08519935,-0.04494459,0.05201345,-0
 .00556415,-0.00060021,-0.00048818,0.00091592,-0.00030413,0.00120950,0.
 00209495,0.00052625,0.00023200,0.00096766,0.00172744,-0.00022245,-0.00
 293903,0.00070700,-0.00092206,0.00016534,-0.00015890,-0.00011733,0.000
 08387,0.00006407,-0.00002436,0.42973834,-0.00311390,0.00016412,0.00073
 536,0.00074554,-0.00071211,0.00075071,0.00183286,0.00021208,0.00027020
 ,0.00162603,0.00132743,-0.00008916,-0.00118148,0.00087109,-0.00016934,
 0.00015655,-0.00014112,-0.00001246,0.00015532,0.00007944,-0.00001162,0
 .16332793,0.07271322,-0.00199651,0.00099003,-0.00206125,0.00144854,-0.
 00002991,0.00024067,0.00085748,0.00059363,0.00015570,0.00041728,0.0006
 0830,0.00012090,-0.00114628,0.00008000,-0.00046240,0.00011053,-0.00006
 253,0.00007590,0.00004997,0.00003284,0.00003069,-0.09945714,-0.0423179
 5,0.07422896,0.02186015,0.02115828,0.00482747,-0.14374719,0.02699733,-
 0.02220887,-0.02358616,0.03012389,-0.00759002,-0.01001671,-0.00991426,
 -0.00243853,0.01415884,-0.02149890,0.00454655,-0.00046655,-0.00113655,
 0.00037826,0.00044318,0.00035868,-0.00044559,0.00127382,0.00050589,0.0
 0042419,0.77252750,0.01159653,-0.05855758,0.01089561,0.02162165,-0.122
 14511,0.01713199,0.03287770,0.00005190,0.00498808,0.00017798,0.0196722
 5,-0.00164646,-0.02955093,0.01307958,-0.00840404,-0.00102067,-0.000745
 28,-0.00003853,0.00016998,0.00168852,0.00027464,-0.00220865,-0.0019886
 0,-0.00123467,0.22858677,0.73602344,0.00881422,0.01168471,-0.01542442,
 -0.02280007,0.01581903,-0.06476816,-0.00998799,0.00579483,-0.01000576,
 -0.00288958,-0.00490537,0.00300538,0.00544361,-0.00648252,0.01125042,0
 .00069113,-0.00010922,-0.00145306,-0.00028756,-0.00000449,0.00151700,0
 .00072327,0.00050621,0.00038231,-0.05603382,-0.16239002,0.27710190,-0.
 00105645,0.00116593,-0.00187794,0.01982102,0.00562694,-0.00119760,-0.0
 0345770,0.00126938,-0.00149539,0.00072905,-0.00219741,0.00022830,0.001
 95737,0.00228740,0.00085018,0.00074980,0.00173967,-0.00017400,-0.00000
 309,0.00000723,0.00000491,-0.00007777,0.00013461,0.00005949,-0.2278209
 4,-0.23805989,0.07399281,0.29318303,0.01125792,0.01570953,0.00341893,-
 0.00753694,-0.09280103,0.03065867,-0.01263837,0.00279464,-0.00213190,-
 0.00311026,-0.00664990,-0.00004010,0.01001735,-0.01216763,0.00258785,0
 .00013201,-0.00061359,0.00011267,0.00014138,-0.00026712,-0.00002921,0.
 00091901,0.00091013,0.00056364,-0.22947578,-0.48997009,0.12727266,0.29
 822252,0.59274366,-0.00611173,-0.00317875,0.00355581,0.00492929,0.0336
 7431,0.01034370,0.00239169,-0.00052837,0.00061121,0.00082353,0.0007788
 6,0.00045413,-0.00103539,0.00416533,-0.00284701,0.00006349,0.00055091,
 -0.00001080,-0.00003107,0.00005980,-0.00009739,-0.00030226,-0.00023731
 ,-0.00018919,0.06860595,0.12589727,-0.12311299,-0.09052113,-0.17092689
 ,0.08740279,-0.00264740,-0.01392939,0.00255016,-0.06213313,0.02525787,
 -0.01208752,0.01172830,0.00371349,0.00226658,-0.00049474,0.00666787,-0
 .00124156,-0.00881058,0.00560911,-0.00335202,0.00031918,0.00028350,0.0
 0022173,0.00019013,0.00078761,-0.00003914,-0.00104426,-0.00032644,-0.0
 0021269,-0.37160925,-0.00324055,-0.00948242,-0.08857848,-0.07272488,0.
 02232523,0.58235714,0.00130654,0.00002577,-0.00032021,0.03884299,0.002
 58137,0.00674089,-0.00219870,-0.00443547,0.00009537,0.00280022,-0.0008
 0492,0.00104879,0.00134994,0.00068467,0.00037142,0.00020803,0.00016769
 ,0.00004579,0.00000118,-0.00037333,0.00002253,0.00010442,0.00055018,0.
 00032420,-0.02348877,-0.09690319,0.01927732,-0.08034012,-0.01896393,0.
 00913939,0.11271046,0.26230308,-0.00050769,-0.00154725,0.00073619,-0.0
 1347765,0.00647604,0.01370379,0.00050118,0.00076762,0.00382708,0.00018
 808,0.00106937,-0.00055316,-0.00106514,0.00033255,-0.00063390,-0.00005
 177,-0.00008022,0.00002655,0.00016444,-0.00002683,-0.00060632,0.000218
 81,-0.00003255,-0.00016368,-0.00032996,0.01999022,-0.07580102,0.028369
 11,0.01185930,0.01896155,-0.05013119,-0.13004534,0.11585136,0.00038564
 ,-0.00088567,-0.00052139,-0.00012969,-0.00017444,0.00007857,0.00065772
 ,0.00001508,0.00017647,0.00052476,0.00049600,0.00015131,-0.00022088,0.
 00043299,-0.00013259,0.00003346,-0.00002966,0.00004037,0.00004908,0.00
 004531,0.00002922,-0.00391914,0.00586703,0.00486673,0.00057304,-0.0008
 6532,0.00050710,-0.00016848,0.00012877,-0.00021283,-0.00191464,-0.0005
 8284,0.00234028,0.03105486,-0.00023307,-0.00061198,-0.00097429,-0.0003
 1170,-0.00035338,0.00008175,-0.00015051,-0.00017220,0.00004320,0.00009
 662,-0.00007934,0.00013734,0.00037804,-0.00003376,0.00005262,-0.000027
 82,0.00000168,0.00001441,0.00000290,0.00000681,0.00002495,0.00500165,-
 0.00009874,-0.00094085,-0.00337364,-0.00017513,-0.00008649,0.00127667,
 0.00085884,-0.00018367,0.00433407,0.00436818,-0.00264628,-0.01353427,0
 .33117116,0.00060279,-0.00017784,-0.00067399,0.00000370,-0.00024080,0.
 00002607,-0.00028101,-0.00010056,-0.00001663,-0.00009969,-0.00017420,0
 .00005305,0.00023886,-0.00015725,-0.00002482,-0.00002684,0.00000649,0.
 00000563,-0.00001704,-0.00001405,0.00001291,0.00513434,-0.00294574,-0.
 00178545,-0.00274741,0.00013821,-0.00062786,0.00116777,0.00077437,0.00
 000532,0.00588671,0.00402507,-0.00446425,-0.00168379,0.12430751,0.1175
 4145,-0.00216103,-0.00402019,-0.00119786,-0.00099383,0.00038337,-0.000
 83293,-0.00114211,-0.00041122,-0.00017269,-0.00081637,-0.00085081,0.00
 002345,0.00096655,-0.00058114,0.00022770,-0.00012979,0.00011176,0.0000
 3574,-0.00008924,-0.00004291,0.00001049,-0.40509094,-0.16744582,0.1324
 9658,-0.00097102,0.00139815,-0.00048369,0.00012242,-0.00051076,0.00019
 834,0.00101606,0.00020786,-0.00038162,-0.00882314,-0.00328961,-0.00567
 477,0.57554444,-0.00187404,-0.00237568,-0.00120111,-0.00059626,0.00042
 703,-0.00040404,-0.00054625,-0.00013937,-0.00007808,-0.00062589,-0.000
 35822,0.00000414,-0.00003037,-0.00034056,-0.00006784,-0.00006652,0.000
 05920,0.00000361,-0.00006244,-0.00003795,0.00000323,-0.15970661,-0.071
 47064,0.05630104,0.00105087,0.00080851,-0.00003587,-0.00056376,-0.0007
 1478,0.00013480,-0.00194028,-0.00179935,0.00139152,-0.00412877,0.01353
 502,0.01739075,0.19584739,0.09646488,-0.00131983,-0.00244660,0.0002567
 7,-0.00083799,0.00010960,-0.00010634,-0.00028247,-0.00027741,-0.000040
 63,-0.00018108,-0.00017499,-0.00009721,0.00048961,0.00005806,0.0002184
 3,-0.00005983,0.00002599,-0.00004153,-0.00002686,-0.00000203,-0.000022
 39,0.08556526,0.04042030,-0.07833124,0.00076460,0.00049599,-0.00007991
 ,-0.00042283,-0.00050107,0.00011770,-0.00157371,-0.00140328,0.00115469
 ,-0.00498029,0.01692562,0.00602895,0.10328343,-0.01353170,0.48387250,-
 0.00029290,-0.00082724,-0.00009257,-0.00023956,0.00002788,-0.00001379,
 -0.00008842,-0.00009520,-0.00000867,-0.00003927,-0.00004660,-0.0000030
 0,0.00014967,-0.00001764,0.00006843,-0.00002035,0.00001007,-0.00000102
 ,-0.00000755,-0.00000261,-0.00000164,-0.01763237,-0.00128391,-0.037151
 25,-0.00017489,0.00010795,-0.00006972,0.00004946,-0.00001574,0.0000117
 6,0.00023646,0.00014481,-0.00011801,0.00194136,-0.00441252,-0.00094316
 ,-0.16015255,-0.03274264,-0.18526880,0.17707687,-0.00043817,-0.0005834
 3,0.00004072,-0.00018193,0.00002805,-0.00004287,-0.00010084,-0.0000585
 2,-0.00001972,-0.00008239,-0.00005846,-0.00003096,0.00012726,-0.000052
 91,0.00005429,-0.00001765,0.00000967,-0.00000731,-0.00000871,-0.000003
 84,-0.00000369,-0.00749353,-0.00151555,-0.01447711,-0.00007372,0.00013
 035,-0.00005077,-0.00000981,-0.00006906,0.00001807,-0.00002681,-0.0000
 8985,0.00010603,-0.00271308,0.00181027,-0.00131331,-0.02644161,-0.0104
 2946,-0.02003443,0.03647572,0.01280992,0.00019141,0.00050609,0.0000722
 1,0.00017198,0.00001215,0.00013920,0.00015819,0.00007271,0.00001803,0.
 00007425,0.00011554,-0.00000394,-0.00019373,0.00003568,-0.00006171,0.0
 0002236,-0.00001123,-0.00000410,0.00000950,0.00000202,0.00000122,0.010
 55422,0.00293823,0.00742531,0.00004711,-0.00019062,0.00007123,0.000019
 20,0.00008767,-0.00003334,-0.00002033,0.00005932,-0.00004167,-0.000552
 90,-0.00088513,-0.00259886,-0.23306181,-0.03927256,-0.40277644,0.22249
 057,0.03629589,0.39712141,-0.00141450,0.00379218,-0.00008411,0.0035066
 3,-0.00433651,0.00164133,-0.00206042,-0.00100098,-0.00063908,0.0007847
 4,-0.00131029,0.00065719,0.00247471,-0.00106709,0.00044268,-0.00004908
 ,-0.00012756,-0.00006548,0.00003787,-0.00011285,0.00010791,0.00094671,
 0.00030095,0.00013397,-0.05287591,-0.02109985,0.00913924,0.01273131,0.
 01060141,-0.00187678,-0.02130421,-0.01094153,0.00554242,0.00218281,-0.
 00587941,-0.00816262,-0.00108398,0.00286304,0.00229032,-0.00031705,0.0
 0010020,0.00001506,0.05910725,0.00247388,0.00417058,-0.00040679,0.0071
 0773,-0.00449124,0.00141586,-0.00342456,-0.00014725,-0.00090719,-0.000
 72832,-0.00238802,0.00000410,0.00246086,-0.00209839,0.00108633,-0.0000
 9168,-0.00005801,-0.00010102,-0.00006923,-0.00020525,-0.00000500,0.000
 74078,-0.00075594,-0.00061923,-0.04135777,0.00180429,-0.01139635,0.018
 67193,0.01505044,0.00030657,-0.01405668,-0.11115899,0.05872806,-0.0074
 3780,-0.01517258,-0.00160144,-0.00062199,0.00361099,0.00256316,-0.0003
 2639,0.00018607,-0.00011170,0.00776048,0.10267952,0.00044589,-0.002652
 81,0.00039972,-0.00408893,0.00194460,-0.00149127,0.00163663,0.00065885
 ,0.00018324,-0.00024821,0.00111445,-0.00010127,-0.00163021,0.00092083,
 -0.00082100,0.00006813,0.00004672,0.00000344,-0.00002090,0.00012931,0.
 00003047,-0.00061910,-0.00006085,0.00008895,0.02495735,-0.00973082,-0.
 00009856,-0.01503627,-0.00681874,0.00581342,0.00967612,0.06077922,-0.0
 6086196,-0.00596070,0.00390738,0.01070081,0.00095342,-0.00268600,-0.00
 236651,0.00027436,-0.00018960,0.00001518,0.00373451,-0.02628213,0.0708
 0240,-0.00367695,0.00143619,0.00304457,-0.00085606,0.00163538,-0.00055
 292,-0.00022121,0.00043888,-0.00037505,-0.00084293,-0.00033645,-0.0005
 7792,-0.00070011,-0.00002377,0.00026350,0.00002292,0.00007325,-0.00001
 548,-0.00005924,-0.00003499,-0.00008615,-0.00004985,-0.00127080,-0.000
 93035,0.01957452,0.00014781,0.00249251,-0.00766220,-0.00521905,0.00064
 771,-0.03399245,-0.03712632,0.02813131,-0.02188316,0.01923671,0.003534
 86,0.00387203,0.00240261,0.00241604,-0.00049529,0.00091162,0.00007116,
 -0.00855928,0.02501382,-0.02095403,0.10259100,0.00093726,-0.00179215,-
 0.00051001,-0.00198767,0.00166539,-0.00060152,0.00132666,0.00019352,0.
 00023504,0.00023942,0.00089561,-0.00004024,-0.00105736,0.00083819,-0.0
 0046373,0.00005271,0.00003068,0.00005291,0.00001888,0.00008048,0.00001
 974,-0.00241434,-0.00019273,0.00017421,0.02085071,-0.00233732,0.004890
 48,-0.00871880,-0.00559587,0.00024221,-0.04975179,-0.03385994,0.032884
 08,0.03463450,-0.34354415,-0.10302324,0.00510507,-0.02452488,-0.021578
 54,0.00305275,-0.00225724,0.00022251,0.01348117,0.00593778,-0.02636969
 ,-0.02445607,0.45699349,0.00049934,0.00049506,-0.00053213,0.00165622,-
 0.00109576,0.00048410,-0.00043520,-0.00017013,-0.00004656,0.00019946,-
 0.00029778,0.00014741,0.00073468,-0.00027824,0.00028014,-0.00001626,-0
 .00003903,-0.00001335,0.00002313,-0.00002175,0.00000594,-0.00156985,0.
 00049747,0.00044285,-0.01411641,0.00328089,-0.00191281,0.00654304,0.00
 360567,-0.00104069,0.03673771,0.03176258,-0.01288242,0.01149847,-0.145
 41995,-0.10855064,0.00449028,-0.01850980,-0.00863661,0.00096069,-0.000
 41995,0.00064222,-0.01356901,-0.02703091,-0.01489281,0.10722699,0.0812
 0732,0.62175021,0.00023580,-0.00024015,-0.00028446,-0.00029324,0.00000
 169,-0.00005760,0.00014441,-0.00000502,0.00006371,0.00007918,0.0001351
 9,0.00004286,-0.00010455,0.00009462,-0.00012867,-0.00000013,-0.0000032
 4,0.00000703,0.00000354,0.00000999,0.00000796,0.00013090,-0.00003035,0
 .00002944,0.00085757,-0.00063865,0.00023098,-0.00051835,-0.00018860,0.
 00009420,-0.00331813,-0.00299816,0.00060739,-0.00034359,0.00088588,0.0
 0306731,-0.00006750,0.00071992,0.00014443,0.00000638,-0.00002654,0.000
 00375,0.00589240,0.00388494,0.00681193,-0.04706175,0.00868691,-0.14086
 327,0.04435706,-0.00010364,-0.00000423,0.00014489,-0.00014055,0.000073
 93,-0.00004420,0.00001701,0.00001882,0.00000969,-0.00001662,0.00001357
 ,-0.00001343,-0.00003897,-0.00000253,-0.00000288,0.00000126,0.00000228
 ,-0.00000401,0.00000105,0.00000325,-0.00000165,-0.00023216,0.00004774,
 0.00001438,0.00068697,-0.00043653,0.00021587,-0.00051249,-0.00025424,0
 .00008747,-0.00336717,-0.00229197,0.00077368,-0.01126783,0.00848930,-0
 .03689398,0.00116246,-0.00271474,-0.00064868,-0.00004868,0.00014399,0.
 00012345,0.00697662,0.00303600,0.00528928,0.01717119,-0.05253086,0.072
 43429,-0.01028841,0.04640621,-0.00023723,0.00027229,0.00029683,0.00022
 728,0.00019258,-0.00010464,-0.00013667,0.00005071,-0.00007146,-0.00016
 220,-0.00013588,-0.00009177,0.00002296,-0.00007358,0.00011039,-0.00000
 049,0.00001146,-0.00000637,-0.00001120,-0.00000825,-0.00001407,0.00008
 532,-0.00024149,-0.00019903,0.00135913,0.00054227,-0.00004369,-0.00050
 965,-0.00049352,0.00006578,-0.00152367,-0.00192306,0.00174715,-0.00564
 403,0.00564188,-0.01563171,0.00008595,0.00055791,0.00084977,-0.0001341
 9,0.00007471,0.00001404,0.00069243,0.00435768,-0.00740424,-0.12433676,
 0.03265845,-0.47524486,0.13022301,-0.04148416,0.49572789\\0.00001134,-
 0.00000960,0.00000556,0.00000016,0.00000468,-0.00000135,-0.00000799,0.
 00000294,0.00001120,-0.00000187,-0.00000072,0.00000463,-0.00000600,-0.
 00000232,0.00001272,0.00000143,-0.00000231,0.00001413,-0.00000426,-0.0
 0000369,0.00001124,-0.00000128,0.00000292,-0.00001547,0.00000300,-0.00
 000500,0.00000044,0.00000608,0.00000143,0.00000477,0.00001258,0.000011
 68,0.00000640,-0.00000065,0.00000135,0.00000379,-0.00000649,0.00001193
 ,-0.00000144,0.00000963,-0.00000509,-0.00001690,-0.00001061,-0.0000144
 3,-0.00001099,-0.00000803,0.00000016,-0.00002188,0.00000295,0.00000607
 ,-0.00000686\\\@


 ONE THORN OF EXPERIENCE IS WORTH A WHOLE WILDERNESS OF
 WARNING....  LOWELL - AMONG MY BOOKS
 Job cpu time:       0 days  0 hours 35 minutes  8.6 seconds.
 Elapsed time:       0 days  0 hours  1 minutes 28.6 seconds.
 File lengths (MBytes):  RWF=    133 Int=      0 D2E=      0 Chk=     10 Scr=      1
 Normal termination of Gaussian 16 at Tue Jul 11 06:13:53 2023.
