 Entering Gaussian System, Link 0=/opt/soft/g16/g16
 Initial command:
 /opt/soft/g16/l1.exe "/scratch/gongke2021/TS/Gau-7915.inp" -scrdir="/scratch/gongke2021/TS/"
 Entering Link 1 = /opt/soft/g16/l1.exe PID=      7916.
  
 Copyright (c) 1988,1990,1992,1993,1995,1998,2003,2009,2016,
            Gaussian, Inc.  All Rights Reserved.
  
 This is part of the Gaussian(R) 16 program.  It is based on
 the Gaussian(R) 09 system (copyright 2009, Gaussian, Inc.),
 the Gaussian(R) 03 system (copyright 2003, Gaussian, Inc.),
 the Gaussian(R) 98 system (copyright 1998, Gaussian, Inc.),
 the Gaussian(R) 94 system (copyright 1995, Gaussian, Inc.),
 the Gaussian 92(TM) system (copyright 1992, Gaussian, Inc.),
 the Gaussian 90(TM) system (copyright 1990, Gaussian, Inc.),
 the Gaussian 88(TM) system (copyright 1988, Gaussian, Inc.),
 the Gaussian 86(TM) system (copyright 1986, Carnegie Mellon
 University), and the Gaussian 82(TM) system (copyright 1983,
 Carnegie Mellon University). Gaussian is a federally registered
 trademark of Gaussian, Inc.
  
 This software contains proprietary and confidential information,
 including trade secrets, belonging to Gaussian, Inc.
  
 This software is provided under written license and may be
 used, copied, transmitted, or stored only in accord with that
 written license.
  
 The following legend is applicable only to US Government
 contracts under FAR:
  
                    RESTRICTED RIGHTS LEGEND
  
 Use, reproduction and disclosure by the US Government is
 subject to restrictions as set forth in subparagraphs (a)
 and (c) of the Commercial Computer Software - Restricted
 Rights clause in FAR 52.227-19.
  
 Gaussian, Inc.
 340 Quinnipiac St., Bldg. 40, Wallingford CT 06492
  
  
 ---------------------------------------------------------------
 Warning -- This program may not be used in any manner that
 competes with the business of Gaussian, Inc. or will provide
 assistance to any competitor of Gaussian, Inc.  The licensee
 of this program is prohibited from giving any competitor of
 Gaussian, Inc. access to this program.  By using this program,
 the user acknowledges that Gaussian, Inc. is engaged in the
 business of creating and licensing software in the field of
 computational chemistry and represents and warrants to the
 licensee that it is not a competitor of Gaussian, Inc. and that
 it will not use this program in any manner prohibited above.
 ---------------------------------------------------------------
  

 Cite this work as:
 Gaussian 16, Revision A.03,
 M. J. Frisch, G. W. Trucks, H. B. Schlegel, G. E. Scuseria, 
 M. A. Robb, J. R. Cheeseman, G. Scalmani, V. Barone, 
 G. A. Petersson, H. Nakatsuji, X. Li, M. Caricato, A. V. Marenich, 
 J. Bloino, B. G. Janesko, R. Gomperts, B. Mennucci, H. P. Hratchian, 
 J. V. Ortiz, A. F. Izmaylov, J. L. Sonnenberg, D. Williams-Young, 
 F. Ding, F. Lipparini, F. Egidi, J. Goings, B. Peng, A. Petrone, 
 T. Henderson, D. Ranasinghe, V. G. Zakrzewski, J. Gao, N. Rega, 
 G. Zheng, W. Liang, M. Hada, M. Ehara, K. Toyota, R. Fukuda, 
 J. Hasegawa, M. Ishida, T. Nakajima, Y. Honda, O. Kitao, H. Nakai, 
 T. Vreven, K. Throssell, J. A. Montgomery, Jr., J. E. Peralta, 
 F. Ogliaro, M. J. Bearpark, J. J. Heyd, E. N. Brothers, K. N. Kudin, 
 V. N. Staroverov, T. A. Keith, R. Kobayashi, J. Normand, 
 K. Raghavachari, A. P. Rendell, J. C. Burant, S. S. Iyengar, 
 J. Tomasi, M. Cossi, J. M. Millam, M. Klene, C. Adamo, R. Cammi, 
 J. W. Ochterski, R. L. Martin, K. Morokuma, O. Farkas, 
 J. B. Foresman, and D. J. Fox, Gaussian, Inc., Wallingford CT, 2016.
 
 ******************************************
 Gaussian 16:  ES64L-G16RevA.03 25-Dec-2016
                12-Jul-2023 
 ******************************************
 %mem=10GB
 %nprocshared=24
 Will use up to   24 processors via shared memory.
 ----------------------------------------------------------------------
 # opt=(calcfc,ts,noeigentest) freq 6-31+g(d,p) scrf=(SMD,solvent=water
 ) integral=grid=ultrafine m062x
 ----------------------------------------------------------------------
 1/5=1,10=4,11=1,18=20,26=6,38=1/1,3;
 2/9=110,12=2,17=6,18=5,40=1/2;
 3/5=1,6=6,7=111,11=2,25=1,30=1,70=32201,71=2,72=1,74=-55,75=-5,140=1/1,2,3;
 4//1;
 5/5=2,38=5,53=1/2;
 8/6=4,10=90,11=11/1;
 11/6=1,8=1,9=11,15=111,16=1/1,2,10;
 10/6=1,13=1/2;
 6/7=2,8=2,9=2,10=2,28=1/1;
 7/10=1,18=20,25=1/1,2,3,16;
 1/5=1,10=4,11=1,18=20,26=6/3(2);
 2/9=110/2;
 99//99;
 2/9=110/2;
 3/5=1,6=6,7=111,11=2,25=1,30=1,70=32205,71=1,72=1,74=-55,75=-5/1,2,3;
 4/5=5,16=3,69=1/1;
 5/5=2,38=5,53=1/2;
 7//1,2,3,16;
 1/5=1,11=1,18=20,26=6/3(-5);
 2/9=110/2;
 6/7=2,8=2,9=2,10=2,19=2,28=1/1;
 99/9=1/99;
 ----
 test
 ----
 Symbolic Z-matrix:
 Charge = -1 Multiplicity = 2
 N                     0.28114  -0.98439  -0.06939 
 N                     0.81991   0.31213  -0.17903 
 C                     2.17316   0.18956   0.02684 
 C                     2.43302  -1.16162   0.07664 
 N                     1.31786  -1.90392  -0.0596 
 H                     2.79      1.06859   0.10327 
 H                     3.39328  -1.64541   0.19186 
 H                    -1.06534  -1.16845  -0.75773 
 C                     0.01173   1.51959  -0.05383 
 O                     0.66389   2.55918   0.04658 
 O                    -1.22953   1.30639  -0.09942 
 H                    -2.59234  -0.91543   0.12922 
 O                    -2.45288  -0.85342  -1.36846 
 H                    -2.12344   0.04956  -1.19307 
 H                    -1.73933   0.38578   0.77908 
 O                    -2.24432  -0.69308   1.58472 
 H                    -1.39297  -1.14898   1.52192 
 
 Add virtual bond connecting atoms H15        and O11        Dist= 2.59D+00.
 Add virtual bond connecting atoms O16        and H15        Dist= 2.72D+00.
 Add virtual bond connecting atoms O13        and H12        Dist= 2.84D+00.
 Add virtual bond connecting atoms O16        and H12        Dist= 2.86D+00.
 Add virtual bond connecting atoms H8         and N1         Dist= 2.88D+00.
 Add virtual bond connecting atoms H8         and O13        Dist= 2.93D+00.
 Add virtual bond connecting atoms H8         and H14        Dist= 3.16D+00.

 GradGradGradGradGradGradGradGradGradGradGradGradGradGradGradGradGradGrad
 Berny optimization.
 Initialization pass.
                           ----------------------------
                           !    Initial Parameters    !
                           ! (Angstroms and Degrees)  !
 --------------------------                            --------------------------
 ! Name  Definition              Value          Derivative Info.                !
 --------------------------------------------------------------------------------
 ! R1    R(1,2)                  1.4083         calculate D2E/DX2 analytically  !
 ! R2    R(1,5)                  1.3858         calculate D2E/DX2 analytically  !
 ! R3    R(1,8)                  1.5234         calculate D2E/DX2 analytically  !
 ! R4    R(2,3)                  1.3743         calculate D2E/DX2 analytically  !
 ! R5    R(2,9)                  1.4584         calculate D2E/DX2 analytically  !
 ! R6    R(3,4)                  1.3768         calculate D2E/DX2 analytically  !
 ! R7    R(3,6)                  1.0766         calculate D2E/DX2 analytically  !
 ! R8    R(4,5)                  1.3465         calculate D2E/DX2 analytically  !
 ! R9    R(4,7)                  1.0814         calculate D2E/DX2 analytically  !
 ! R10   R(8,13)                 1.5484         calculate D2E/DX2 analytically  !
 ! R11   R(8,14)                 1.6711         calculate D2E/DX2 analytically  !
 ! R12   R(9,10)                 1.2313         calculate D2E/DX2 analytically  !
 ! R13   R(9,11)                 1.2603         calculate D2E/DX2 analytically  !
 ! R14   R(11,15)                1.3708         calculate D2E/DX2 analytically  !
 ! R15   R(12,13)                1.5054         calculate D2E/DX2 analytically  !
 ! R16   R(12,16)                1.5129         calculate D2E/DX2 analytically  !
 ! R17   R(13,14)                0.9771         calculate D2E/DX2 analytically  !
 ! R18   R(15,16)                1.4381         calculate D2E/DX2 analytically  !
 ! R19   R(16,17)                0.9678         calculate D2E/DX2 analytically  !
 ! A1    A(2,1,5)              108.9793         calculate D2E/DX2 analytically  !
 ! A2    A(2,1,8)              114.469          calculate D2E/DX2 analytically  !
 ! A3    A(5,1,8)              125.7503         calculate D2E/DX2 analytically  !
 ! A4    A(1,2,3)              106.4357         calculate D2E/DX2 analytically  !
 ! A5    A(1,2,9)              122.9262         calculate D2E/DX2 analytically  !
 ! A6    A(3,2,9)              127.3492         calculate D2E/DX2 analytically  !
 ! A7    A(2,3,4)              106.1876         calculate D2E/DX2 analytically  !
 ! A8    A(2,3,6)              120.1321         calculate D2E/DX2 analytically  !
 ! A9    A(4,3,6)              133.6764         calculate D2E/DX2 analytically  !
 ! A10   A(3,4,5)              112.3979         calculate D2E/DX2 analytically  !
 ! A11   A(3,4,7)              127.6236         calculate D2E/DX2 analytically  !
 ! A12   A(5,4,7)              119.9708         calculate D2E/DX2 analytically  !
 ! A13   A(1,5,4)              104.7431         calculate D2E/DX2 analytically  !
 ! A14   A(1,8,13)             161.0314         calculate D2E/DX2 analytically  !
 ! A15   A(1,8,14)             126.1066         calculate D2E/DX2 analytically  !
 ! A16   A(2,9,10)             114.3633         calculate D2E/DX2 analytically  !
 ! A17   A(2,9,11)             113.7435         calculate D2E/DX2 analytically  !
 ! A18   A(10,9,11)            131.8701         calculate D2E/DX2 analytically  !
 ! A19   A(9,11,15)            117.175          calculate D2E/DX2 analytically  !
 ! A20   A(13,12,16)           158.389          calculate D2E/DX2 analytically  !
 ! A21   A(8,13,12)             71.4718         calculate D2E/DX2 analytically  !
 ! A22   A(12,13,14)            83.7261         calculate D2E/DX2 analytically  !
 ! A23   A(12,16,15)            69.6402         calculate D2E/DX2 analytically  !
 ! A24   A(12,16,17)            94.054          calculate D2E/DX2 analytically  !
 ! A25   A(15,16,17)            90.4666         calculate D2E/DX2 analytically  !
 ! A26   L(11,15,16,1,-1)      175.1386         calculate D2E/DX2 analytically  !
 ! A27   L(11,15,16,1,-2)      184.438          calculate D2E/DX2 analytically  !
 ! D1    D(5,1,2,3)            -11.4617         calculate D2E/DX2 analytically  !
 ! D2    D(5,1,2,9)           -172.2993         calculate D2E/DX2 analytically  !
 ! D3    D(8,1,2,3)           -158.1107         calculate D2E/DX2 analytically  !
 ! D4    D(8,1,2,9)             41.0517         calculate D2E/DX2 analytically  !
 ! D5    D(2,1,5,4)             10.4813         calculate D2E/DX2 analytically  !
 ! D6    D(8,1,5,4)            152.4153         calculate D2E/DX2 analytically  !
 ! D7    D(2,1,8,13)           -25.5603         calculate D2E/DX2 analytically  !
 ! D8    D(2,1,8,14)           -19.5073         calculate D2E/DX2 analytically  !
 ! D9    D(5,1,8,13)          -165.7249         calculate D2E/DX2 analytically  !
 ! D10   D(5,1,8,14)          -159.6719         calculate D2E/DX2 analytically  !
 ! D11   D(1,2,3,4)              7.6222         calculate D2E/DX2 analytically  !
 ! D12   D(1,2,3,6)           -172.9975         calculate D2E/DX2 analytically  !
 ! D13   D(9,2,3,4)            167.3434         calculate D2E/DX2 analytically  !
 ! D14   D(9,2,3,6)            -13.2763         calculate D2E/DX2 analytically  !
 ! D15   D(1,2,9,10)           168.5234         calculate D2E/DX2 analytically  !
 ! D16   D(1,2,9,11)           -13.0125         calculate D2E/DX2 analytically  !
 ! D17   D(3,2,9,10)            11.8544         calculate D2E/DX2 analytically  !
 ! D18   D(3,2,9,11)          -169.6815         calculate D2E/DX2 analytically  !
 ! D19   D(2,3,4,5)             -1.2241         calculate D2E/DX2 analytically  !
 ! D20   D(2,3,4,7)            177.7555         calculate D2E/DX2 analytically  !
 ! D21   D(6,3,4,5)            179.5169         calculate D2E/DX2 analytically  !
 ! D22   D(6,3,4,7)             -1.5035         calculate D2E/DX2 analytically  !
 ! D23   D(3,4,5,1)             -5.7719         calculate D2E/DX2 analytically  !
 ! D24   D(7,4,5,1)            175.1611         calculate D2E/DX2 analytically  !
 ! D25   D(1,8,13,12)          -78.3655         calculate D2E/DX2 analytically  !
 ! D26   D(2,9,11,15)           53.9852         calculate D2E/DX2 analytically  !
 ! D27   D(10,9,11,15)        -127.8938         calculate D2E/DX2 analytically  !
 ! D28   D(9,11,16,12)        -124.4366         calculate D2E/DX2 analytically  !
 ! D29   D(9,11,16,17)         -29.5115         calculate D2E/DX2 analytically  !
 ! D30   D(16,12,13,8)          41.8206         calculate D2E/DX2 analytically  !
 ! D31   D(16,12,13,14)        -39.0097         calculate D2E/DX2 analytically  !
 ! D32   D(13,12,16,15)         30.5664         calculate D2E/DX2 analytically  !
 ! D33   D(13,12,16,17)        -58.4255         calculate D2E/DX2 analytically  !
 --------------------------------------------------------------------------------
 Trust Radius=3.00D-01 FncErr=5.00D-06 GrdErr=5.00D-06 EigMax=2.50D+02 EigMin=1.00D-04
 Number of steps in this run=     89 maximum allowed number of steps=    102.
 Search for a saddle point of order  1.
 GradGradGradGradGradGradGradGradGradGradGradGradGradGradGradGradGradGrad

                          Input orientation:                          
 ---------------------------------------------------------------------
 Center     Atomic      Atomic             Coordinates (Angstroms)
 Number     Number       Type             X           Y           Z
 ---------------------------------------------------------------------
      1          7           0        0.281139   -0.984393   -0.069386
      2          7           0        0.819910    0.312133   -0.179029
      3          6           0        2.173164    0.189561    0.026844
      4          6           0        2.433016   -1.161624    0.076635
      5          7           0        1.317864   -1.903924   -0.059598
      6          1           0        2.789995    1.068587    0.103274
      7          1           0        3.393280   -1.645407    0.191860
      8          1           0       -1.065340   -1.168453   -0.757728
      9          6           0        0.011728    1.519594   -0.053825
     10          8           0        0.663894    2.559181    0.046582
     11          8           0       -1.229530    1.306392   -0.099420
     12          1           0       -2.592337   -0.915432    0.129224
     13          8           0       -2.452883   -0.853418   -1.368464
     14          1           0       -2.123443    0.049556   -1.193071
     15          1           0       -1.739329    0.385783    0.779081
     16          8           0       -2.244325   -0.693080    1.584715
     17          1           0       -1.392968   -1.148982    1.521920
 ---------------------------------------------------------------------
                    Distance matrix (angstroms):
                    1          2          3          4          5
     1  N    0.000000
     2  N    1.408288   0.000000
     3  C    2.228719   1.374301   0.000000
     4  C    2.164095   2.199872   1.376845   0.000000
     5  N    1.385796   2.274452   2.263115   1.346526   0.000000
     6  H    3.246367   2.129120   1.076573   2.258757   3.321072
     7  H    3.192274   3.254498   2.209756   1.081402   2.106517
     8  H    1.523384   2.466008   3.598286   3.596485   2.589974
     9  C    2.518487   1.458354   2.539154   3.615050   3.664219
    10  O    3.566072   2.263728   2.809517   4.120083   4.512013
    11  O    2.744216   2.279275   3.583515   4.419993   4.098406
    12  H    2.881157   3.639419   4.893005   5.031655   4.037629
    13  O    3.029791   3.672116   4.943177   5.104440   4.127375
    14  H    2.848462   3.124189   4.468627   4.882666   4.116241
    15  H    2.584487   2.733698   3.988981   4.505149   3.910572
    16  O    3.032966   3.675702   4.766574   4.936736   4.105983
    17  H    2.315595   3.150383   4.091973   4.089885   3.227963
                    6          7          8          9         10
     6  H    0.000000
     7  H    2.781648   0.000000
     8  H    4.539745   4.583503   0.000000
     9  C    2.819017   4.638155   2.980126   0.000000
    10  O    2.597189   5.014899   4.187173   1.231318   0.000000
    11  O    4.031652   5.492571   2.566162   1.260260   2.275050
    12  H    5.736419   6.030290   1.783935   3.569876   4.762647
    13  O    5.774763   6.102416   1.548393   3.665211   4.833476
    14  H    5.182741   5.935079   1.671123   2.831581   3.950216
    15  H    4.630088   5.551058   2.287290   2.246210   3.322002
    16  O    5.535568   5.884689   2.665150   3.559567   4.626099
    17  H    4.942403   4.992361   2.303153   3.402564   4.489741
                   11         12         13         14         15
    11  O    0.000000
    12  H    2.616491   0.000000
    13  O    2.787803   1.505445   0.000000
    14  H    1.890711   1.702800   0.977065   0.000000
    15  H    1.370832   1.686149   2.580064   2.037149   0.000000
    16  O    2.804284   1.512946   2.964873   2.877884   1.438059
    17  H    2.946916   1.852737   3.092749   3.056348   1.739908
                   16         17
    16  O    0.000000
    17  H    0.967780   0.000000
 Stoichiometry    C3H7N3O4(1-,2)
 Framework group  C1[X(C3H7N3O4)]
 Deg. of freedom    45
 Full point group                 C1      NOp   1
 Largest Abelian subgroup         C1      NOp   1
 Largest concise Abelian subgroup C1      NOp   1
                         Standard orientation:                         
 ---------------------------------------------------------------------
 Center     Atomic      Atomic             Coordinates (Angstroms)
 Number     Number       Type             X           Y           Z
 ---------------------------------------------------------------------
      1          7           0        0.287384   -0.988385   -0.077977
      2          7           0        0.821380    0.310787   -0.179345
      3          6           0        2.174913    0.192044    0.026939
      4          6           0        2.439789   -1.158434    0.068807
      5          7           0        1.327541   -1.904070   -0.072847
      6          1           0        2.788380    1.072897    0.109190
      7          1           0        3.401764   -1.639303    0.181933
      8          1           0       -1.057824   -1.173332   -0.768562
      9          6           0        0.008572    1.514436   -0.047555
     10          8           0        0.656752    2.555834    0.059671
     11          8           0       -1.231839    1.296866   -0.095492
     12          1           0       -2.586495   -0.931384    0.118597
     13          8           0       -2.446031   -0.859819   -1.378571
     14          1           0       -2.120125    0.043309   -1.197459
     15          1           0       -1.738911    0.369075    0.777011
     16          8           0       -2.240526   -0.716510    1.575697
     17          1           0       -1.387414   -1.168834    1.510882
 ---------------------------------------------------------------------
 Rotational constants (GHZ):           1.4655053           1.0452025           0.7472256
 Standard basis: 6-31+G(d,p) (6D, 7F)
 There are   225 symmetry adapted cartesian basis functions of A   symmetry.
 There are   225 symmetry adapted basis functions of A   symmetry.
   225 basis functions,   369 primitive gaussians,   225 cartesian basis functions
    40 alpha electrons       39 beta electrons
       nuclear repulsion energy       559.0601496120 Hartrees.
 NAtoms=   17 NActive=   17 NUniq=   17 SFac= 1.00D+00 NAtFMM=   60 NAOKFM=F Big=F
 Integral buffers will be    131072 words long.
 Raffenetti 2 integral format.
 Two-electron integral symmetry is turned on.
 Force inversion solution in PCM.
 ------------------------------------------------------------------------------
 Polarizable Continuum Model (PCM)
 =================================
 Model                : PCM.
 Atomic radii         : SMD-Coulomb.
 Polarization charges : Total charges.
 Charge compensation  : None.
 Solution method      : Matrix inversion.
 Cavity type          : VdW (van der Waals Surface) (Alpha=1.000).
 Cavity algorithm     : GePol (No added spheres)
                        Default sphere list used, NSphG=   17.
                        Lebedev-Laikov grids with approx.  5.0 points / Ang**2.
                        Smoothing algorithm: York/Karplus (Gamma=1.0000).
                        Polarization charges: spherical gaussians, with
                                              point-specific exponents (IZeta= 3).
                        Self-potential: point-specific (ISelfS= 7).
                        Self-field    : sphere-specific E.n sum rule (ISelfD= 2).
 1st derivatives      : Analytical E(r).r(x)/FMM algorithm (CHGder, D1EAlg=3).
                        Cavity 1st derivative terms included.
 2nd derivatives      : Analytical E(r).r(xy)/FMM algorithm (CHGder, D2EAlg=3).
                        Cavity 2nd derivative terms included.
 Solvent              : Water, Eps=  78.355300 Eps(inf)=   1.777849
 ------------------------------------------------------------------------------
 Spheres list:
 ISph  on   Nord     Re0    Alpha      Xe            Ye            Ze
    1   N      1    1.8900  1.000      0.287384     -0.988385     -0.077977
    2   N      2    1.8900  1.000      0.821380      0.310787     -0.179345
    3   C      3    1.8500  1.000      2.174913      0.192044      0.026939
    4   C      4    1.8500  1.000      2.439789     -1.158434      0.068807
    5   N      5    1.8900  1.000      1.327541     -1.904070     -0.072847
    6   H      6    1.2000  1.000      2.788380      1.072897      0.109190
    7   H      7    1.2000  1.000      3.401764     -1.639303      0.181933
    8   H      8    1.2000  1.000     -1.057824     -1.173332     -0.768562
    9   C      9    1.8500  1.000      0.008572      1.514436     -0.047555
   10   O     10    1.5200  1.000      0.656752      2.555834      0.059671
   11   O     11    1.5200  1.000     -1.231839      1.296866     -0.095492
   12   H     12    1.2000  1.000     -2.586495     -0.931384      0.118597
   13   O     13    1.5200  1.000     -2.446031     -0.859819     -1.378571
   14   H     14    1.2000  1.000     -2.120125      0.043309     -1.197459
   15   H     15    1.2000  1.000     -1.738911      0.369075      0.777011
   16   O     16    1.5200  1.000     -2.240526     -0.716510      1.575697
   17   H     17    1.2000  1.000     -1.387414     -1.168834      1.510882
 ------------------------------------------------------------------------------
 ------------------------------------------------------------------------------
 Atomic radii for non-electrostatic terms: SMD-CDS.
 ------------------------------------------------------------------------------
 Nuclear repulsion after PCM non-electrostatic terms =      559.0674534364 Hartrees.
 One-electron integrals computed using PRISM.
 NBasis=   225 RedAO= T EigKep=  2.75D-05  NBF=   225
 NBsUse=   225 1.00D-06 EigRej= -1.00D+00 NBFU=   225
 ExpMin= 4.38D-02 ExpMax= 5.48D+03 ExpMxC= 8.25D+02 IAcc=3 IRadAn=         5 AccDes= 0.00D+00
 Harris functional with IExCor= 1009 and IRadAn=       5 diagonalized for initial guess.
 HarFok:  IExCor= 1009 AccDes= 0.00D+00 IRadAn=         5 IDoV= 1 UseB2=F ITyADJ=14
 ICtDFT=  3500011 ScaDFX=  1.000000  1.000000  1.000000  1.000000
 FoFCou: FMM=F IPFlag=           0 FMFlag=      100000 FMFlg1=           0
         NFxFlg=           0 DoJE=T BraDBF=F KetDBF=T FulRan=T
         wScrn=  0.000000 ICntrl=       500 IOpCl=  0 I1Cent=   200000004 NGrid=           0
         NMat0=    1 NMatS0=      1 NMatT0=    0 NMatD0=    1 NMtDS0=    0 NMtDT0=    0
 Petite list used in FoFCou.
 Initial guess <Sx>= 0.0000 <Sy>= 0.0000 <Sz>= 0.5000 <S**2>= 0.7500 S= 0.5000
 Requested convergence on RMS density matrix=1.00D-08 within 128 cycles.
 Requested convergence on MAX density matrix=1.00D-06.
 Requested convergence on             energy=1.00D-06.
 No special actions if energy rises.
 Inv3:  Mode=1 IEnd=     5046627.
 Iteration    1 A*A^-1 deviation from unit magnitude is 3.11D-15 for    227.
 Iteration    1 A*A^-1 deviation from orthogonality  is 1.53D-15 for    574    553.
 Iteration    1 A^-1*A deviation from unit magnitude is 2.89D-15 for    247.
 Iteration    1 A^-1*A deviation from orthogonality  is 1.98D-15 for    553     33.
 Error on total polarization charges =  0.06268
 SCF Done:  E(UM062X) =  -583.440074306     A.U. after   19 cycles
            NFock= 19  Conv=0.36D-08     -V/T= 2.0098
 <Sx>= 0.0000 <Sy>= 0.0000 <Sz>= 0.5000 <S**2>= 0.7635 S= 0.5067
 <L.S>=  0.00000000000    
 SMD-CDS (non-electrostatic) energy       (kcal/mol) =       4.58
 (included in total energy above)
 Annihilation of the first spin contaminant:
 S**2 before annihilation     0.7635,   after     0.7501
 DoSCS=F DFT=T ScalE2(SS,OS)=  1.000000  1.000000
 Range of M.O.s used for correlation:     1   225
 NBasis=   225 NAE=    40 NBE=    39 NFC=     0 NFV=     0
 NROrb=    225 NOA=    40 NOB=    39 NVA=   185 NVB=   186

 **** Warning!!: The largest alpha MO coefficient is  0.41855077D+02


 **** Warning!!: The largest beta MO coefficient is  0.41219626D+02

 Symmetrizing basis deriv contribution to polar:
 IMax=3 JMax=2 DiffMx= 0.00D+00
 G2DrvN: will do    18 centers at a time, making    1 passes.
 Calling FoFCou, ICntrl=  3107 FMM=F I1Cent=   0 AccDes= 0.00D+00.
 NEqPCM:  Using equilibrium solvation (IEInf=0, Eps=  78.3553, EpsInf=   1.7778)
 G2PCM: DoFxE=T DoFxN=T DoGrad=T DoDP/DQ/DG/TGxP=FFFF NFrqRd=   0 IEInf=0 SqF1=F DoCFld=F IF1Alg=4.
 End of G2Drv F.D. properties file   721 does not exist.
 End of G2Drv F.D. properties file   722 does not exist.
 End of G2Drv F.D. properties file   788 does not exist.
          IDoAtm=11111111111111111
 NEqPCM:  Using equilibrium solvation (IEInf=0, Eps=  78.3553, EpsInf=   1.7778)
          Differentiating once with respect to nuclear coordinates.
 Keep R1 and R2 ints in memory in canonical form, NReq=671703128.
          There are    54 degrees of freedom in the 1st order CPHF.  IDoFFX=6 NUNeed=     0.
     48 vectors produced by pass  0 Test12= 2.71D-14 1.85D-09 XBig12= 2.94D-01 1.14D-01.
 AX will form    48 AO Fock derivatives at one time.
     48 vectors produced by pass  1 Test12= 2.71D-14 1.85D-09 XBig12= 3.30D-02 4.36D-02.
     48 vectors produced by pass  2 Test12= 2.71D-14 1.85D-09 XBig12= 1.40D-03 6.98D-03.
     48 vectors produced by pass  3 Test12= 2.71D-14 1.85D-09 XBig12= 2.56D-05 7.23D-04.
     48 vectors produced by pass  4 Test12= 2.71D-14 1.85D-09 XBig12= 3.42D-07 6.18D-05.
     48 vectors produced by pass  5 Test12= 2.71D-14 1.85D-09 XBig12= 3.95D-09 6.03D-06.
     48 vectors produced by pass  6 Test12= 2.71D-14 1.85D-09 XBig12= 4.46D-11 5.04D-07.
     34 vectors produced by pass  7 Test12= 2.71D-14 1.85D-09 XBig12= 3.29D-13 4.18D-08.
      7 vectors produced by pass  8 Test12= 2.71D-14 1.85D-09 XBig12= 2.34D-15 3.51D-09.
 InvSVY:  IOpt=1 It=  1 EMax= 4.44D-16
 Solved reduced A of dimension   377 with    54 vectors.
 End of Minotr F.D. properties file   721 does not exist.
 End of Minotr F.D. properties file   722 does not exist.
 End of Minotr F.D. properties file   788 does not exist.

 **********************************************************************

            Population analysis using the SCF density.

 **********************************************************************

 Orbital symmetries:
 Alpha Orbitals:
       Occupied  (A) (A) (A) (A) (A) (A) (A) (A) (A) (A) (A) (A)
                 (A) (A) (A) (A) (A) (A) (A) (A) (A) (A) (A) (A)
                 (A) (A) (A) (A) (A) (A) (A) (A) (A) (A) (A) (A)
                 (A) (A) (A) (A)
       Virtual   (A) (A) (A) (A) (A) (A) (A) (A) (A) (A) (A) (A)
                 (A) (A) (A) (A) (A) (A) (A) (A) (A) (A) (A) (A)
                 (A) (A) (A) (A) (A) (A) (A) (A) (A) (A) (A) (A)
                 (A) (A) (A) (A) (A) (A) (A) (A) (A) (A) (A) (A)
                 (A) (A) (A) (A) (A) (A) (A) (A) (A) (A) (A) (A)
                 (A) (A) (A) (A) (A) (A) (A) (A) (A) (A) (A) (A)
                 (A) (A) (A) (A) (A) (A) (A) (A) (A) (A) (A) (A)
                 (A) (A) (A) (A) (A) (A) (A) (A) (A) (A) (A) (A)
                 (A) (A) (A) (A) (A) (A) (A) (A) (A) (A) (A) (A)
                 (A) (A) (A) (A) (A) (A) (A) (A) (A) (A) (A) (A)
                 (A) (A) (A) (A) (A) (A) (A) (A) (A) (A) (A) (A)
                 (A) (A) (A) (A) (A) (A) (A) (A) (A) (A) (A) (A)
                 (A) (A) (A) (A) (A) (A) (A) (A) (A) (A) (A) (A)
                 (A) (A) (A) (A) (A) (A) (A) (A) (A) (A) (A) (A)
                 (A) (A) (A) (A) (A) (A) (A) (A) (A) (A) (A) (A)
                 (A) (A) (A) (A) (A)
 Beta  Orbitals:
       Occupied  (A) (A) (A) (A) (A) (A) (A) (A) (A) (A) (A) (A)
                 (A) (A) (A) (A) (A) (A) (A) (A) (A) (A) (A) (A)
                 (A) (A) (A) (A) (A) (A) (A) (A) (A) (A) (A) (A)
                 (A) (A) (A)
       Virtual   (A) (A) (A) (A) (A) (A) (A) (A) (A) (A) (A) (A)
                 (A) (A) (A) (A) (A) (A) (A) (A) (A) (A) (A) (A)
                 (A) (A) (A) (A) (A) (A) (A) (A) (A) (A) (A) (A)
                 (A) (A) (A) (A) (A) (A) (A) (A) (A) (A) (A) (A)
                 (A) (A) (A) (A) (A) (A) (A) (A) (A) (A) (A) (A)
                 (A) (A) (A) (A) (A) (A) (A) (A) (A) (A) (A) (A)
                 (A) (A) (A) (A) (A) (A) (A) (A) (A) (A) (A) (A)
                 (A) (A) (A) (A) (A) (A) (A) (A) (A) (A) (A) (A)
                 (A) (A) (A) (A) (A) (A) (A) (A) (A) (A) (A) (A)
                 (A) (A) (A) (A) (A) (A) (A) (A) (A) (A) (A) (A)
                 (A) (A) (A) (A) (A) (A) (A) (A) (A) (A) (A) (A)
                 (A) (A) (A) (A) (A) (A) (A) (A) (A) (A) (A) (A)
                 (A) (A) (A) (A) (A) (A) (A) (A) (A) (A) (A) (A)
                 (A) (A) (A) (A) (A) (A) (A) (A) (A) (A) (A) (A)
                 (A) (A) (A) (A) (A) (A) (A) (A) (A) (A) (A) (A)
                 (A) (A) (A) (A) (A) (A)
 The electronic state is 2-A.
 Alpha  occ. eigenvalues --  -19.66819 -19.66797 -19.66014 -19.63176 -14.83346
 Alpha  occ. eigenvalues --  -14.82717 -14.77653 -10.71272 -10.57000 -10.56810
 Alpha  occ. eigenvalues --   -1.23173  -1.16378  -1.13418  -1.10132  -1.08404
 Alpha  occ. eigenvalues --   -0.99327  -0.88616  -0.76185  -0.68329  -0.65457
 Alpha  occ. eigenvalues --   -0.63953  -0.57770  -0.55431  -0.54340  -0.53453
 Alpha  occ. eigenvalues --   -0.51721  -0.50944  -0.50436  -0.49229  -0.46580
 Alpha  occ. eigenvalues --   -0.45611  -0.40220  -0.39098  -0.38709  -0.38267
 Alpha  occ. eigenvalues --   -0.37939  -0.37307  -0.35368  -0.32993  -0.16628
 Alpha virt. eigenvalues --    0.01588   0.03898   0.04406   0.05155   0.05302
 Alpha virt. eigenvalues --    0.05993   0.06861   0.08150   0.08575   0.09860
 Alpha virt. eigenvalues --    0.10202   0.10600   0.12313   0.12901   0.13924
 Alpha virt. eigenvalues --    0.15093   0.15732   0.16912   0.16970   0.17849
 Alpha virt. eigenvalues --    0.17924   0.18672   0.20729   0.21101   0.21601
 Alpha virt. eigenvalues --    0.21907   0.22939   0.23919   0.24328   0.24925
 Alpha virt. eigenvalues --    0.25194   0.25894   0.26992   0.27257   0.27742
 Alpha virt. eigenvalues --    0.28560   0.29072   0.29611   0.30333   0.31629
 Alpha virt. eigenvalues --    0.32159   0.32852   0.34250   0.34681   0.37026
 Alpha virt. eigenvalues --    0.37580   0.39296   0.39579   0.40589   0.41763
 Alpha virt. eigenvalues --    0.45141   0.48020   0.49048   0.49392   0.50958
 Alpha virt. eigenvalues --    0.56678   0.65242   0.73272   0.75287   0.78432
 Alpha virt. eigenvalues --    0.82265   0.82884   0.87934   0.88273   0.91710
 Alpha virt. eigenvalues --    0.95126   0.96646   0.97957   0.99469   1.00812
 Alpha virt. eigenvalues --    1.01454   1.03292   1.04477   1.06999   1.08246
 Alpha virt. eigenvalues --    1.10424   1.12719   1.13562   1.15624   1.16557
 Alpha virt. eigenvalues --    1.19776   1.21222   1.22226   1.24131   1.25364
 Alpha virt. eigenvalues --    1.26533   1.28862   1.29616   1.30383   1.32972
 Alpha virt. eigenvalues --    1.34225   1.34767   1.36213   1.36744   1.40204
 Alpha virt. eigenvalues --    1.41626   1.42159   1.42590   1.43227   1.46541
 Alpha virt. eigenvalues --    1.47703   1.49410   1.51050   1.52647   1.54427
 Alpha virt. eigenvalues --    1.57542   1.58807   1.61301   1.62366   1.65341
 Alpha virt. eigenvalues --    1.67406   1.67888   1.70108   1.73482   1.78159
 Alpha virt. eigenvalues --    1.80576   1.82887   1.84594   1.86812   1.87872
 Alpha virt. eigenvalues --    1.92707   1.94042   1.94830   1.96953   2.00778
 Alpha virt. eigenvalues --    2.03398   2.04098   2.06949   2.10588   2.14081
 Alpha virt. eigenvalues --    2.15690   2.17054   2.18688   2.21385   2.24752
 Alpha virt. eigenvalues --    2.26597   2.28960   2.29902   2.31656   2.33065
 Alpha virt. eigenvalues --    2.34532   2.38628   2.40549   2.43488   2.47512
 Alpha virt. eigenvalues --    2.48717   2.54466   2.55184   2.56792   2.57591
 Alpha virt. eigenvalues --    2.59752   2.63244   2.69167   2.71170   2.74177
 Alpha virt. eigenvalues --    2.75493   2.76929   2.81639   2.85418   2.88187
 Alpha virt. eigenvalues --    2.90767   2.92172   2.97334   3.06325   3.08983
 Alpha virt. eigenvalues --    3.13335   3.20733   3.23749   3.27958   3.34412
 Alpha virt. eigenvalues --    3.36828   3.50351   3.64199   3.67774   3.75124
 Alpha virt. eigenvalues --    4.03196   4.04994   4.20211   4.26055   4.30744
 Alpha virt. eigenvalues --    4.34993   4.48172   4.57992   4.69432   4.73728
  Beta  occ. eigenvalues --  -19.66794 -19.66776 -19.65986 -19.63043 -14.83123
  Beta  occ. eigenvalues --  -14.82264 -14.77192 -10.71225 -10.56940 -10.56782
  Beta  occ. eigenvalues --   -1.22827  -1.15365  -1.13127  -1.10037  -1.08311
  Beta  occ. eigenvalues --   -0.98080  -0.87683  -0.75020  -0.67806  -0.65083
  Beta  occ. eigenvalues --   -0.63304  -0.56646  -0.55023  -0.54104  -0.53047
  Beta  occ. eigenvalues --   -0.51354  -0.50641  -0.49155  -0.48788  -0.46151
  Beta  occ. eigenvalues --   -0.44991  -0.39858  -0.38417  -0.37898  -0.37820
  Beta  occ. eigenvalues --   -0.37551  -0.34882  -0.33453  -0.29941
  Beta virt. eigenvalues --   -0.01046   0.01502   0.03757   0.04260   0.04961
  Beta virt. eigenvalues --    0.05789   0.06126   0.07105   0.08049   0.08996
  Beta virt. eigenvalues --    0.09731   0.10180   0.11092   0.12192   0.12703
  Beta virt. eigenvalues --    0.13846   0.14993   0.15751   0.16561   0.16942
  Beta virt. eigenvalues --    0.17376   0.18050   0.18735   0.20597   0.21109
  Beta virt. eigenvalues --    0.21462   0.22089   0.22866   0.24121   0.24391
  Beta virt. eigenvalues --    0.24746   0.25177   0.25945   0.26884   0.27336
  Beta virt. eigenvalues --    0.27919   0.28588   0.29074   0.29631   0.30274
  Beta virt. eigenvalues --    0.31686   0.32097   0.32805   0.34093   0.34749
  Beta virt. eigenvalues --    0.36930   0.37451   0.39060   0.39761   0.40339
  Beta virt. eigenvalues --    0.41969   0.45108   0.48149   0.49066   0.49601
  Beta virt. eigenvalues --    0.51158   0.56754   0.65516   0.73377   0.75040
  Beta virt. eigenvalues --    0.79436   0.82534   0.83119   0.88055   0.88494
  Beta virt. eigenvalues --    0.91895   0.95738   0.96882   0.98671   0.99618
  Beta virt. eigenvalues --    1.01307   1.03345   1.04091   1.04705   1.07375
  Beta virt. eigenvalues --    1.08801   1.10783   1.12989   1.13643   1.15466
  Beta virt. eigenvalues --    1.16719   1.19860   1.21376   1.22305   1.24291
  Beta virt. eigenvalues --    1.25519   1.26730   1.29099   1.29812   1.30574
  Beta virt. eigenvalues --    1.33361   1.34555   1.34983   1.36426   1.36850
  Beta virt. eigenvalues --    1.40224   1.41898   1.42648   1.42965   1.43367
  Beta virt. eigenvalues --    1.46741   1.47983   1.49902   1.51596   1.52928
  Beta virt. eigenvalues --    1.55181   1.57886   1.59068   1.61787   1.62415
  Beta virt. eigenvalues --    1.65405   1.67584   1.68000   1.70255   1.73547
  Beta virt. eigenvalues --    1.78414   1.80674   1.83129   1.84737   1.86999
  Beta virt. eigenvalues --    1.88175   1.92912   1.94398   1.95056   1.97048
  Beta virt. eigenvalues --    2.01212   2.03631   2.04448   2.07100   2.11112
  Beta virt. eigenvalues --    2.14611   2.15790   2.17276   2.19082   2.21527
  Beta virt. eigenvalues --    2.25269   2.27184   2.29157   2.30258   2.32031
  Beta virt. eigenvalues --    2.33283   2.35062   2.38994   2.40843   2.43586
  Beta virt. eigenvalues --    2.47895   2.48998   2.54757   2.55400   2.57195
  Beta virt. eigenvalues --    2.57971   2.60299   2.63681   2.69420   2.71364
  Beta virt. eigenvalues --    2.74305   2.76188   2.77197   2.82019   2.85847
  Beta virt. eigenvalues --    2.88671   2.91317   2.92488   2.97748   3.06515
  Beta virt. eigenvalues --    3.09358   3.13567   3.20879   3.23980   3.28352
  Beta virt. eigenvalues --    3.34643   3.36949   3.50354   3.64217   3.67807
  Beta virt. eigenvalues --    3.75638   4.03508   4.05076   4.20244   4.26127
  Beta virt. eigenvalues --    4.30884   4.35115   4.47960   4.58740   4.69768
  Beta virt. eigenvalues --    4.74344
          Condensed to atoms (all electrons):
               1          2          3          4          5          6
     1  N   10.309739  -0.566544  -0.564183   0.651434  -2.546829   0.006259
     2  N   -0.566544   8.081606   0.137748  -0.066509  -0.192989  -0.045652
     3  C   -0.564183   0.137748   6.409588  -0.378610   0.350335   0.429040
     4  C    0.651434  -0.066509  -0.378610   5.970352  -0.348782  -0.038607
     5  N   -2.546829  -0.192989   0.350335  -0.348782  10.073506  -0.000441
     6  H    0.006259  -0.045652   0.429040  -0.038607  -0.000441   0.436356
     7  H    0.011641  -0.008634  -0.007408   0.379903  -0.049421   0.000373
     8  H    0.057596   0.031880   0.025941  -0.015473   0.059703  -0.000015
     9  C   -0.012384   0.130295  -0.256203  -0.002986   0.137724  -0.012777
    10  O    0.010400  -0.148949  -0.043693   0.040442   0.004707  -0.001233
    11  O   -0.010028  -0.177093   0.074860  -0.013409   0.009881  -0.000474
    12  H    0.017125  -0.004723  -0.000135  -0.003172   0.028024   0.000000
    13  O   -0.064658   0.009374   0.000064   0.003871  -0.017551   0.000013
    14  H    0.007799  -0.004484   0.002333  -0.000274   0.003730   0.000000
    15  H    0.091952  -0.068515  -0.010183   0.000986   0.023982  -0.000005
    16  O   -0.010242   0.005749  -0.009636   0.008955  -0.024301   0.000011
    17  H    0.024404  -0.021747   0.000013  -0.001766   0.029670  -0.000002
               7          8          9         10         11         12
     1  N    0.011641   0.057596  -0.012384   0.010400  -0.010028   0.017125
     2  N   -0.008634   0.031880   0.130295  -0.148949  -0.177093  -0.004723
     3  C   -0.007408   0.025941  -0.256203  -0.043693   0.074860  -0.000135
     4  C    0.379903  -0.015473  -0.002986   0.040442  -0.013409  -0.003172
     5  N   -0.049421   0.059703   0.137724   0.004707   0.009881   0.028024
     6  H    0.000373  -0.000015  -0.012777  -0.001233  -0.000474   0.000000
     7  H    0.467000  -0.000015  -0.000816  -0.000105   0.000013   0.000000
     8  H   -0.000015   0.404366  -0.017877   0.000453   0.010241   0.000928
     9  C   -0.000816  -0.017877   4.598510   0.452549   0.147700  -0.003038
    10  O   -0.000105   0.000453   0.452549   8.463449  -0.099600   0.000702
    11  O    0.000013   0.010241   0.147700  -0.099600   8.747840   0.007836
    12  H    0.000000   0.000928  -0.003038   0.000702   0.007836   0.402367
    13  O    0.000011   0.081350   0.002317  -0.001228   0.006129   0.104825
    14  H   -0.000000  -0.007939  -0.005824   0.000661   0.020176  -0.007701
    15  H    0.000000  -0.008790   0.014513   0.000427   0.063148   0.005339
    16  O    0.000010  -0.000001   0.017244  -0.002118  -0.050212   0.085799
    17  H    0.000000  -0.004601   0.004297   0.000164  -0.004912  -0.008736
              13         14         15         16         17
     1  N   -0.064658   0.007799   0.091952  -0.010242   0.024404
     2  N    0.009374  -0.004484  -0.068515   0.005749  -0.021747
     3  C    0.000064   0.002333  -0.010183  -0.009636   0.000013
     4  C    0.003871  -0.000274   0.000986   0.008955  -0.001766
     5  N   -0.017551   0.003730   0.023982  -0.024301   0.029670
     6  H    0.000013   0.000000  -0.000005   0.000011  -0.000002
     7  H    0.000011  -0.000000   0.000000   0.000010   0.000000
     8  H    0.081350  -0.007939  -0.008790  -0.000001  -0.004601
     9  C    0.002317  -0.005824   0.014513   0.017244   0.004297
    10  O   -0.001228   0.000661   0.000427  -0.002118   0.000164
    11  O    0.006129   0.020176   0.063148  -0.050212  -0.004912
    12  H    0.104825  -0.007701   0.005339   0.085799  -0.008736
    13  O    8.518437   0.210767  -0.006164  -0.054228  -0.000828
    14  H    0.210767   0.320708  -0.002087  -0.001339   0.000280
    15  H   -0.006164  -0.002087   0.350473   0.118835  -0.010194
    16  O   -0.054228  -0.001339   0.118835   8.435597   0.245472
    17  H   -0.000828   0.000280  -0.010194   0.245472   0.287444
          Atomic-Atomic Spin Densities.
               1          2          3          4          5          6
     1  N    0.567489  -0.204466   0.143872  -0.001105  -0.234813  -0.000671
     2  N   -0.204466   0.353038  -0.212190   0.004820   0.063701   0.002664
     3  C    0.143872  -0.212190   0.384752   0.068704  -0.073833  -0.007883
     4  C   -0.001105   0.004820   0.068704  -0.189867  -0.034279   0.004381
     5  N   -0.234813   0.063701  -0.073833  -0.034279   0.637311  -0.000118
     6  H   -0.000671   0.002664  -0.007883   0.004381  -0.000118  -0.012212
     7  H    0.002895  -0.000269  -0.002260   0.004506  -0.003737   0.000015
     8  H    0.005797   0.007147  -0.002734   0.002943  -0.019584   0.000003
     9  C   -0.041022   0.098699  -0.015048  -0.002478  -0.000641   0.001218
    10  O    0.006004  -0.027008   0.018284  -0.000687  -0.001888   0.000085
    11  O    0.017119  -0.024408   0.006012  -0.001181   0.001260   0.000083
    12  H    0.000754  -0.000492   0.000066  -0.000000   0.000145   0.000000
    13  O   -0.000185  -0.000997  -0.000202  -0.000347   0.005762  -0.000001
    14  H   -0.000143   0.000235   0.000091   0.000025  -0.000520  -0.000000
    15  H    0.009278  -0.006604   0.002359  -0.000572   0.000186  -0.000001
    16  O   -0.028387   0.015823  -0.005285   0.000902   0.001158  -0.000000
    17  H    0.010925  -0.003513   0.001078  -0.000171  -0.001118  -0.000000
               7          8          9         10         11         12
     1  N    0.002895   0.005797  -0.041022   0.006004   0.017119   0.000754
     2  N   -0.000269   0.007147   0.098699  -0.027008  -0.024408  -0.000492
     3  C   -0.002260  -0.002734  -0.015048   0.018284   0.006012   0.000066
     4  C    0.004506   0.002943  -0.002478  -0.000687  -0.001181  -0.000000
     5  N   -0.003737  -0.019584  -0.000641  -0.001888   0.001260   0.000145
     6  H    0.000015   0.000003   0.001218   0.000085   0.000083   0.000000
     7  H    0.003012   0.000001  -0.000100   0.000004   0.000003   0.000000
     8  H    0.000001   0.042011   0.000513   0.000211   0.000614  -0.000515
     9  C   -0.000100   0.000513   0.100495  -0.048044  -0.020646   0.000021
    10  O    0.000004   0.000211  -0.048044   0.108122   0.007975  -0.000004
    11  O    0.000003   0.000614  -0.020646   0.007975   0.018732  -0.000043
    12  H    0.000000  -0.000515   0.000021  -0.000004  -0.000043  -0.000385
    13  O   -0.000000  -0.014365   0.000487  -0.000123  -0.001451   0.000349
    14  H    0.000000   0.001524  -0.000403   0.000060   0.001499  -0.000105
    15  H   -0.000000  -0.001995  -0.004198   0.000265   0.006175   0.000321
    16  O    0.000000   0.005985   0.004194  -0.000385  -0.004303  -0.000640
    17  H   -0.000000  -0.001257  -0.000709   0.000044   0.000924   0.000132
              13         14         15         16         17
     1  N   -0.000185  -0.000143   0.009278  -0.028387   0.010925
     2  N   -0.000997   0.000235  -0.006604   0.015823  -0.003513
     3  C   -0.000202   0.000091   0.002359  -0.005285   0.001078
     4  C   -0.000347   0.000025  -0.000572   0.000902  -0.000171
     5  N    0.005762  -0.000520   0.000186   0.001158  -0.001118
     6  H   -0.000001  -0.000000  -0.000001  -0.000000  -0.000000
     7  H   -0.000000   0.000000  -0.000000   0.000000  -0.000000
     8  H   -0.014365   0.001524  -0.001995   0.005985  -0.001257
     9  C    0.000487  -0.000403  -0.004198   0.004194  -0.000709
    10  O   -0.000123   0.000060   0.000265  -0.000385   0.000044
    11  O   -0.001451   0.001499   0.006175  -0.004303   0.000924
    12  H    0.000349  -0.000105   0.000321  -0.000640   0.000132
    13  O    0.019109  -0.001195   0.001230  -0.002519   0.000434
    14  H   -0.001195   0.000236  -0.000522   0.000556  -0.000049
    15  H    0.001230  -0.000522   0.006497  -0.007501   0.000924
    16  O   -0.002519   0.000556  -0.007501   0.027784  -0.004312
    17  H    0.000434  -0.000049   0.000924  -0.004312  -0.000555
 Mulliken charges and spin densities:
               1          2
     1  N   -0.413481   0.253342
     2  N   -0.090812   0.066178
     3  C   -0.159872   0.305783
     4  C   -0.186355  -0.144406
     5  N   -0.540949   0.338991
     6  H    0.227152  -0.012439
     7  H    0.207446   0.004069
     8  H    0.382252   0.026300
     9  C    0.806757   0.072338
    10  O   -0.677028   0.062915
    11  O   -0.732094   0.008363
    12  H    0.374559  -0.000394
    13  O   -0.792500   0.005985
    14  H    0.463194   0.001288
    15  H    0.436282   0.005842
    16  O   -0.765595   0.003070
    17  H    0.461043   0.002777
 Sum of Mulliken charges =  -1.00000   1.00000
 Mulliken charges and spin densities with hydrogens summed into heavy atoms:
               1          2
     1  N   -0.031228   0.279641
     2  N   -0.090812   0.066178
     3  C    0.067280   0.293344
     4  C    0.021091  -0.140337
     5  N   -0.540949   0.338991
     9  C    0.806757   0.072338
    10  O   -0.677028   0.062915
    11  O   -0.295812   0.014204
    13  O    0.045253   0.006878
    16  O   -0.304552   0.005847
 APT charges:
               1
     1  N   -0.573415
     2  N   -0.148419
     3  C   -0.633986
     4  C   -0.503109
     5  N   -0.463884
     6  H    0.634392
     7  H    0.842381
     8  H    0.420521
     9  C    0.355343
    10  O   -0.378512
    11  O   -0.629464
    12  H    0.398968
    13  O   -0.607999
    14  H    0.230991
    15  H    0.409086
    16  O   -0.599782
    17  H    0.246889
 Sum of APT charges =  -1.00000
 APT charges with hydrogens summed into heavy atoms:
               1
     1  N   -0.152894
     2  N   -0.148419
     3  C    0.000406
     4  C    0.339272
     5  N   -0.463884
     9  C    0.355343
    10  O   -0.378512
    11  O   -0.220378
    13  O    0.021960
    16  O   -0.352892
 Electronic spatial extent (au):  <R**2>=           1609.1487
 Charge=             -1.0000 electrons
 Dipole moment (field-independent basis, Debye):
    X=              3.6882    Y=             -1.1584    Z=              0.9169  Tot=              3.9731
 Quadrupole moment (field-independent basis, Debye-Ang):
   XX=            -76.4092   YY=            -90.4135   ZZ=            -72.9601
   XY=             -3.8320   XZ=             -0.0639   YZ=             -3.3816
 Traceless Quadrupole moment (field-independent basis, Debye-Ang):
   XX=              3.5184   YY=            -10.4859   ZZ=              6.9675
   XY=             -3.8320   XZ=             -0.0639   YZ=             -3.3816
 Octapole moment (field-independent basis, Debye-Ang**2):
  XXX=             53.7275  YYY=            -22.7312  ZZZ=             -0.4104  XYY=            -14.8210
  XXY=             12.7750  XXZ=              5.7567  XZZ=             16.6215  YZZ=             12.2967
  YYZ=              4.0736  XYZ=              3.0526
 Hexadecapole moment (field-independent basis, Debye-Ang**3):
 XXXX=          -1159.8053 YYYY=           -936.3450 ZZZZ=           -282.8035 XXXY=            -58.6002
 XXXZ=              0.9644 YYYX=             10.3064 YYYZ=            -13.8232 ZZZX=              4.7820
 ZZZY=             -9.8002 XXYY=           -326.9984 XXZZ=           -315.6971 YYZZ=           -171.1111
 XXYZ=            -13.6372 YYXZ=             -4.8843 ZZXY=            -19.9814
 N-N= 5.590674534364D+02 E-N=-2.497239016984D+03  KE= 5.777750238610D+02
  Exact polarizability:   0.000   0.000   0.000   0.000   0.000   0.000
 Approx polarizability: 130.262   1.857 135.516   6.874  -1.894  92.492
                          Isotropic Fermi Contact Couplings
        Atom                 a.u.       MegaHertz       Gauss      10(-4) cm-1
     1  N(14)              0.09001      29.08181      10.37711       9.70065
     2  N(14)              0.01919       6.20155       2.21287       2.06861
     3  C(13)              0.03895      43.78619      15.62400      14.60550
     4  C(13)             -0.03210     -36.08644     -12.87654     -12.03714
     5  N(14)              0.08440      27.26885       9.73020       9.09591
     6  H(1)              -0.00415     -18.53240      -6.61282      -6.18174
     7  H(1)               0.00104       4.67077       1.66665       1.55800
     8  H(1)               0.01081      48.32630      17.24402      16.11992
     9  C(13)              0.01185      13.31857       4.75240       4.44260
    10  O(17)              0.01538      -9.32519      -3.32746      -3.11055
    11  O(17)              0.00150      -0.90921      -0.32443      -0.30328
    12  H(1)              -0.00017      -0.74804      -0.26692      -0.24952
    13  O(17)              0.01322      -8.01154      -2.85872      -2.67236
    14  H(1)              -0.00018      -0.79067      -0.28213      -0.26374
    15  H(1)               0.00246      10.98383       3.91931       3.66381
    16  O(17)              0.01033      -6.26016      -2.23378      -2.08816
    17  H(1)              -0.00064      -2.86455      -1.02214      -0.95551
 --------------------------------------------------------
       Center         ----  Spin Dipole Couplings  ----
                      3XX-RR        3YY-RR        3ZZ-RR
 --------------------------------------------------------
     1   Atom       -0.295959     -0.319085      0.615044
     2   Atom       -0.189111     -0.169289      0.358401
     3   Atom       -0.115729     -0.127405      0.243134
     4   Atom        0.056145      0.055058     -0.111203
     5   Atom       -0.345179     -0.360665      0.705844
     6   Atom       -0.004545      0.007535     -0.002990
     7   Atom        0.003204      0.003008     -0.006213
     8   Atom        0.018974     -0.010339     -0.008635
     9   Atom       -0.050041     -0.026666      0.076707
    10   Atom       -0.126728     -0.121590      0.248318
    11   Atom       -0.024221     -0.030533      0.054754
    12   Atom        0.005223     -0.003259     -0.001965
    13   Atom        0.043401     -0.022904     -0.020498
    14   Atom        0.002746      0.001237     -0.003983
    15   Atom        0.005081     -0.000455     -0.004626
    16   Atom        0.025059     -0.014935     -0.010125
    17   Atom        0.007482     -0.005267     -0.002216
 --------------------------------------------------------
                        XY            XZ            YZ
 --------------------------------------------------------
     1   Atom       -0.001750     -0.183518      0.005815
     2   Atom        0.002733     -0.056965     -0.078645
     3   Atom        0.005516     -0.051800      0.001412
     4   Atom        0.008253      0.019646      0.001474
     5   Atom        0.005072     -0.144000     -0.008588
     6   Atom        0.019534     -0.000401      0.003868
     7   Atom        0.003131      0.000920      0.000457
     8   Atom        0.004255      0.008320      0.001889
     9   Atom       -0.011094      0.019419     -0.042389
    10   Atom       -0.006082      0.019424     -0.057431
    11   Atom       -0.002618      0.026118      0.001075
    12   Atom        0.000665     -0.000487      0.000169
    13   Atom       -0.003497      0.009171      0.001438
    14   Atom       -0.001088      0.003632      0.000361
    15   Atom       -0.002025     -0.004071     -0.000249
    16   Atom        0.017773     -0.021390     -0.007622
    17   Atom       -0.001406     -0.008880     -0.001470
 --------------------------------------------------------


 ---------------------------------------------------------------------------------
              Anisotropic Spin Dipole Couplings in Principal Axis System
 ---------------------------------------------------------------------------------

       Atom             a.u.   MegaHertz   Gauss  10(-4) cm-1        Axes

              Baa    -0.3316   -12.788    -4.563    -4.266  0.9806  0.0491  0.1898
     1 N(14)  Bbb    -0.3191   -12.307    -4.391    -4.105 -0.0470  0.9988 -0.0155
              Bcc     0.6507    25.095     8.954     8.371 -0.1903  0.0062  0.9817
 
              Baa    -0.1967    -7.587    -2.707    -2.531  0.9408  0.3085  0.1403
     2 N(14)  Bbb    -0.1789    -6.899    -2.462    -2.301 -0.3238  0.9405  0.1033
              Bcc     0.3756    14.485     5.169     4.832 -0.1000 -0.1426  0.9847
 
              Baa    -0.1313   -17.618    -6.287    -5.877 -0.5605  0.8242 -0.0806
     3 C(13)  Bbb    -0.1192   -15.991    -5.706    -5.334  0.8163  0.5662  0.1145
              Bcc     0.2505    33.610    11.993    11.211 -0.1400  0.0017  0.9901
 
              Baa    -0.1135   -15.228    -5.434    -5.079 -0.1149 -0.0031  0.9934
     4 C(13)  Bbb     0.0482     6.469     2.308     2.158 -0.6298  0.7736 -0.0705
              Bcc     0.0653     8.759     3.126     2.922  0.7682  0.6337  0.0908
 
              Baa    -0.3670   -14.153    -5.050    -4.721  0.8417 -0.5289  0.1087
     5 N(14)  Bbb    -0.3583   -13.820    -4.931    -4.610  0.5232  0.8486  0.0777
              Bcc     0.7253    27.973     9.981     9.331 -0.1334 -0.0085  0.9910
 
              Baa    -0.0194   -10.338    -3.689    -3.448  0.7878 -0.5948  0.1597
     6 H(1)   Bbb    -0.0029    -1.545    -0.551    -0.515 -0.1961  0.0036  0.9806
              Bcc     0.0223    11.882     4.240     3.964  0.5838  0.8038  0.1138
 
              Baa    -0.0063    -3.364    -1.200    -1.122 -0.0902 -0.0185  0.9957
     7 H(1)   Bbb    -0.0000    -0.006    -0.002    -0.002 -0.6896  0.7225 -0.0490
              Bcc     0.0063     3.370     1.202     1.124  0.7186  0.6911  0.0780
 
              Baa    -0.0116    -6.213    -2.217    -2.073  0.0901  0.7124 -0.6959
     8 H(1)   Bbb    -0.0103    -5.495    -1.961    -1.833 -0.2893  0.6874  0.6662
              Bcc     0.0219    11.708     4.178     3.906  0.9530  0.1413  0.2680
 
              Baa    -0.0546    -7.320    -2.612    -2.442  0.9462  0.3214 -0.0362
     9 C(13)  Bbb    -0.0407    -5.456    -1.947    -1.820 -0.2866  0.8850  0.3671
              Bcc     0.0952    12.776     4.559     4.262  0.1500 -0.3369  0.9295
 
              Baa    -0.1324     9.579     3.418     3.195  0.5573  0.8247  0.0960
    10 O(17)  Bbb    -0.1257     9.095     3.245     3.034  0.8286 -0.5452 -0.1268
              Bcc     0.2581   -18.675    -6.664    -6.229  0.0522 -0.1502  0.9873
 
              Baa    -0.0342     2.477     0.884     0.826  0.7609  0.6065 -0.2307
    11 O(17)  Bbb    -0.0284     2.054     0.733     0.685 -0.5815  0.7951  0.1724
              Bcc     0.0626    -4.530    -1.617    -1.511  0.2880  0.0030  0.9576
 
              Baa    -0.0033    -1.783    -0.636    -0.595 -0.0851  0.9849 -0.1511
    12 H(1)   Bbb    -0.0020    -1.048    -0.374    -0.350  0.0524  0.1558  0.9864
              Bcc     0.0053     2.831     1.010     0.944  0.9950  0.0760 -0.0648
 
              Baa    -0.0244     1.768     0.631     0.590  0.1193  0.8103 -0.5737
    13 O(17)  Bbb    -0.0204     1.477     0.527     0.493 -0.0840  0.5840  0.8074
              Bcc     0.0448    -3.245    -1.158    -1.082  0.9893 -0.0481  0.1378
 
              Baa    -0.0057    -3.018    -1.077    -1.007 -0.4065 -0.1117  0.9068
    14 H(1)   Bbb     0.0011     0.587     0.210     0.196  0.1880  0.9610  0.2026
              Bcc     0.0046     2.430     0.867     0.811  0.8941 -0.2529  0.3696
 
              Baa    -0.0063    -3.341    -1.192    -1.114  0.3591  0.1646  0.9187
    15 H(1)   Bbb    -0.0007    -0.398    -0.142    -0.133  0.1671  0.9571 -0.2368
              Bcc     0.0070     3.740     1.334     1.247  0.9182 -0.2385 -0.3162
 
              Baa    -0.0218     1.578     0.563     0.526 -0.4333  0.8730 -0.2238
    16 O(17)  Bbb    -0.0200     1.444     0.515     0.482  0.2778  0.3656  0.8883
              Bcc     0.0418    -3.021    -1.078    -1.008  0.8574  0.3227 -0.4009
 
              Baa    -0.0086    -4.615    -1.647    -1.539  0.4493  0.5066  0.7359
    17 H(1)   Bbb    -0.0041    -2.195    -0.783    -0.732 -0.2384  0.8618 -0.4478
              Bcc     0.0128     6.810     2.430     2.271  0.8610 -0.0257 -0.5079
 

 ---------------------------------------------------------------------------------

 D2PCM: PCM CHGder 2nd derivatives, FixD1E=F FixD2E=F DoIter=F DoCFld=F I1PDM=0
 Calling FoFJK, ICntrl=    100147 FMM=F ISym2X=0 I1Cent= 0 IOpClX= 1 NMat=1 NMatS=1 NMatT=0.
 ***** Axes restored to original set *****
 -------------------------------------------------------------------
 Center     Atomic                   Forces (Hartrees/Bohr)
 Number     Number              X              Y              Z
 -------------------------------------------------------------------
      1        7          -0.054757168   -0.010018763   -0.024869688
      2        7          -0.026953647    0.008848079    0.005880532
      3        6           0.010525526    0.000740330    0.000829127
      4        6           0.005169589    0.004812831   -0.002521739
      5        7          -0.017790743    0.013924079    0.000658025
      6        1           0.003361966   -0.001307916   -0.000746143
      7        1           0.000416534    0.000997711   -0.000352684
      8        1           0.031830071    0.006495364   -0.000076290
      9        6           0.072468769   -0.046228983    0.001983237
     10        8          -0.011829953    0.013867946   -0.001994516
     11        8          -0.060061696   -0.019814891    0.029325076
     12        1           0.004291881   -0.000833622   -0.006346188
     13        8           0.039109970   -0.008495508    0.091057670
     14        1          -0.008868989    0.006685946   -0.019004804
     15        1           0.002205356   -0.000868606    0.011601487
     16        8           0.004583507    0.039405437   -0.092396081
     17        1           0.006299028   -0.008209433    0.006972980
 -------------------------------------------------------------------
 Cartesian Forces:  Max     0.092396081 RMS     0.027914032
 FormGI is forming the generalized inverse of G from B-inverse, IUseBI=4.

 GradGradGradGradGradGradGradGradGradGradGradGradGradGradGradGradGradGrad
 Berny optimization.
 Internal  Forces:  Max     0.060498294 RMS     0.016195633
 Search for a saddle point.
 Step number   1 out of a maximum of   89
 All quantities printed in internal units (Hartrees-Bohrs-Radians)
 Swapping is turned off.
 Second derivative matrix not updated -- analytic derivatives used.
 ITU=  0
     Eigenvalues ---   -0.09724  -0.06080  -0.04841  -0.00330   0.00118
     Eigenvalues ---    0.00224   0.00397   0.00579   0.00860   0.01336
     Eigenvalues ---    0.01732   0.01810   0.02043   0.02379   0.02542
     Eigenvalues ---    0.02915   0.04024   0.04128   0.04323   0.04826
     Eigenvalues ---    0.05138   0.06472   0.07133   0.07550   0.09156
     Eigenvalues ---    0.09711   0.10831   0.11405   0.13800   0.15445
     Eigenvalues ---    0.19839   0.23617   0.26468   0.27644   0.30615
     Eigenvalues ---    0.33869   0.38106   0.39177   0.40207   0.44835
     Eigenvalues ---    0.45453   0.51487   0.52977   0.59807   0.78374
 Eigenvectors required to have negative eigenvalues:
                          R16       R15       R18       R14       R10
   1                   -0.51166   0.49860   0.40847  -0.37790  -0.29145
                          R3        D31       R11       D30       A21
   1                    0.25722  -0.08432  -0.04927   0.04874  -0.04218
 RFO step:  Lambda0=4.377844145D-04 Lambda=-1.20594682D-01.
 Linear search not attempted -- option 19 set.
 Maximum step size (   0.300) exceeded in Quadratic search.
    -- Step size scaled by   0.241
 Iteration  1 RMS(Cart)=  0.03651654 RMS(Int)=  0.00264525
 Iteration  2 RMS(Cart)=  0.00377968 RMS(Int)=  0.00013058
 Iteration  3 RMS(Cart)=  0.00000505 RMS(Int)=  0.00013014
 Iteration  4 RMS(Cart)=  0.00000000 RMS(Int)=  0.00013014
 Variable       Old X    -DE/DX   Delta X   Delta X   Delta X     New X
                                 (Linear)    (Quad)   (Total)
    R1        2.66128  -0.00428   0.00000  -0.00151  -0.00174   2.65954
    R2        2.61878  -0.01607   0.00000  -0.00989  -0.00991   2.60887
    R3        2.87878  -0.06050   0.00000  -0.22082  -0.22089   2.65789
    R4        2.59705   0.01044   0.00000   0.00496   0.00494   2.60200
    R5        2.75589  -0.02985   0.00000  -0.02681  -0.02690   2.72899
    R6        2.60186  -0.00690   0.00000  -0.00173  -0.00167   2.60019
    R7        2.03443   0.00080   0.00000   0.00021   0.00021   2.03464
    R8        2.54457   0.00619   0.00000   0.00092   0.00098   2.54554
    R9        2.04355  -0.00011   0.00000  -0.00050  -0.00050   2.04305
   R10        2.92604  -0.03791   0.00000   0.05010   0.05009   2.97613
   R11        3.15796   0.00728   0.00000   0.03203   0.03206   3.19003
   R12        2.32685   0.00528   0.00000  -0.00119  -0.00119   2.32566
   R13        2.38155   0.03620   0.00000   0.01859   0.01867   2.40021
   R14        2.59050  -0.04579   0.00000  -0.11126  -0.11115   2.47935
   R15        2.84488  -0.05213   0.00000  -0.03519  -0.03519   2.80969
   R16        2.85905  -0.04664   0.00000  -0.13143  -0.13139   2.72767
   R17        1.84638  -0.00292   0.00000  -0.00527  -0.00534   1.84105
   R18        2.71754  -0.05225   0.00000  -0.01036  -0.01024   2.70730
   R19        1.82884   0.00896   0.00000   0.00154   0.00154   1.83038
    A1        1.90205  -0.00408   0.00000   0.00292   0.00302   1.90507
    A2        1.99786   0.01157   0.00000   0.02238   0.02225   2.02011
    A3        2.19476  -0.00757   0.00000  -0.02172  -0.02163   2.17313
    A4        1.85765   0.00532   0.00000  -0.00171  -0.00166   1.85599
    A5        2.14547  -0.00458   0.00000  -0.00150  -0.00187   2.14360
    A6        2.22266  -0.00028   0.00000   0.00309   0.00339   2.22605
    A7        1.85332  -0.00636   0.00000  -0.00204  -0.00210   1.85122
    A8        2.09670   0.00660   0.00000   0.00328   0.00331   2.10001
    A9        2.33309  -0.00025   0.00000  -0.00125  -0.00122   2.33187
   A10        1.96171  -0.00237   0.00000   0.00003   0.00003   1.96175
   A11        2.22745   0.00012   0.00000  -0.00048  -0.00048   2.22697
   A12        2.09389   0.00226   0.00000   0.00047   0.00047   2.09436
   A13        1.82811   0.00805   0.00000   0.00116   0.00107   1.82918
   A14        2.81053   0.00214   0.00000   0.02490   0.02482   2.83535
   A15        2.20098   0.00227   0.00000   0.03489   0.03472   2.23570
   A16        1.99602   0.02045   0.00000   0.01841   0.01854   2.01456
   A17        1.98520  -0.00089   0.00000  -0.00155  -0.00184   1.98336
   A18        2.30157  -0.01969   0.00000  -0.01711  -0.01699   2.28458
   A19        2.04509  -0.00555   0.00000  -0.00274  -0.00278   2.04231
   A20        2.76441  -0.00873   0.00000   0.00094   0.00087   2.76528
   A21        1.24742   0.00994   0.00000   0.01075   0.01084   1.25826
   A22        1.46130   0.01911   0.00000   0.01360   0.01330   1.47460
   A23        1.21545   0.01714   0.00000   0.03619   0.03640   1.25185
   A24        1.64155   0.00000   0.00000   0.00363   0.00344   1.64499
   A25        1.57894   0.00744   0.00000   0.01484   0.01487   1.59381
   A26        3.05675  -0.00178   0.00000   0.00095   0.00082   3.05756
   A27        3.21905   0.00795   0.00000   0.00996   0.00998   3.22903
    D1       -0.20004   0.00220   0.00000   0.00104   0.00108  -0.19897
    D2       -3.00719   0.00069   0.00000   0.00069   0.00072  -3.00647
    D3       -2.75955   0.00546   0.00000   0.00487   0.00468  -2.75487
    D4        0.71649   0.00396   0.00000   0.00452   0.00433   0.72082
    D5        0.18293  -0.00288   0.00000  -0.00207  -0.00212   0.18082
    D6        2.66015   0.00163   0.00000   0.01359   0.01344   2.67359
    D7       -0.44611  -0.00330   0.00000   0.01596   0.01599  -0.43012
    D8       -0.34047   0.00765   0.00000   0.02732   0.02749  -0.31298
    D9       -2.89245  -0.00254   0.00000   0.00693   0.00706  -2.88538
   D10       -2.78680   0.00841   0.00000   0.01830   0.01856  -2.76824
   D11        0.13303  -0.00058   0.00000   0.00015   0.00012   0.13315
   D12       -3.01938  -0.00132   0.00000  -0.00069  -0.00066  -3.02004
   D13        2.92069   0.00000   0.00000  -0.00071  -0.00091   2.91979
   D14       -0.23171  -0.00073   0.00000  -0.00155  -0.00169  -0.23340
   D15        2.94129   0.00384   0.00000   0.00257   0.00250   2.94379
   D16       -0.22711  -0.00093   0.00000  -0.00607  -0.00615  -0.23326
   D17        0.20690   0.00120   0.00000   0.00338   0.00339   0.21028
   D18       -2.96150  -0.00356   0.00000  -0.00526  -0.00526  -2.96676
   D19       -0.02137  -0.00132   0.00000  -0.00214  -0.00213  -0.02349
   D20        3.10242  -0.00016   0.00000  -0.00033  -0.00029   3.10213
   D21        3.13316  -0.00049   0.00000  -0.00118  -0.00124   3.13192
   D22       -0.02624   0.00067   0.00000   0.00064   0.00061  -0.02564
   D23       -0.10074   0.00232   0.00000   0.00276   0.00279  -0.09795
   D24        3.05714   0.00128   0.00000   0.00111   0.00112   3.05825
   D25       -1.36774   0.00408   0.00000   0.00030   0.00059  -1.36715
   D26        0.94222   0.00358   0.00000   0.00591   0.00562   0.94784
   D27       -2.23217  -0.00137   0.00000  -0.00389  -0.00395  -2.23612
   D28       -2.17183   0.01395   0.00000   0.03433   0.03407  -2.13776
   D29       -0.51507   0.00980   0.00000   0.02856   0.02876  -0.48631
   D30        0.72991   0.00435   0.00000  -0.01400  -0.01389   0.71602
   D31       -0.68085  -0.01375   0.00000  -0.00474  -0.00482  -0.68567
   D32        0.53348   0.00157   0.00000   0.00254   0.00252   0.53601
   D33       -1.01972  -0.00771   0.00000  -0.01478  -0.01483  -1.03455
         Item               Value     Threshold  Converged?
 Maximum Force            0.060498     0.000450     NO 
 RMS     Force            0.016196     0.000300     NO 
 Maximum Displacement     0.147393     0.001800     NO 
 RMS     Displacement     0.038624     0.001200     NO 
 Predicted change in Energy=-3.138600D-02
 GradGradGradGradGradGradGradGradGradGradGradGradGradGradGradGradGradGrad

                          Input orientation:                          
 ---------------------------------------------------------------------
 Center     Atomic      Atomic             Coordinates (Angstroms)
 Number     Number       Type             X           Y           Z
 ---------------------------------------------------------------------
      1          7           0        0.257341   -0.973529   -0.076225
      2          7           0        0.802812    0.320149   -0.173901
      3          6           0        2.158574    0.184947    0.024927
      4          6           0        2.405589   -1.168265    0.057654
      5          7           0        1.282098   -1.898616   -0.079759
      6          1           0        2.785293    1.056441    0.108405
      7          1           0        3.361715   -1.661877    0.162668
      8          1           0       -0.987343   -1.160706   -0.703886
      9          6           0        0.007820    1.517479   -0.032942
     10          8           0        0.644762    2.564964    0.075076
     11          8           0       -1.243692    1.306678   -0.083278
     12          1           0       -2.559055   -0.919670    0.146172
     13          8           0       -2.406869   -0.896321   -1.332657
     14          1           0       -2.095017    0.015889   -1.192078
     15          1           0       -1.732474    0.418766    0.749840
     16          8           0       -2.245355   -0.666334    1.532126
     17          1           0       -1.392364   -1.123919    1.497472
 ---------------------------------------------------------------------
                    Distance matrix (angstroms):
                    1          2          3          4          5
     1  N    0.000000
     2  N    1.407367   0.000000
     3  C    2.228674   1.376918   0.000000
     4  C    2.161207   2.199520   1.375962   0.000000
     5  N    1.380553   2.271892   2.262831   1.347043   0.000000
     6  H    3.247369   2.133554   1.076683   2.257447   3.320747
     7  H    3.188735   3.254180   2.208456   1.081137   2.107041
     8  H    1.406496   2.382955   3.498392   3.477354   2.466660
     9  C    2.503847   1.444119   2.530757   3.601489   3.646324
    10  O    3.562852   2.264103   2.821103   4.127689   4.511509
    11  O    2.729925   2.273682   3.584048   4.411627   4.080874
    12  H    2.825677   3.597465   4.846742   4.971652   3.970370
    13  O    2.946624   3.622785   4.884204   5.016639   4.022788
    14  H    2.785258   3.086531   4.427496   4.818662   4.038253
    15  H    2.565197   2.700129   3.964899   4.485683   3.891804
    16  O    2.990761   3.629738   4.731905   4.904823   4.069351
    17  H    2.284878   3.114100   4.060872   4.061956   3.200087
                    6          7          8          9         10
     6  H    0.000000
     7  H    2.779291   0.000000
     8  H    4.450656   4.462779   0.000000
     9  C    2.819023   4.625492   2.934823   0.000000
    10  O    2.618898   5.025504   4.141396   1.230686   0.000000
    11  O    4.041296   5.484758   2.557118   1.270139   2.274778
    12  H    5.698114   5.967132   1.803046   3.544097   4.734150
    13  O    5.731359   6.008213   1.574898   3.653274   4.824381
    14  H    5.156688   5.867381   1.688090   2.832012   3.950930
    15  H    4.607416   5.533950   2.272284   2.201940   3.273029
    16  O    5.504758   5.857112   2.612805   3.506462   4.573517
    17  H    4.912870   4.967128   2.238610   3.358521   4.447578
                   11         12         13         14         15
    11  O    0.000000
    12  H    2.596046   0.000000
    13  O    2.786958   1.486822   0.000000
    14  H    1.902716   1.697503   0.974239   0.000000
    15  H    1.312014   1.684953   2.553637   2.016134   0.000000
    16  O    2.739641   1.443418   2.878535   2.812351   1.432641
    17  H    2.903218   1.796914   3.015071   3.004425   1.747715
                   16         17
    16  O    0.000000
    17  H    0.968597   0.000000
 Stoichiometry    C3H7N3O4(1-,2)
 Framework group  C1[X(C3H7N3O4)]
 Deg. of freedom    45
 Full point group                 C1      NOp   1
 Largest Abelian subgroup         C1      NOp   1
 Largest concise Abelian subgroup C1      NOp   1
                         Standard orientation:                         
 ---------------------------------------------------------------------
 Center     Atomic      Atomic             Coordinates (Angstroms)
 Number     Number       Type             X           Y           Z
 ---------------------------------------------------------------------
      1          7           0        0.271498   -0.979387   -0.061708
      2          7           0        0.812991    0.314402   -0.178226
      3          6           0        2.168039    0.187482    0.030669
      4          6           0        2.419600   -1.164081    0.087821
      5          7           0        1.299494   -1.900703   -0.043615
      6          1           0        2.791204    1.062520    0.102921
      7          1           0        3.376824   -1.652389    0.206713
      8          1           0       -0.968852   -1.181680   -0.693247
      9          6           0        0.013001    1.511081   -0.062223
     10          8           0        0.645629    2.562537    0.031631
     11          8           0       -1.237450    1.294948   -0.116167
     12          1           0       -2.546315   -0.931907    0.143532
     13          8           0       -2.385616   -0.933128   -1.334580
     14          1           0       -2.077786   -0.017544   -1.207740
     15          1           0       -1.727954    0.419558    0.729102
     16          8           0       -2.241569   -0.653941    1.526761
     17          1           0       -1.386791   -1.108973    1.504801
 ---------------------------------------------------------------------
 Rotational constants (GHZ):           1.4815368           1.0735023           0.7555842
 Standard basis: 6-31+G(d,p) (6D, 7F)
 There are   225 symmetry adapted cartesian basis functions of A   symmetry.
 There are   225 symmetry adapted basis functions of A   symmetry.
   225 basis functions,   369 primitive gaussians,   225 cartesian basis functions
    40 alpha electrons       39 beta electrons
       nuclear repulsion energy       562.5132361042 Hartrees.
 NAtoms=   17 NActive=   17 NUniq=   17 SFac= 1.00D+00 NAtFMM=   60 NAOKFM=F Big=F
 Integral buffers will be    131072 words long.
 Raffenetti 2 integral format.
 Two-electron integral symmetry is turned on.
 ------------------------------------------------------------------------------
 Polarizable Continuum Model (PCM)
 =================================
 Model                : PCM.
 Atomic radii         : SMD-Coulomb.
 Polarization charges : Total charges.
 Charge compensation  : None.
 Solution method      : Matrix inversion.
 Cavity type          : VdW (van der Waals Surface) (Alpha=1.000).
 Cavity algorithm     : GePol (No added spheres)
                        Default sphere list used, NSphG=   17.
                        Lebedev-Laikov grids with approx.  5.0 points / Ang**2.
                        Smoothing algorithm: York/Karplus (Gamma=1.0000).
                        Polarization charges: spherical gaussians, with
                                              point-specific exponents (IZeta= 3).
                        Self-potential: point-specific (ISelfS= 7).
                        Self-field    : sphere-specific E.n sum rule (ISelfD= 2).
 1st derivatives      : Analytical E(r).r(x)/FMM algorithm (CHGder, D1EAlg=3).
                        Cavity 1st derivative terms included.
 Solvent              : Water, Eps=  78.355300 Eps(inf)=   1.777849
 ------------------------------------------------------------------------------
 Spheres list:
 ISph  on   Nord     Re0    Alpha      Xe            Ye            Ze
    1   N      1    1.8900  1.000      0.271498     -0.979387     -0.061708
    2   N      2    1.8900  1.000      0.812991      0.314402     -0.178226
    3   C      3    1.8500  1.000      2.168039      0.187482      0.030669
    4   C      4    1.8500  1.000      2.419600     -1.164081      0.087821
    5   N      5    1.8900  1.000      1.299494     -1.900703     -0.043615
    6   H      6    1.2000  1.000      2.791204      1.062520      0.102921
    7   H      7    1.2000  1.000      3.376824     -1.652389      0.206713
    8   H      8    1.2000  1.000     -0.968852     -1.181680     -0.693247
    9   C      9    1.8500  1.000      0.013001      1.511081     -0.062223
   10   O     10    1.5200  1.000      0.645629      2.562537      0.031631
   11   O     11    1.5200  1.000     -1.237450      1.294948     -0.116167
   12   H     12    1.2000  1.000     -2.546315     -0.931907      0.143532
   13   O     13    1.5200  1.000     -2.385616     -0.933128     -1.334580
   14   H     14    1.2000  1.000     -2.077786     -0.017544     -1.207740
   15   H     15    1.2000  1.000     -1.727954      0.419558      0.729102
   16   O     16    1.5200  1.000     -2.241569     -0.653941      1.526761
   17   H     17    1.2000  1.000     -1.386791     -1.108973      1.504801
 ------------------------------------------------------------------------------
 ------------------------------------------------------------------------------
 Atomic radii for non-electrostatic terms: SMD-CDS.
 ------------------------------------------------------------------------------
 Nuclear repulsion after PCM non-electrostatic terms =      562.5204527327 Hartrees.
 One-electron integrals computed using PRISM.
 NBasis=   225 RedAO= T EigKep=  2.71D-05  NBF=   225
 NBsUse=   225 1.00D-06 EigRej= -1.00D+00 NBFU=   225
 Initial guess from the checkpoint file:  "/scratch/gongke2021/TS/Gau-7916.chk"
 B after Tr=    -0.000000   -0.000000    0.000000
         Rot=    0.999946    0.009946    0.002921   -0.000474 Ang=   1.19 deg.
 Initial guess <Sx>= 0.0000 <Sy>= 0.0000 <Sz>= 0.5000 <S**2>= 0.7635 S= 0.5067
 ExpMin= 4.38D-02 ExpMax= 5.48D+03 ExpMxC= 8.25D+02 IAcc=2 IRadAn=         4 AccDes= 0.00D+00
 Harris functional with IExCor= 1009 and IRadAn=       4 diagonalized for initial guess.
 HarFok:  IExCor= 1009 AccDes= 0.00D+00 IRadAn=         4 IDoV= 1 UseB2=F ITyADJ=14
 ICtDFT=  3500011 ScaDFX=  1.000000  1.000000  1.000000  1.000000
 FoFCou: FMM=F IPFlag=           0 FMFlag=      100000 FMFlg1=           0
         NFxFlg=           0 DoJE=T BraDBF=F KetDBF=T FulRan=T
         wScrn=  0.000000 ICntrl=       500 IOpCl=  0 I1Cent=   200000004 NGrid=           0
         NMat0=    1 NMatS0=      1 NMatT0=    0 NMatD0=    1 NMtDS0=    0 NMtDT0=    0
 Petite list used in FoFCou.
 Requested convergence on RMS density matrix=1.00D-08 within 128 cycles.
 Requested convergence on MAX density matrix=1.00D-06.
 Requested convergence on             energy=1.00D-06.
 No special actions if energy rises.
 Inv3:  Mode=1 IEnd=     4892187.
 Iteration    1 A*A^-1 deviation from unit magnitude is 3.11D-15 for    761.
 Iteration    1 A*A^-1 deviation from orthogonality  is 1.84D-15 for    754    382.
 Iteration    1 A^-1*A deviation from unit magnitude is 3.33D-15 for    761.
 Iteration    1 A^-1*A deviation from orthogonality  is 3.94D-15 for    533     31.
 Error on total polarization charges =  0.06253
 SCF Done:  E(UM062X) =  -583.471212090     A.U. after   16 cycles
            NFock= 16  Conv=0.66D-08     -V/T= 2.0096
 <Sx>= 0.0000 <Sy>= 0.0000 <Sz>= 0.5000 <S**2>= 0.7642 S= 0.5071
 <L.S>=  0.00000000000    
 SMD-CDS (non-electrostatic) energy       (kcal/mol) =       4.53
 (included in total energy above)
 Annihilation of the first spin contaminant:
 S**2 before annihilation     0.7642,   after     0.7501
 D1PCM: PCM CHGder 1st derivatives, ID1Alg=3 FixD1E=F DoIter=F DoCFld=F I1PDM=0.
 Calling FoFJK, ICntrl=      2127 FMM=F ISym2X=0 I1Cent= 0 IOpClX= 1 NMat=1 NMatS=1 NMatT=0.
 ***** Axes restored to original set *****
 -------------------------------------------------------------------
 Center     Atomic                   Forces (Hartrees/Bohr)
 Number     Number              X              Y              Z
 -------------------------------------------------------------------
      1        7          -0.056857545   -0.011077348   -0.025631306
      2        7          -0.023237415    0.008510491    0.005804672
      3        6           0.008553433    0.000553219    0.000524879
      4        6           0.004151333    0.003577820   -0.002080405
      5        7          -0.014606418    0.011486989    0.000535307
[...]
   yy         0.144288D+03      0.213813D+02      0.237899D+02
   zx         0.699667D+01      0.103680D+01      0.115359D+01
   zy        -0.134835D+02     -0.199805D+01     -0.222313D+01
   zz         0.147389D+03      0.218407D+02      0.243011D+02

 ----------------------------------------------------------------------
 1\1\GINC-NODE6\Freq\UM062X\6-31+G(d,p)\C3H7N3O4(1-,2)\GONGKE2021\12-Ju
 l-2023\0\\#N Geom=AllCheck Guess=TCheck SCRF=Check GenChk UM062X/6-31+
 G(d,p) Freq\\test\\-1,2\N,0.2552397465,-0.9040964208,0.1575902743\N,0.
 81418001,0.379252895,0.0334470412\C,2.1806635439,0.2290465966,-0.19823
 27426\C,2.3857071601,-1.1250101663,-0.2617705787\N,1.2429261745,-1.815
 5530299,-0.0863127993\H,2.8407205007,1.0757993895,-0.2782456753\H,3.32
 05934446,-1.6388824225,-0.4345202592\H,-0.7048145962,-1.1198783177,-0.
 453715092\C,0.1973355659,1.5492878526,0.4083848133\O,0.8331337321,2.61
 33751027,0.3497611769\O,-1.0527714839,1.5143267952,0.8010969238\H,-2.4
 439770309,-0.8614982104,0.0372245694\O,-1.8812182551,-1.4821971458,-1.
 0436829762\H,-2.0204659287,-0.9545830618,-1.840829149\H,-1.6673070852,
 0.6221787914,0.8753784737\O,-2.6783242828,-0.2888786706,0.9263674073\H
 ,-2.5777872357,-0.8766154273,1.6876731724\\Version=ES64L-G16RevA.03\St
 ate=2-A\HF=-583.5814023\S2=0.765434\S2-1=0.\S2A=0.750084\RMSD=2.202e-0
 9\RMSF=4.116e-05\ZeroPoint=0.1137917\Thermal=0.1239679\Dipole=1.223086
 3,-0.6579523,-0.0368418\DipoleDeriv=-1.5168539,-1.003401,-0.1558836,-0
 .0322452,0.2498417,-0.1194633,-0.1352992,0.1152959,-0.4815745,-0.57115
 63,0.9752578,0.110705,0.7120483,-1.4911175,-0.2810951,0.1540528,-0.610
 8397,-0.1817448,-0.1137866,-0.1865256,0.0193752,-0.1409936,-0.4570469,
 -0.0438698,-0.0597032,0.0924357,-0.3117131,0.2037721,0.4249811,-0.0110
 424,-0.1367666,0.9770883,0.1098557,-0.0642257,-0.060407,-0.0586632,-0.
 067153,-0.1183491,-0.148475,-0.228964,-1.3157972,-0.0386879,-0.1420998
 ,-0.115893,-0.347694,0.1297925,0.0128515,0.0283892,-0.0061714,0.141870
 4,-0.0027386,0.0345845,-0.0065278,0.3076689,0.0387383,0.0558076,0.0292
 495,0.0701718,0.1288254,-0.014988,0.0381477,-0.0050672,0.2069384,2.202
 4037,0.8043874,0.6680181,0.5259776,0.4744282,0.1769965,0.8717199,0.378
 4139,0.7308291,2.9656539,-0.0127046,-0.701733,-0.377811,4.1572106,0.50
 97587,-0.8063681,0.5598898,0.9317278,-1.0462889,-0.9723948,-0.0058215,
 -0.1274014,-2.7647312,-0.1833767,0.1012546,0.0199651,-0.7083367,-2.653
 2374,0.0478875,0.5548305,-0.6315911,-1.1926394,0.0915147,0.547404,-0.0
 731479,-0.7777296,0.6118861,-0.1615565,-0.4025117,-0.2201757,0.6523441
 ,0.6096937,-0.4467149,0.6066176,1.5133644,-2.0024392,-0.2839243,-0.077
 4622,-0.1893585,-1.1378513,-0.4506698,-0.2738109,-0.5633258,-1.5376142
 ,0.3830304,-0.0038494,-0.0066431,0.0042934,0.3103477,0.1053771,-0.0068
 946,0.0821695,0.2893664,1.4346138,0.6924799,-0.1499347,1.0713806,1.097
 8259,-0.161714,-0.1280343,-0.0911814,0.4443484,-1.4222059,-0.2997644,0
 .2860121,-0.3134934,-1.1779651,-0.3439515,0.352072,-0.3358717,-1.41080
 69,0.4232304,0.0288168,-0.0370726,0.0210999,0.3473663,0.0373582,-0.036
 0849,0.007474,0.3916336\Polar=141.8862941,-0.4626724,161.5258281,-10.4
 303193,10.4900109,86.8580988\Quadrupole=4.7408235,-16.5039318,11.76310
 82,-2.9002741,-2.2600717,-7.1052188\PG=C01 [X(C3H7N3O4)]\NImag=1\\0.60
 701941,-0.00159817,0.42406191,0.03220680,0.03700248,0.14186251,-0.1416
 8463,-0.08180534,0.00233986,0.66924053,-0.03690546,-0.16275020,0.00037
 209,-0.10029813,0.72309626,0.00902671,0.02047708,-0.03550333,-0.136981
 12,0.08290819,0.11061682,-0.05309008,-0.03515957,0.01083090,-0.2714273
 2,0.00996876,0.04448660,0.61039214,-0.02284791,-0.01577082,-0.00166908
 ,0.01628367,-0.11393247,-0.01034799,0.13375962,0.83956253,0.00924936,0
 .00856655,-0.00477749,0.03485395,-0.00522003,-0.04078199,-0.08779861,0
 .00400417,0.09929473,-0.08713177,0.01920064,0.01496950,-0.03291832,0.0
 2642265,0.01051170,-0.11593822,0.08860325,0.01024897,0.77887707,0.0152
 4068,-0.00680709,0.00221180,0.06370355,-0.02517959,-0.00926288,0.04721
 132,-0.35711700,-0.01676756,-0.17046031,0.67092561,0.01998589,-0.00173
 823,0.00746681,0.00977274,-0.00575111,0.00903487,0.00873263,-0.0192532
 3,-0.06031719,-0.11670951,0.04026122,0.15052937,-0.20050286,0.12463947
 ,0.01384538,-0.01675671,0.03955626,0.00540029,0.00760656,-0.10014814,0
 .00294212,-0.26274665,-0.08899802,0.03419518,0.50517001,0.03571043,-0.
 15929129,-0.01427049,0.02771022,-0.09216872,-0.01433814,-0.03328423,-0
 .08984826,0.00129014,-0.07605418,-0.13507554,0.00854772,0.03116939,0.4
 5312380,0.02773213,-0.04668784,-0.05386604,0.00432672,-0.00277461,-0.0
 0187805,0.00126448,0.01259573,0.02783293,0.03388708,0.01149990,-0.0630
 7380,-0.06918587,0.01174378,0.08768803,-0.00358382,0.00120501,-0.00007
 913,-0.01346178,-0.02333992,0.00140681,-0.17264469,-0.15193602,0.02031
 026,0.01114519,0.00484639,-0.00160073,0.00063353,0.00537912,0.00095739
 ,0.17738530,0.00404332,-0.00132692,-0.00076688,0.00706581,0.01021942,-
 0.00078764,-0.16266117,-0.25959489,0.01905461,-0.01659258,-0.00563476,
 0.00248064,-0.00015764,-0.00261612,-0.00000422,0.16692228,0.26002788,0
 .00202160,-0.00108894,0.00304806,0.00161789,0.00387078,-0.00395990,0.0
 2047694,0.01623467,-0.01871857,-0.00151995,0.00013201,-0.00010299,-0.0
 0052804,-0.00026426,0.00601480,-0.02089448,-0.01942586,0.01615060,-0.0
 0323821,-0.00250973,0.00053363,0.00049955,-0.00248489,0.00114916,0.004
 74763,-0.00181228,-0.00052820,-0.28274719,0.12740018,0.04569348,-0.017
 85894,0.01392421,0.00301489,-0.00042467,0.00037847,-0.00035074,0.29849
 796,-0.00545303,-0.00101581,0.00001395,0.00041638,-0.00634171,-0.00069
 072,0.02283541,-0.00064918,-0.00381564,0.13265474,-0.13687275,-0.02476
 912,-0.01539820,0.01522136,0.00352595,-0.00064978,0.00022191,0.0001532
 9,-0.13541073,0.12830366,0.00199560,0.00079263,0.00837253,0.00121448,-
 0.00069636,0.00610585,0.00037132,0.00015210,0.00167349,0.04560361,-0.0
 2433510,-0.04406735,0.00170054,-0.00068103,-0.00552092,-0.00036378,0.0
 0003284,-0.00236031,-0.05019473,0.02530321,0.03516059,-0.06004128,-0.0
 0237763,-0.02578265,-0.00289197,-0.00424000,0.01186865,0.00818346,0.00
 195087,-0.00216721,0.00284614,0.00531777,-0.00363012,-0.02310265,0.010
 98012,0.00192505,0.00034704,-0.00048966,-0.00072961,0.00057375,-0.0001
 1321,-0.00033050,0.04918528,0.00562976,-0.05673241,-0.00003903,-0.0239
 1219,-0.00680002,-0.00862750,0.00341975,-0.00281233,-0.00104796,0.0035
 5925,-0.00311597,-0.00108474,0.01728361,0.00891410,0.01200260,-0.00057
 998,0.00015715,-0.00001113,0.00059706,0.00060115,-0.00106442,-0.020873
 39,0.08206936,-0.06171256,-0.00739352,-0.05392567,0.01710483,0.0013547
 8,0.00649100,0.00206944,0.00608125,-0.00079420,0.00430853,-0.00343060,
 -0.00125913,0.01339370,0.00675478,0.00525256,0.00123634,-0.00041405,-0
 .00015787,0.00113072,0.00051838,-0.00049814,-0.01177095,-0.01106097,0.
 05651396,0.01007096,-0.00060869,-0.00800781,-0.15767826,0.07292292,0.0
 3702222,-0.01616705,0.03199858,0.01133237,-0.00743924,-0.00133395,0.00
 141005,0.00354015,-0.01463790,-0.00085820,-0.00006437,-0.00130007,-0.0
 0046125,0.00044448,0.00069052,-0.00025725,0.00831874,-0.00094005,0.003
 20077,0.68643819,0.03268328,-0.03319017,-0.01071603,0.05454510,-0.2262
 1937,-0.02213632,0.02089041,0.00413122,-0.00889606,-0.01082986,-0.0051
 7143,0.00122108,-0.01165220,0.02087138,0.00374200,-0.00266351,-0.00078
 342,0.00063141,-0.00038507,0.00156445,0.00015068,-0.02083084,-0.005218
 50,-0.01042397,0.12767875,0.75890351,-0.00265611,-0.00142102,-0.002531
 16,0.04402335,-0.04711809,-0.06294411,0.00282678,-0.00198371,-0.005882
 91,-0.00138342,-0.00182792,0.00093167,-0.00240886,0.00992858,-0.001035
 52,-0.00044405,0.00024471,-0.00013069,0.00000030,0.00029787,0.00135163
 ,-0.00704563,-0.00186860,-0.00229770,-0.13380272,0.02525888,0.23507501
 ,-0.00992254,-0.00217260,0.00515556,0.01779456,-0.00125775,-0.00852119
 ,0.00271774,-0.00148967,0.00049762,0.00401092,0.00484585,-0.00020985,0
 .00182680,-0.00485738,-0.00056783,0.00131617,0.00216009,-0.00008944,0.
 00017540,0.00009484,-0.00009548,0.00464173,0.00183066,0.00139179,-0.20
 383582,-0.18833152,0.01884296,0.25435203,-0.00878017,0.00034987,-0.000
 08954,-0.01397757,-0.09767128,-0.02132376,0.00012953,0.00002070,0.0034
 0715,0.00145943,0.00472098,0.00003793,0.00455625,-0.01620089,-0.002184
 31,0.00042924,-0.00090636,-0.00027016,0.00046139,-0.00033237,-0.000236
 49,0.01309489,0.00235791,0.00594238,-0.19675012,-0.41595247,0.01915644
 ,0.25433747,0.53056907,0.00479869,0.00161038,0.00248250,-0.00362711,-0
 .01942774,0.01615557,-0.00068240,-0.00005451,-0.00254357,-0.00087906,-
 0.00076342,-0.00011777,0.00053586,-0.00148227,0.00125233,-0.00027585,-
 0.00049888,0.00031673,0.00002421,-0.00006362,0.00001959,0.00040733,0.0
 0052820,0.00003103,0.01337435,0.01605944,-0.07788304,-0.03580041,-0.01
 325570,0.04399912,0.01434134,-0.00387558,-0.00566649,-0.05331370,0.019
 70358,0.03279438,0.00049901,0.00853531,0.00045042,-0.00662135,-0.00703
 794,0.00092056,-0.00248617,0.01184734,0.00185386,-0.00037175,0.0004427
 2,0.00010727,-0.00020726,0.00060557,-0.00017142,-0.01108951,-0.0022027
 4,-0.00390746,-0.29045982,0.00445033,0.07448139,-0.07581787,-0.0519308
 9,0.02178608,0.50165555,0.00368775,0.00376800,0.00009022,0.04265717,-0
 .00154142,-0.01230082,-0.00543311,-0.00279099,-0.00112334,0.00235965,-
 0.00182150,-0.00055614,-0.00003974,0.00177105,-0.00063133,0.00036111,0
 .00022459,0.00003933,0.00001728,-0.00044759,0.00030230,-0.00110115,0.0
 0058719,0.00105813,-0.00180735,-0.11145896,-0.00921114,-0.07377130,-0.
 01112824,0.02000459,0.11597596,0.31060708,-0.00445201,0.00188226,-0.00
 066671,0.02945124,-0.00855843,0.00037572,-0.00095999,-0.00410297,0.005
 12767,0.00263290,0.00172425,0.00017113,0.00096339,-0.00356552,-0.00002
 877,0.00013443,-0.00010732,-0.00025865,-0.00007588,-0.00035431,-0.0006
 2006,0.00302506,0.00119296,0.00120787,0.07433425,-0.00842928,-0.076872
 80,0.01950590,0.01354164,0.01186082,-0.13338146,0.00246128,0.07222796,
 0.00340203,0.00053681,0.00199889,-0.00034169,-0.00027417,0.00059100,0.
 00053386,0.00038509,-0.00013377,0.00039352,-0.00013927,-0.00010480,0.0
 0008627,0.00115312,0.00017191,0.00006098,-0.00003639,-0.00002798,0.000
 10899,0.00004967,-0.00004888,-0.01945862,0.00091255,0.00150223,0.00097
 545,-0.00237940,-0.00064833,-0.00011409,0.00080127,0.00008625,-0.00394
 366,-0.00183450,0.00202727,0.05901607,-0.00398804,-0.00058316,-0.00241
 169,0.00021522,-0.00012866,-0.00061138,-0.00033352,-0.00027093,0.00008
 644,0.00000673,-0.00001735,0.00014245,0.00036147,-0.00061031,-0.000590
 33,-0.00001971,0.00000702,0.00003659,-0.00002088,-0.00001159,0.0000474
 1,0.01037290,0.00340407,0.00471782,-0.00344312,0.00104010,0.00143147,0
 .00092358,0.00011530,-0.00033755,0.00512278,0.00467356,-0.00040209,-0.
 00273954,0.09742614,-0.00736026,-0.00194438,-0.00512565,0.00063131,-0.
 00009611,-0.00111958,-0.00060067,-0.00051649,0.00016555,-0.00006036,0.
 00003113,0.00020831,0.00045226,-0.00120360,-0.00101272,-0.00003517,0.0
 0001244,0.00008272,-0.00005236,-0.00003069,0.00011120,0.02050872,0.003
 68624,0.01089162,-0.00552707,0.00255274,0.00225197,0.00171766,0.000119
 24,-0.00054948,0.01131717,0.00905919,-0.00264505,0.00494593,0.01374017
 ,0.09178386,-0.06595263,-0.01512012,-0.04166025,0.00047955,0.00256266,
 -0.00652477,-0.00416914,-0.00179851,0.00070600,-0.00243440,-0.00085937
 ,0.00166116,0.00411422,-0.00723868,-0.00443418,-0.00032603,0.00024843,
 0.00033298,-0.00055457,-0.00017764,0.00052801,0.03147180,0.00391537,0.
 03620398,-0.00520627,0.01115802,0.00442463,-0.00180876,-0.00660685,-0.
 00036072,0.00775523,0.00180842,-0.00260102,-0.01351951,-0.00566716,-0.
 03167169,0.07995485,-0.01747960,0.00888851,-0.01091614,0.00294948,0.00
 118031,-0.00010330,-0.00110216,0.00020070,0.00019959,-0.00101313,0.000
 31142,0.00057738,-0.00127873,-0.00221370,-0.00219111,0.00002840,0.0000
 3509,-0.00001503,-0.00015777,-0.00012159,0.00025172,0.00798425,-0.0238
 5453,0.01227102,0.00067077,0.00215877,0.00077156,-0.00101777,-0.001644
 11,-0.00000006,-0.00100126,-0.00194778,-0.00021213,-0.00047461,-0.0213
 1259,0.02509641,-0.04249227,0.21174563,-0.03535039,-0.01078466,-0.0114
 7599,-0.00332599,0.00060812,-0.00332318,-0.00160416,-0.00156356,0.0002
 9018,-0.00136923,0.00034026,0.00067331,-0.00061668,-0.00304523,-0.0020
 3294,-0.00033127,0.00016671,0.00014754,-0.00034139,-0.00012232,0.00026
 413,0.02494926,0.00900537,-0.00930823,0.00016227,0.00475214,0.00085845
 ,-0.00186979,-0.00370848,0.00021203,-0.00244430,-0.00418944,0.00022028
 ,-0.01118716,0.01841725,0.02001407,0.06336979,-0.21383896,0.43920775,-
 0.00366644,-0.00348601,-0.00068503,-0.00117892,-0.00011949,-0.00064511
 ,-0.00013236,-0.00035332,0.00002238,-0.00004866,0.00002011,0.00000516,
 0.00012477,-0.00017537,-0.00004302,-0.00007158,0.00002102,0.00004021,-
 0.00002980,-0.00000080,0.00001521,0.00483934,0.00968574,-0.00664074,-0
 .00033123,0.00053802,0.00007090,-0.00004218,-0.00031169,0.00001879,0.0
 0041841,0.00014080,-0.00005589,0.00178813,-0.00716990,0.00120369,-0.02
 468344,0.04030162,-0.05965651,0.02415069,-0.00253847,-0.00093246,-0.00
 086450,-0.00027522,-0.00003476,-0.00009420,-0.00013823,-0.00009343,0.0
 0006252,-0.00007345,-0.00001405,0.00003713,0.00003406,-0.00015791,-0.0
 0008860,-0.00002562,0.00000921,0.00001483,-0.00002133,-0.00000450,0.00
 001327,0.00325249,0.00241946,-0.00199089,-0.00012157,0.00031491,0.0000
 4394,-0.00007285,-0.00019892,0.00000909,0.00001831,-0.00017782,0.00006
 264,-0.00345337,0.00596477,-0.00138589,0.04372141,-0.16753935,0.244308
 90,-0.04240339,0.16379378,-0.00022028,-0.00053735,0.00073379,-0.000343
 38,-0.00002092,-0.00013360,0.00006196,-0.00005231,-0.00000961,-0.00002
 145,0.00004917,-0.00001150,-0.00006662,0.00002948,0.00004739,-0.000010
 97,0.00000248,-0.00001812,-0.00000372,-0.00000415,-0.00000720,-0.00017
 115,0.00238274,-0.00449712,-0.00006245,-0.00010271,-0.00005345,0.00002
 234,0.00003195,0.00000814,-0.00013092,-0.00008871,0.00012056,-0.003363
 93,0.00777588,-0.00540024,-0.06133113,0.23057898,-0.36658179,0.0640912
 2,-0.23712847,0.37685648,-0.00464037,0.00260186,-0.00052069,0.00620010
 ,-0.00381200,-0.00294823,-0.00078357,-0.00180349,0.00004613,0.00162775
 ,0.00067567,-0.00019518,0.00062062,-0.00198698,-0.00087633,0.00010592,
 -0.00012541,-0.00001840,0.00013050,-0.00016983,0.00005129,0.00467721,0
 .00189591,0.00321564,-0.04987971,-0.00879029,0.01123518,0.01363452,0.0
 0761705,-0.00170986,-0.02707104,-0.03068987,-0.00025955,0.00607755,-0.
 00732674,-0.01696572,-0.00585279,0.00292177,0.00648016,-0.00042140,0.0
 0023305,0.00026965,0.05023331,-0.00237658,0.00179758,0.00107564,0.0078
 3192,-0.00319118,-0.00489857,-0.00067027,-0.00190777,0.00040716,0.0011
 3742,0.00127835,-0.00013392,0.00070968,-0.00362205,-0.00030066,0.00005
 114,-0.00008746,-0.00002567,0.00000297,-0.00020418,-0.00002577,0.00526
 170,-0.00009389,-0.00039960,-0.03318918,0.01863908,0.01487090,0.017673
 08,0.00969101,-0.00492847,-0.03400820,-0.14636097,-0.00632817,-0.00166
 656,-0.01444299,-0.01933433,-0.00512392,0.00393078,0.00762824,-0.00029
 416,0.00033999,0.00019901,0.00810078,0.12104579,0.00051091,0.00023280,
 0.00061734,-0.00094585,0.00081527,0.00050115,0.00019040,0.00026766,-0.
 00048512,-0.00034439,0.00009748,0.00004782,-0.00022500,-0.00001953,-0.
 00001331,-0.00003041,0.00002992,0.00000541,-0.00003825,0.00002775,0.00
 006693,0.00011945,-0.00144741,-0.00143513,0.00766476,0.00767314,-0.012
 38776,0.00007984,-0.00175683,0.00537106,0.00071879,-0.00661510,-0.0207
 7561,-0.00889541,-0.00671242,0.00261866,0.00144324,0.00045280,-0.00064
 054,0.00010511,-0.00008316,-0.00024725,-0.00046356,0.00696162,0.058883
 11,-0.00168865,0.00070992,0.00088212,-0.00239286,0.00152528,0.00118049
 ,-0.00038567,0.00062930,0.00000016,-0.00089505,-0.00041318,0.00006103,
 -0.00024426,0.00017086,0.00087709,-0.00004735,0.00007811,0.00001913,-0
 .00012816,0.00001935,-0.00002424,0.00151421,-0.00026789,-0.00109538,0.
 02039712,-0.00546011,-0.00689693,-0.00852027,-0.00438927,0.00207226,-0
 .04924285,-0.04940105,0.01075730,-0.03465931,0.01824234,0.01717171,0.0
 0096911,0.00966274,0.02234288,-0.00070843,0.00201461,0.00140622,0.0004
 5605,0.03799427,-0.00885969,0.09116075,0.00464941,-0.00035672,0.000977
 07,-0.00300082,0.00144503,0.00205644,0.00050205,0.00086001,-0.00019389
 ,-0.00041384,-0.00042207,-0.00002193,-0.00060316,0.00180359,0.00034773
 ,-0.00000974,0.00004973,-0.00001063,0.00001122,0.00008182,-0.00000669,
 -0.00762675,-0.00182972,-0.00350022,0.02003364,-0.00921529,-0.00811433
 ,-0.00870518,-0.00372317,0.00245332,-0.06424300,-0.04334884,0.01168879
 ,0.01302634,-0.08996048,-0.02038989,0.01877263,-0.00603721,-0.04463899
 ,0.00379413,-0.00385294,-0.00340726,0.02652113,0.01716543,-0.00682181,
 -0.04042001,0.35579462,0.00424853,0.00081662,0.00310420,-0.00002966,-0
 .00035908,0.00028570,0.00041448,0.00017448,-0.00008404,0.00021715,0.00
 007853,-0.00011870,-0.00037406,0.00061380,0.00028462,0.00002754,-0.000
 02932,-0.00005963,0.00005501,0.00001204,-0.00004792,-0.01121948,-0.002
 36472,-0.00556509,-0.00059285,-0.00123558,0.00201389,0.00046596,0.0009
 3894,-0.00076619,0.00463877,0.00463018,0.01024972,0.01807357,-0.055835
 77,-0.09558355,0.03818920,-0.03997263,-0.06835714,0.00249906,-0.003215
 31,-0.00121502,-0.00181828,0.00125652,-0.03268093,-0.00317922,-0.15393
 608,0.52459076,0.00030955,-0.00018026,-0.00036058,-0.00016814,0.000069
 72,0.00018239,0.00005770,0.00004366,-0.00003196,0.00002026,-0.00001949
 ,0.00001232,-0.00002468,0.00018990,-0.00004516,0.00000191,0.00000266,0
 .00000385,0.00001052,0.00000675,0.00000622,-0.00001468,0.00004659,0.00
 036912,0.00087668,-0.00062112,-0.00061945,-0.00040835,-0.00013997,0.00
 023160,-0.00404456,-0.00293005,-0.00104596,-0.00040597,-0.00453640,0.0
 0432485,-0.00023723,0.00149826,0.00079250,-0.00000690,-0.00015046,-0.0
 0012539,0.00488534,-0.00143411,0.00897006,-0.01558437,0.03771195,-0.05
 161573,0.01473289,0.00032281,-0.00010882,0.00000016,-0.00010926,0.0000
 1836,0.00008154,0.00006541,0.00001289,-0.00001384,0.00003359,0.0000127
 6,0.00000287,-0.00003435,0.00009951,-0.00000465,0.00000158,-0.00000207
 ,-0.00000125,0.00000991,0.00000693,-0.00000032,-0.00056235,-0.00005301
 ,-0.00008472,0.00013683,-0.00041381,-0.00045954,-0.00018954,-0.0000670
 5,0.00014719,-0.00240231,-0.00060737,-0.00049358,-0.00386703,0.0147071
 3,-0.00939617,0.00289757,-0.00378035,-0.00333536,-0.00018731,0.0001640
 3,0.00029221,0.00413739,-0.00397753,0.00689782,0.02930471,-0.21845379,
 0.24842740,-0.02955764,0.21244219,-0.00002461,0.00021515,0.00018431,-0
 .00008326,0.00009327,0.00007705,-0.00008014,0.00003378,0.00001014,-0.0
 0009209,-0.00003826,0.00000514,-0.00002358,-0.00003820,0.00008940,-0.0
 0000694,0.00000984,0.00000087,-0.00001614,-0.00000185,-0.00000403,0.00
 004379,-0.00018163,-0.00064973,0.00106858,-0.00010156,-0.00046349,-0.0
 0052564,-0.00035042,0.00015114,-0.00336666,-0.00292919,0.00030594,-0.0
 0498679,0.02050576,-0.01669169,0.00172478,-0.00295009,-0.00016792,-0.0
 0034543,0.00029872,0.00040855,0.00447774,0.00397608,0.00055419,-0.0367
 1493,0.22351838,-0.33605069,0.03895131,-0.24205977,0.35224084\\-0.0000
 5182,-0.00007677,-0.00006562,-0.00001004,-0.00001176,-0.00000486,-0.00
 000216,-0.00000700,0.00000960,-0.00001522,0.00000580,0.00001074,0.0000
 1280,0.00002363,0.00001619,-0.00000542,0.00000622,-0.00000460,0.000003
 84,0.00000429,0.00001950,0.00002216,0.00007254,0.00007169,-0.00004250,
 0.00002853,0.00001800,-0.00000206,0.00001152,-0.00001563,0.00006254,0.
 00004695,-0.00005763,-0.00000409,-0.00009980,0.00008749,0.00000178,0.0
 0008312,-0.00006423,0.00004403,-0.00008339,0.00001319,0.00002891,-0.00
 005689,0.00001787,-0.00004246,0.00004024,-0.00004208,-0.00000028,0.000
 01277,-0.00000962\\\@


 Mondays are the potholes in the road of life.
                                -- Tom Wilson
 Job cpu time:       0 days  1 hours 40 minutes  0.9 seconds.
 Elapsed time:       0 days  0 hours  4 minutes 11.0 seconds.
 File lengths (MBytes):  RWF=    221 Int=      0 D2E=      0 Chk=     14 Scr=      1
 Normal termination of Gaussian 16 at Wed Jul 12 11:29:06 2023.
