 Entering Gaussian System, Link 0=/home/gau/soft/g16/g16
 Initial command:
 /home/gau/soft/g16/l1.exe "/home/gau/soft/scratch/Gau-117005.inp" -scrdir="/home/gau/soft/scratch/"
 Entering Link 1 = /home/gau/soft/g16/l1.exe PID=    117006.
  
 Copyright (c) 1988-2019, Gaussian, Inc.  All Rights Reserved.
  
 This is part of the Gaussian(R) 16 program.  It is based on
 the Gaussian(R) 09 system (copyright 2009, Gaussian, Inc.),
 the Gaussian(R) 03 system (copyright 2003, Gaussian, Inc.),
 the Gaussian(R) 98 system (copyright 1998, Gaussian, Inc.),
 the Gaussian(R) 94 system (copyright 1995, Gaussian, Inc.),
 the Gaussian 92(TM) system (copyright 1992, Gaussian, Inc.),
 the Gaussian 90(TM) system (copyright 1990, Gaussian, Inc.),
 the Gaussian 88(TM) system (copyright 1988, Gaussian, Inc.),
 the Gaussian 86(TM) system (copyright 1986, Carnegie Mellon
 University), and the Gaussian 82(TM) system (copyright 1983,
 Carnegie Mellon University). Gaussian is a federally registered
 trademark of Gaussian, Inc.
  
 This software contains proprietary and confidential information,
 including trade secrets, belonging to Gaussian, Inc.
  
 This software is provided under written license and may be
 used, copied, transmitted, or stored only in accord with that
 written license.
  
 The following legend is applicable only to US Government
 contracts under FAR:
  
                    RESTRICTED RIGHTS LEGEND
  
 Use, reproduction and disclosure by the US Government is
 subject to restrictions as set forth in subparagraphs (a)
 and (c) of the Commercial Computer Software - Restricted
 Rights clause in FAR 52.227-19.
  
 Gaussian, Inc.
 340 Quinnipiac St., Bldg. 40, Wallingford CT 06492
  
  
 ---------------------------------------------------------------
 Warning -- This program may not be used in any manner that
 competes with the business of Gaussian, Inc. or will provide
 assistance to any competitor of Gaussian, Inc.  The licensee
 of this program is prohibited from giving any competitor of
 Gaussian, Inc. access to this program.  By using this program,
 the user acknowledges that Gaussian, Inc. is engaged in the
 business of creating and licensing software in the field of
 computational chemistry and represents and warrants to the
 licensee that it is not a competitor of Gaussian, Inc. and that
 it will not use this program in any manner prohibited above.
 ---------------------------------------------------------------
  

 Cite this work as:
 Gaussian 16, Revision C.01,
 M. J. Frisch, G. W. Trucks, H. B. Schlegel, G. E. Scuseria, 
 M. A. Robb, J. R. Cheeseman, G. Scalmani, V. Barone, 
 G. A. Petersson, H. Nakatsuji, X. Li, M. Caricato, A. V. Marenich, 
 J. Bloino, B. G. Janesko, R. Gomperts, B. Mennucci, H. P. Hratchian, 
 J. V. Ortiz, A. F. Izmaylov, J. L. Sonnenberg, D. Williams-Young, 
 F. Ding, F. Lipparini, F. Egidi, J. Goings, B. Peng, A. Petrone, 
 T. Henderson, D. Ranasinghe, V. G. Zakrzewski, J. Gao, N. Rega, 
 G. Zheng, W. Liang, M. Hada, M. Ehara, K. Toyota, R. Fukuda, 
 J. Hasegawa, M. Ishida, T. Nakajima, Y. Honda, O. Kitao, H. Nakai, 
 T. Vreven, K. Throssell, J. A. Montgomery, Jr., J. E. Peralta, 
 F. Ogliaro, M. J. Bearpark, J. J. Heyd, E. N. Brothers, K. N. Kudin, 
 V. N. Staroverov, T. A. Keith, R. Kobayashi, J. Normand, 
 K. Raghavachari, A. P. Rendell, J. C. Burant, S. S. Iyengar, 
 J. Tomasi, M. Cossi, J. M. Millam, M. Klene, C. Adamo, R. Cammi, 
 J. W. Ochterski, R. L. Martin, K. Morokuma, O. Farkas, 
 J. B. Foresman, and D. J. Fox, Gaussian, Inc., Wallingford CT, 2019.
 
 ******************************************
 Gaussian 16:  ES64L-G16RevC.01  3-Jul-2019
                 7-Dec-2023 
 ******************************************
 %mem=10GB
 %nprocshared=48
 Will use up to   48 processors via shared memory.
 -----------------------------------------------------
 # opt freq 6-31+g(d,p) scrf=(smd,solvent=water) m062x
 -----------------------------------------------------
 1/18=20,19=15,26=3,38=1/1,3;
 2/9=110,12=2,17=6,18=5,40=1/2;
 3/5=1,6=6,7=111,11=2,25=1,30=1,70=32201,71=1,72=1,74=-55/1,2,3;
 4//1;
 5/5=2,38=5,53=1/2;
 6/7=2,8=2,9=2,10=2,28=1/1;
 7//1,2,3,16;
 1/18=20,19=15,26=3/3(2);
 2/9=110/2;
 99//99;
 2/9=110/2;
 3/5=1,6=6,7=111,11=2,25=1,30=1,70=32205,71=1,72=1,74=-55/1,2,3;
 4/5=5,16=3,69=1/1;
 5/5=2,38=5,53=1/2;
 7//1,2,3,16;
 1/18=20,19=15,26=3/3(-5);
 2/9=110/2;
 6/7=2,8=2,9=2,10=2,19=2,28=1/1;
 99/9=1/99;
 ----
 test
 ----
 Symbolic Z-matrix:
 Charge =  0 Multiplicity = 1
 N                     0.2785    1.03787   0.03937 
 N                     0.50068  -0.28915   0.00339 
 C                     1.83418  -0.5566   -0.03035 
 C                     2.4163    0.67903  -0.01451 
 N                     1.42639   1.62369   0.02879 
 H                     2.22241  -1.56222  -0.06247 
 H                     3.45992   0.94913  -0.03149 
 H                    -1.78447   2.19051  -0.16518 
 C                    -0.55736  -1.25643   0.00768 
 O                    -0.26116  -2.43204   0.01175 
 O                    -1.76795  -0.79817   0.01001 
 H                    -1.96898   0.23125  -0.02756 
 O                    -2.40312   1.46002  -0.01228 
 H                    -3.27834   1.77961  -0.27644 
 
 Add virtual bond connecting atoms O13        and H12        Dist= 2.46D+00.

 GradGradGradGradGradGradGradGradGradGradGradGradGradGradGradGradGradGrad
 Berny optimization.
 Initialization pass.
                           ----------------------------
                           !    Initial Parameters    !
                           ! (Angstroms and Degrees)  !
 --------------------------                            --------------------------
 ! Name  Definition              Value          Derivative Info.                !
 --------------------------------------------------------------------------------
 ! R1    R(1,2)                  1.346          estimate D2E/DX2                !
 ! R2    R(1,5)                  1.2888         estimate D2E/DX2                !
 ! R3    R(2,3)                  1.3605         estimate D2E/DX2                !
 ! R4    R(2,9)                  1.4336         estimate D2E/DX2                !
 ! R5    R(3,4)                  1.366          estimate D2E/DX2                !
 ! R6    R(3,6)                  1.0784         estimate D2E/DX2                !
 ! R7    R(4,5)                  1.369          estimate D2E/DX2                !
 ! R8    R(4,7)                  1.0781         estimate D2E/DX2                !
 ! R9    R(8,13)                 0.9694         estimate D2E/DX2                !
 ! R10   R(9,10)                 1.2124         estimate D2E/DX2                !
 ! R11   R(9,11)                 1.2944         estimate D2E/DX2                !
 ! R12   R(11,12)                1.0495         estimate D2E/DX2                !
 ! R13   R(12,13)                1.3033         estimate D2E/DX2                !
 ! R14   R(13,14)                0.9685         estimate D2E/DX2                !
 ! A1    A(2,1,5)              107.5121         estimate D2E/DX2                !
 ! A2    A(1,2,3)              110.8715         estimate D2E/DX2                !
 ! A3    A(1,2,9)              122.9104         estimate D2E/DX2                !
 ! A4    A(3,2,9)              126.2176         estimate D2E/DX2                !
 ! A5    A(2,3,4)              103.8629         estimate D2E/DX2                !
 ! A6    A(2,3,6)              122.4736         estimate D2E/DX2                !
 ! A7    A(4,3,6)              133.6635         estimate D2E/DX2                !
 ! A8    A(3,4,5)              108.4455         estimate D2E/DX2                !
 ! A9    A(3,4,7)              129.7135         estimate D2E/DX2                !
 ! A10   A(5,4,7)              121.8409         estimate D2E/DX2                !
 ! A11   A(1,5,4)              109.308          estimate D2E/DX2                !
 ! A12   A(2,9,10)             118.2926         estimate D2E/DX2                !
 ! A13   A(2,9,11)             116.8326         estimate D2E/DX2                !
 ! A14   A(10,9,11)            124.8746         estimate D2E/DX2                !
 ! A15   A(9,11,12)            121.7561         estimate D2E/DX2                !
 ! A16   A(8,13,12)            119.7377         estimate D2E/DX2                !
 ! A17   A(8,13,14)            106.5615         estimate D2E/DX2                !
 ! A18   A(12,13,14)           127.5143         estimate D2E/DX2                !
 ! A19   L(11,12,13,1,-1)      188.3236         estimate D2E/DX2                !
 ! A20   L(11,12,13,1,-2)      182.9834         estimate D2E/DX2                !
 ! D1    D(5,1,2,3)              0.0393         estimate D2E/DX2                !
 ! D2    D(5,1,2,9)            179.7809         estimate D2E/DX2                !
 ! D3    D(2,1,5,4)              0.0012         estimate D2E/DX2                !
 ! D4    D(1,2,3,4)             -0.0619         estimate D2E/DX2                !
 ! D5    D(1,2,3,6)           -179.9788         estimate D2E/DX2                !
 ! D6    D(9,2,3,4)           -179.793          estimate D2E/DX2                !
 ! D7    D(9,2,3,6)              0.2901         estimate D2E/DX2                !
 ! D8    D(1,2,9,10)          -177.9388         estimate D2E/DX2                !
 ! D9    D(1,2,9,11)             1.907          estimate D2E/DX2                !
 ! D10   D(3,2,9,10)             1.762          estimate D2E/DX2                !
 ! D11   D(3,2,9,11)          -178.3922         estimate D2E/DX2                !
 ! D12   D(2,3,4,5)              0.0609         estimate D2E/DX2                !
 ! D13   D(2,3,4,7)           -179.9031         estimate D2E/DX2                !
 ! D14   D(6,3,4,5)            179.9639         estimate D2E/DX2                !
 ! D15   D(6,3,4,7)              0.0            estimate D2E/DX2                !
 ! D16   D(3,4,5,1)             -0.0405         estimate D2E/DX2                !
 ! D17   D(7,4,5,1)            179.9269         estimate D2E/DX2                !
 ! D18   D(2,9,11,12)            2.3363         estimate D2E/DX2                !
 ! D19   D(10,9,11,12)        -177.8291         estimate D2E/DX2                !
 ! D20   D(9,11,13,8)           10.0244         estimate D2E/DX2                !
 ! D21   D(9,11,13,14)         160.5609         estimate D2E/DX2                !
 ! D22   D(14,12,13,8)        -148.4774         estimate D2E/DX2                !
 --------------------------------------------------------------------------------
 Trust Radius=3.00D-01 FncErr=1.00D-07 GrdErr=1.00D-06 EigMax=2.50D+02 EigMin=1.00D-04
 Number of steps in this run=     66 maximum allowed number of steps=    100.
 GradGradGradGradGradGradGradGradGradGradGradGradGradGradGradGradGradGrad

                          Input orientation:                          
 ---------------------------------------------------------------------
 Center     Atomic      Atomic             Coordinates (Angstroms)
 Number     Number       Type             X           Y           Z
 ---------------------------------------------------------------------
      1          7           0        0.278502    1.037874    0.039368
      2          7           0        0.500680   -0.289153    0.003393
      3          6           0        1.834175   -0.556597   -0.030354
      4          6           0        2.416299    0.679032   -0.014512
      5          7           0        1.426393    1.623687    0.028788
      6          1           0        2.222414   -1.562216   -0.062474
      7          1           0        3.459917    0.949132   -0.031488
      8          1           0       -1.784473    2.190507   -0.165180
      9          6           0       -0.557363   -1.256428    0.007684
     10          8           0       -0.261160   -2.432044    0.011746
     11          8           0       -1.767951   -0.798173    0.010007
     12          1           0       -1.968976    0.231252   -0.027563
     13          8           0       -2.403117    1.460019   -0.012276
     14          1           0       -3.278345    1.779607   -0.276437
 ---------------------------------------------------------------------
                    Distance matrix (angstroms):
                    1          2          3          4          5
     1  N    0.000000
     2  N    1.345978   0.000000
     3  C    2.228748   1.360468   0.000000
     4  C    2.168374   2.146462   1.365979   0.000000
     5  N    1.288776   2.125217   2.218879   1.369000   0.000000
     6  H    3.248020   2.142288   1.078439   2.250130   3.285111
     7  H    3.183441   3.208060   2.215910   1.078138   2.143333
     8  H    2.371976   3.376249   4.545258   4.466961   3.266277
     9  C    2.442027   1.433560   2.492120   3.548121   3.497255
    10  O    3.511742   2.274302   2.812384   4.104664   4.392844
    11  O    2.749527   2.325044   3.610443   4.437419   4.008690
    12  H    2.388781   2.524080   3.883899   4.408096   3.670229
    13  O    2.715134   3.389968   4.692729   4.882286   3.833226
    14  H    3.647062   4.317303   5.626390   5.805931   4.717206
                    6          7          8          9         10
     6  H    0.000000
     7  H    2.799865   0.000000
     8  H    5.490776   5.390966   0.000000
     9  C    2.797425   4.583074   3.662928   0.000000
    10  O    2.632537   5.027985   4.870294   1.212364   0.000000
    11  O    4.063499   5.512295   2.993856   1.294421   2.222601
    12  H    4.559111   5.476153   1.972729   2.051118   3.164068
    13  O    5.525573   5.885282   0.969388   3.284249   4.442602
    14  H    6.439869   6.793663   1.553342   4.086805   5.188878
                   11         12         13         14
    11  O    0.000000
    12  H    1.049542   0.000000
    13  O    2.345925   1.303296   0.000000
    14  H    3.001381   2.042985   0.968474   0.000000
 Stoichiometry    C3H5N3O3
 Framework group  C1[X(C3H5N3O3)]
 Deg. of freedom    36
 Full point group                 C1      NOp   1
 Largest Abelian subgroup         C1      NOp   1
 Largest concise Abelian subgroup C1      NOp   1
                         Standard orientation:                         
 ---------------------------------------------------------------------
 Center     Atomic      Atomic             Coordinates (Angstroms)
 Number     Number       Type             X           Y           Z
 ---------------------------------------------------------------------
      1          7           0        0.321359   -1.033632   -0.046776
      2          7           0        0.473948    0.302937   -0.002522
      3          6           0        1.791530    0.639240    0.039354
      4          6           0        2.437287   -0.564302    0.019760
      5          7           0        1.498140   -1.558947   -0.033603
      6          1           0        2.126710    1.663507    0.078850
      7          1           0        3.493464   -0.779801    0.040510
      8          1           0       -1.679727   -2.293230    0.141199
      9          6           0       -0.633005    1.213832   -0.006896
     10          8           0       -0.398417    2.403278   -0.003125
     11          8           0       -1.818058    0.693201   -0.017763
     12          1           0       -1.965371   -0.345489    0.013239
     13          8           0       -2.334848   -1.595083   -0.010859
     14          1           0       -3.193482   -1.961287    0.247181
 ---------------------------------------------------------------------
 Rotational constants (GHZ):           2.2083651           1.5379055           0.9070943
 Standard basis: 6-31+G(d,p) (6D, 7F)
 There are   196 symmetry adapted cartesian basis functions of A   symmetry.
 There are   196 symmetry adapted basis functions of A   symmetry.
   196 basis functions,   323 primitive gaussians,   196 cartesian basis functions
    34 alpha electrons       34 beta electrons
       nuclear repulsion energy       458.9579579902 Hartrees.
 NAtoms=   14 NActive=   14 NUniq=   14 SFac= 1.00D+00 NAtFMM=   60 NAOKFM=F Big=F
 Integral buffers will be    131072 words long.
 Raffenetti 2 integral format.
 Two-electron integral symmetry is turned on.
 ------------------------------------------------------------------------------
 Polarizable Continuum Model (PCM)
 =================================
 Model                : PCM.
 Atomic radii         : SMD-Coulomb.
 Polarization charges : Total charges.
 Charge compensation  : None.
 Solution method      : On-the-fly selection.
 Cavity type          : VdW (van der Waals Surface) (Alpha=1.000).
 Cavity algorithm     : GePol (No added spheres)
                        Default sphere list used, NSphG=   14.
                        Lebedev-Laikov grids with approx.  5.0 points / Ang**2.
                        Smoothing algorithm: York/Karplus (Gamma=1.0000).
                        Polarization charges: spherical gaussians, with
                                              point-specific exponents (IZeta= 3).
                        Self-potential: point-specific (ISelfS= 7).
                        Self-field    : sphere-specific E.n sum rule (ISelfD= 2).
 1st derivatives      : Analytical E(r).r(x)/FMM algorithm (CHGder, D1EAlg=3).
                        Cavity 1st derivative terms included.
 Solvent              : Water, Eps=  78.355300 Eps(inf)=   1.777849
 ------------------------------------------------------------------------------
 Spheres list:
 ISph  on   Nord     Re0    Alpha      Xe            Ye            Ze
    1   N      1    1.8900  1.000      0.321359     -1.033632     -0.046776
    2   N      2    1.8900  1.000      0.473948      0.302937     -0.002522
    3   C      3    1.8500  1.000      1.791530      0.639240      0.039354
    4   C      4    1.8500  1.000      2.437287     -0.564302      0.019760
    5   N      5    1.8900  1.000      1.498140     -1.558947     -0.033603
    6   H      6    1.2000  1.000      2.126710      1.663507      0.078850
    7   H      7    1.2000  1.000      3.493464     -0.779801      0.040510
    8   H      8    1.2000  1.000     -1.679727     -2.293230      0.141199
    9   C      9    1.8500  1.000     -0.633005      1.213832     -0.006896
   10   O     10    1.5200  1.000     -0.398417      2.403278     -0.003125
   11   O     11    1.5200  1.000     -1.818058      0.693201     -0.017763
   12   H     12    1.2000  1.000     -1.965371     -0.345489      0.013239
   13   O     13    1.5200  1.000     -2.334848     -1.595083     -0.010859
   14   H     14    1.2000  1.000     -3.193482     -1.961287      0.247181
 ------------------------------------------------------------------------------
 ------------------------------------------------------------------------------
 Atomic radii for non-electrostatic terms: SMD-CDS.
 ------------------------------------------------------------------------------
 Nuclear repulsion after PCM non-electrostatic terms =      458.9657409864 Hartrees.
 One-electron integrals computed using PRISM.
 NBasis=   196 RedAO= T EigKep=  1.85D-05  NBF=   196
 NBsUse=   196 1.00D-06 EigRej= -1.00D+00 NBFU=   196
 ExpMin= 4.38D-02 ExpMax= 5.48D+03 ExpMxC= 8.25D+02 IAcc=3 IRadAn=         5 AccDes= 0.00D+00
 Harris functional with IExCor= 1009 and IRadAn=       5 diagonalized for initial guess.
 HarFok:  IExCor= 1009 AccDes= 0.00D+00 IRadAn=         5 IDoV= 1 UseB2=F ITyADJ=14
 ICtDFT=  3500011 ScaDFX=  1.000000  1.000000  1.000000  1.000000
 FoFCou: FMM=F IPFlag=           0 FMFlag=      100000 FMFlg1=           0
         NFxFlg=           0 DoJE=T BraDBF=F KetDBF=T FulRan=T
         wScrn=  0.000000 ICntrl=       500 IOpCl=  0 I1Cent=   200000004 NGrid=           0
         NMat0=    1 NMatS0=      1 NMatT0=    0 NMatD0=    1 NMtDS0=    0 NMtDT0=    0
 Petite list used in FoFCou.
 Requested convergence on RMS density matrix=1.00D-08 within 128 cycles.
 Requested convergence on MAX density matrix=1.00D-06.
 Requested convergence on             energy=1.00D-06.
 No special actions if energy rises.
 Inv3:  Mode=1 IEnd=     4002075.
 Iteration    1 A*A^-1 deviation from unit magnitude is 4.11D-15 for   1149.
 Iteration    1 A*A^-1 deviation from orthogonality  is 1.72D-15 for   1148    890.
 Iteration    1 A^-1*A deviation from unit magnitude is 4.11D-15 for   1149.
 Iteration    1 A^-1*A deviation from orthogonality  is 1.87D-15 for   1017    672.
 Error on total polarization charges =  0.04093
 SCF Done:  E(RM062X) =  -507.084859982     A.U. after   14 cycles
            NFock= 14  Conv=0.34D-08     -V/T= 2.0081
 SMD-CDS (non-electrostatic) energy       (kcal/mol) =       4.88
 (included in total energy above)

 **********************************************************************

            Population analysis using the SCF Density.

 **********************************************************************

 Orbital symmetries:
       Occupied  (A) (A) (A) (A) (A) (A) (A) (A) (A) (A) (A) (A)
                 (A) (A) (A) (A) (A) (A) (A) (A) (A) (A) (A) (A)
                 (A) (A) (A) (A) (A) (A) (A) (A) (A) (A)
       Virtual   (A) (A) (A) (A) (A) (A) (A) (A) (A) (A) (A) (A)
                 (A) (A) (A) (A) (A) (A) (A) (A) (A) (A) (A) (A)
                 (A) (A) (A) (A) (A) (A) (A) (A) (A) (A) (A) (A)
                 (A) (A) (A) (A) (A) (A) (A) (A) (A) (A) (A) (A)
                 (A) (A) (A) (A) (A) (A) (A) (A) (A) (A) (A) (A)
                 (A) (A) (A) (A) (A) (A) (A) (A) (A) (A) (A) (A)
                 (A) (A) (A) (A) (A) (A) (A) (A) (A) (A) (A) (A)
                 (A) (A) (A) (A) (A) (A) (A) (A) (A) (A) (A) (A)
                 (A) (A) (A) (A) (A) (A) (A) (A) (A) (A) (A) (A)
                 (A) (A) (A) (A) (A) (A) (A) (A) (A) (A) (A) (A)
                 (A) (A) (A) (A) (A) (A) (A) (A) (A) (A) (A) (A)
                 (A) (A) (A) (A) (A) (A) (A) (A) (A) (A) (A) (A)
                 (A) (A) (A) (A) (A) (A) (A) (A) (A) (A) (A) (A)
                 (A) (A) (A) (A) (A) (A)
 The electronic state is 1-A.
 Alpha  occ. eigenvalues --  -19.68215 -19.68042 -19.65680 -14.87831 -14.85080
 Alpha  occ. eigenvalues --  -14.81426 -10.74594 -10.60941 -10.58590  -1.27045
 Alpha  occ. eigenvalues --   -1.22858  -1.17920  -1.15221  -1.03810  -0.92452
 Alpha  occ. eigenvalues --   -0.79346  -0.73384  -0.72455  -0.66798  -0.63553
 Alpha  occ. eigenvalues --   -0.59861  -0.57716  -0.55563  -0.53933  -0.53071
 Alpha  occ. eigenvalues --   -0.52179  -0.45444  -0.44102  -0.43344  -0.40529
 Alpha  occ. eigenvalues --   -0.40048  -0.38114  -0.36367  -0.33712
 Alpha virt. eigenvalues --   -0.01865   0.01999   0.03779   0.04417   0.04656
 Alpha virt. eigenvalues --    0.05911   0.06055   0.06507   0.07483   0.09277
 Alpha virt. eigenvalues --    0.09771   0.10500   0.11646   0.12878   0.13062
 Alpha virt. eigenvalues --    0.14907   0.16352   0.16482   0.19306   0.20047
 Alpha virt. eigenvalues --    0.20671   0.21437   0.22242   0.22451   0.23514
 Alpha virt. eigenvalues --    0.24209   0.25416   0.25535   0.25945   0.26315
 Alpha virt. eigenvalues --    0.27083   0.27450   0.28783   0.29174   0.29884
 Alpha virt. eigenvalues --    0.30974   0.31115   0.32534   0.34706   0.34974
 Alpha virt. eigenvalues --    0.36431   0.37503   0.38077   0.40363   0.41476
 Alpha virt. eigenvalues --    0.42971   0.43695   0.47391   0.50446   0.51104
 Alpha virt. eigenvalues --    0.53423   0.63590   0.71870   0.72150   0.75913
 Alpha virt. eigenvalues --    0.78661   0.80760   0.83825   0.85305   0.90523
 Alpha virt. eigenvalues --    0.92398   0.94055   0.94928   0.97061   0.99536
 Alpha virt. eigenvalues --    1.00452   1.01353   1.05923   1.06622   1.07371
 Alpha virt. eigenvalues --    1.11744   1.13961   1.16745   1.17574   1.18508
 Alpha virt. eigenvalues --    1.22426   1.23873   1.24892   1.26096   1.27508
 Alpha virt. eigenvalues --    1.29583   1.31996   1.32334   1.35838   1.37399
 Alpha virt. eigenvalues --    1.37679   1.39889   1.40867   1.43242   1.45013
 Alpha virt. eigenvalues --    1.45422   1.50103   1.52495   1.54167   1.54958
 Alpha virt. eigenvalues --    1.56464   1.60772   1.62110   1.67133   1.70777
 Alpha virt. eigenvalues --    1.72706   1.79530   1.80398   1.84812   1.88830
 Alpha virt. eigenvalues --    1.91000   1.93066   1.95555   1.97537   1.98960
 Alpha virt. eigenvalues --    2.02992   2.06154   2.10933   2.15545   2.18496
 Alpha virt. eigenvalues --    2.22163   2.24171   2.24830   2.27261   2.31357
 Alpha virt. eigenvalues --    2.36432   2.40042   2.40613   2.43343   2.44519
 Alpha virt. eigenvalues --    2.54413   2.56309   2.57549   2.57835   2.58760
 Alpha virt. eigenvalues --    2.63442   2.64240   2.71076   2.72811   2.74356
 Alpha virt. eigenvalues --    2.74604   2.79641   2.83167   2.89319   2.92623
 Alpha virt. eigenvalues --    2.94206   3.00679   3.02869   3.07049   3.11306
 Alpha virt. eigenvalues --    3.17082   3.28463   3.32609   3.41753   3.48536
 Alpha virt. eigenvalues --    3.60729   3.75339   3.82310   4.01266   4.21958
 Alpha virt. eigenvalues --    4.24381   4.38045   4.48449   4.52204   4.58051
 Alpha virt. eigenvalues --    4.73464   4.83513
          Condensed to atoms (all electrons):
               1          2          3          4          5          6
     1  N    7.711771  -0.182391  -0.310177   0.368731  -0.443230   0.002477
     2  N   -0.182391   7.114595   0.329050  -0.205276   0.243506  -0.040822
     3  C   -0.310177   0.329050   5.723681  -0.014917   0.082213   0.408973
     4  C    0.368731  -0.205276  -0.014917   5.668867   0.054979  -0.022347
     5  N   -0.443230   0.243506   0.082213   0.054979   7.378163  -0.002548
     6  H    0.002477  -0.040822   0.408973  -0.022347  -0.002548   0.396347
     7  H    0.027467  -0.017561  -0.018737   0.394562  -0.053586   0.000466
     8  H   -0.001029   0.008846   0.000349  -0.000075  -0.006098  -0.000000
     9  C   -0.052259   0.121101  -0.144692  -0.016774   0.055014  -0.008974
    10  O    0.010565  -0.107543  -0.070032   0.049256  -0.009209  -0.000779
    11  O   -0.038602  -0.092598   0.037505   0.001582  -0.005329  -0.000324
    12  H    0.000178   0.001554   0.002910  -0.005898   0.011408   0.000004
    13  O    0.031799  -0.014791  -0.006466   0.008375  -0.042433   0.000013
    14  H    0.004510  -0.000533   0.000351  -0.000393   0.002166  -0.000000
               7          8          9         10         11         12
     1  N    0.027467  -0.001029  -0.052259   0.010565  -0.038602   0.000178
     2  N   -0.017561   0.008846   0.121101  -0.107543  -0.092598   0.001554
     3  C   -0.018737   0.000349  -0.144692  -0.070032   0.037505   0.002910
     4  C    0.394562  -0.000075  -0.016774   0.049256   0.001582  -0.005898
     5  N   -0.053586  -0.006098   0.055014  -0.009209  -0.005329   0.011408
     6  H    0.000466  -0.000000  -0.008974  -0.000779  -0.000324   0.000004
     7  H    0.435154   0.000000  -0.000997  -0.000196   0.000015  -0.000000
     8  H    0.000000   0.261715  -0.000366   0.000025   0.002652  -0.001168
     9  C   -0.000997  -0.000366   4.450409   0.510992   0.235351  -0.001644
    10  O   -0.000196   0.000025   0.510992   8.273553  -0.098400   0.004800
    11  O    0.000015   0.002652   0.235351  -0.098400   8.500204   0.175176
    12  H   -0.000000  -0.001168  -0.001644   0.004800   0.175176   0.207928
    13  O    0.000008   0.288865  -0.003322  -0.001461  -0.052634   0.014033
    14  H   -0.000000  -0.011538  -0.000496   0.000005   0.001808  -0.000464
              13         14
     1  N    0.031799   0.004510
     2  N   -0.014791  -0.000533
     3  C   -0.006466   0.000351
     4  C    0.008375  -0.000393
     5  N   -0.042433   0.002166
     6  H    0.000013  -0.000000
     7  H    0.000008  -0.000000
     8  H    0.288865  -0.011538
     9  C   -0.003322  -0.000496
    10  O   -0.001461   0.000005
    11  O   -0.052634   0.001808
    12  H    0.014033  -0.000464
    13  O    8.302121   0.274817
    14  H    0.274817   0.256800
 Mulliken charges:
               1
     1  N   -0.129812
     2  N   -0.157135
     3  C   -0.020011
     4  C   -0.280674
     5  N   -0.265015
     6  H    0.267516
     7  H    0.233406
     8  H    0.457823
     9  C    0.856657
    10  O   -0.561577
    11  O   -0.666404
    12  H    0.591184
    13  O   -0.798925
    14  H    0.472968
 Sum of Mulliken charges =   0.00000
 Mulliken charges with hydrogens summed into heavy atoms:
               1
     1  N   -0.129812
     2  N   -0.157135
     3  C    0.247505
     4  C   -0.047268
     5  N   -0.265015
     9  C    0.856657
    10  O   -0.561577
    11  O   -0.075221
    13  O    0.131865
 Electronic spatial extent (au):  <R**2>=           1186.2473
 Charge=             -0.0000 electrons
 Dipole moment (field-independent basis, Debye):
    X=             -0.2021    Y=             -4.7566    Z=              1.2353  Tot=              4.9185
 Quadrupole moment (field-independent basis, Debye-Ang):
   XX=            -34.6155   YY=            -58.6991   ZZ=            -53.0390
   XY=             18.8441   XZ=             -2.4540   YZ=             -2.2004
 Traceless Quadrupole moment (field-independent basis, Debye-Ang):
   XX=             14.1690   YY=             -9.9145   ZZ=             -4.2544
   XY=             18.8441   XZ=             -2.4540   YZ=             -2.2004
 Octapole moment (field-independent basis, Debye-Ang**2):
  XXX=            -25.3459  YYY=            -45.2970  ZZZ=              0.5947  XYY=            -26.8262
  XXY=            -32.0828  XXZ=              9.0314  XZZ=             -8.0386  YZZ=              1.1679
  YYZ=              5.4873  XYZ=              5.5972
 Hexadecapole moment (field-independent basis, Debye-Ang**3):
 XXXX=           -577.9646 YYYY=           -633.7507 ZZZZ=            -51.5209 XXXY=            132.0552
 XXXZ=            -22.5916 YYYX=            130.3231 YYYZ=            -11.4982 ZZZX=             -2.0731
 ZZZY=             -1.6964 XXYY=           -174.2915 XXZZ=           -159.7505 YYZZ=           -108.5344
 XXYZ=            -16.1417 YYXZ=            -11.1554 ZZXY=              5.2213
 N-N= 4.589657409864D+02 E-N=-2.104525005110D+03  KE= 5.030011875736D+02
 D1PCM: PCM CHGder 1st derivatives, ID1Alg=3 FixD1E=F DoIter=F DoCFld=F I1PDM=0.
 Calling FoFJK, ICntrl=      2127 FMM=F ISym2X=0 I1Cent= 0 IOpClX= 0 NMat=1 NMatS=1 NMatT=0.
 ***** Axes restored to original set *****
 -------------------------------------------------------------------
 Center     Atomic                   Forces (Hartrees/Bohr)
 Number     Number              X              Y              Z
 -------------------------------------------------------------------
      1        7           0.001347632   -0.000595375    0.000144853
      2        7           0.001118252    0.000393599   -0.000115705
      3        6          -0.000088605   -0.000050623   -0.000000689
      4        6           0.000240027   -0.000033657   -0.000035034
      5        7           0.000397354   -0.000060319   -0.000054150
      6        1           0.000009626    0.000047511    0.000034947
      7        1           0.000040997    0.000011090    0.000022850
      8        1           0.002298222   -0.004912071    0.000562288
      9        6          -0.006972247    0.001110621    0.000076599
     10        8           0.002258203   -0.002694176   -0.000045961
     11        8           0.009741428   -0.020211207    0.000253544
     12        1           0.000979157    0.003855811   -0.001312310
     13        8          -0.010693993    0.027709977    0.000657894
     14        1          -0.000676054   -0.004571181   -0.000189126
 -------------------------------------------------------------------
 Cartesian Forces:  Max     0.027709977 RMS     0.006017466

 GradGradGradGradGradGradGradGradGradGradGradGradGradGradGradGradGradGrad
 Berny optimization.
 FormGI is forming the generalized inverse of G from B-inverse, IUseBI=4.
 Internal  Forces:  Max     0.023164078 RMS     0.004802052
 Search for a local minimum.
 Step number   1 out of a maximum of   66
 All quantities printed in internal units (Hartrees-Bohrs-Radians)
 Mixed Optimization -- RFO/linear search
 Second derivative matrix not updated -- first step.
 ITU=  0
     Eigenvalues ---    0.00230   0.00230   0.00230   0.00810   0.01248
     Eigenvalues ---    0.01796   0.01920   0.02201   0.02324   0.02395
     Eigenvalues ---    0.02453   0.03085   0.15988   0.16000   0.16000
     Eigenvalues ---    0.16000   0.16000   0.18436   0.22738   0.24718
     Eigenvalues ---    0.25000   0.25000   0.25000   0.36184   0.36220
     Eigenvalues ---    0.39939   0.40482   0.45978   0.48246   0.52046
     Eigenvalues ---    0.53502   0.53690   0.54552   0.67317   0.68767
     Eigenvalues ---    0.98848
 RFO step:  Lambda=-8.03333907D-03 EMin= 2.30000000D-03
 Linear search not attempted -- first point.
 Maximum step size (   0.300) exceeded in Quadratic search.
    -- Step size scaled by   0.545
 Iteration  1 RMS(Cart)=  0.15696077 RMS(Int)=  0.01731036
 Iteration  2 RMS(Cart)=  0.07204761 RMS(Int)=  0.00239804
 Iteration  3 RMS(Cart)=  0.00380374 RMS(Int)=  0.00059450
 Iteration  4 RMS(Cart)=  0.00000408 RMS(Int)=  0.00059450
 Iteration  5 RMS(Cart)=  0.00000001 RMS(Int)=  0.00059450
 Variable       Old X    -DE/DX   Delta X   Delta X   Delta X     New X
                                 (Linear)    (Quad)   (Total)
    R1        2.54353  -0.00052   0.00000  -0.00050  -0.00051   2.54302
    R2        2.43543   0.00036   0.00000   0.00028   0.00028   2.43572
    R3        2.57091   0.00041   0.00000   0.00041   0.00041   2.57133
    R4        2.70904   0.00212   0.00000   0.00280   0.00280   2.71184
    R5        2.58133  -0.00014   0.00000  -0.00015  -0.00015   2.58117
    R6        2.03795  -0.00005   0.00000  -0.00008  -0.00008   2.03788
    R7        2.58704  -0.00036   0.00000  -0.00037  -0.00038   2.58666
    R8        2.03738   0.00004   0.00000   0.00006   0.00006   2.03745
    R9        1.83188  -0.00234   0.00000  -0.00235  -0.00235   1.82953
   R10        2.29104   0.00317   0.00000   0.00173   0.00173   2.29277
   R11        2.44610  -0.00089   0.00000  -0.00069  -0.00069   2.44542
   R12        1.98335   0.02316   0.00000   0.03096   0.03096   2.01431
   R13        2.46287   0.02017   0.00000   0.05711   0.05710   2.51998
   R14        1.83015  -0.00084   0.00000  -0.00084  -0.00084   1.82931
    A1        1.87644   0.00042   0.00000   0.00090   0.00091   1.87735
    A2        1.93507  -0.00067   0.00000  -0.00143  -0.00143   1.93364
    A3        2.14519   0.00275   0.00000   0.00582   0.00583   2.15102
    A4        2.20291  -0.00209   0.00000  -0.00439  -0.00440   2.19851
    A5        1.81275   0.00055   0.00000   0.00127   0.00128   1.81402
    A6        2.13757  -0.00023   0.00000  -0.00049  -0.00049   2.13707
    A7        2.33287  -0.00032   0.00000  -0.00078  -0.00078   2.33209
    A8        1.89273  -0.00031   0.00000  -0.00076  -0.00076   1.89197
    A9        2.26393   0.00018   0.00000   0.00047   0.00047   2.26440
   A10        2.12653   0.00013   0.00000   0.00029   0.00029   2.12682
   A11        1.90778  -0.00000   0.00000   0.00001   0.00001   1.90780
   A12        2.06460  -0.00479   0.00000  -0.01012  -0.01013   2.05447
   A13        2.03911   0.00604   0.00000   0.01274   0.01276   2.05188
   A14        2.17947  -0.00124   0.00000  -0.00262  -0.00263   2.17684
   A15        2.12504   0.01277   0.00000   0.04139   0.04140   2.16644
   A16        2.08982  -0.00368   0.00000  -0.01459  -0.01458   2.07523
   A17        1.85985   0.00582   0.00000   0.01592   0.01609   1.87594
   A18        2.22554  -0.00312   0.00000  -0.01273  -0.01236   2.21318
   A19        3.28687   0.00541   0.00000   0.28472   0.28467   3.57153
   A20        3.19366  -0.00078   0.00000  -0.04482  -0.04324   3.15042
    D1        0.00069   0.00007   0.00000   0.00129   0.00127   0.00195
    D2        3.13777  -0.00002   0.00000  -0.00039  -0.00036   3.13741
    D3        0.00002  -0.00005   0.00000  -0.00087  -0.00085  -0.00083
    D4       -0.00108  -0.00006   0.00000  -0.00115  -0.00113  -0.00221
    D5       -3.14122  -0.00005   0.00000  -0.00106  -0.00104   3.14092
    D6       -3.13798   0.00002   0.00000   0.00056   0.00052  -3.13746
    D7        0.00506   0.00002   0.00000   0.00065   0.00061   0.00567
    D8       -3.10562   0.00013   0.00000   0.00339   0.00321  -3.10241
    D9        0.03328   0.00016   0.00000   0.00395   0.00391   0.03719
   D10        0.03075   0.00004   0.00000   0.00146   0.00135   0.03210
   D11       -3.11353   0.00007   0.00000   0.00203   0.00205  -3.11149
   D12        0.00106   0.00003   0.00000   0.00060   0.00059   0.00165
   D13       -3.13990   0.00000   0.00000   0.00008   0.00007  -3.13983
   D14        3.14096   0.00002   0.00000   0.00050   0.00049   3.14145
   D15       -0.00000  -0.00000   0.00000  -0.00002  -0.00003  -0.00003
   D16       -0.00071   0.00001   0.00000   0.00016   0.00016  -0.00055
   D17        3.14032   0.00003   0.00000   0.00063   0.00062   3.14094
   D18        0.04078   0.00023   0.00000   0.00316   0.00274   0.04351
   D19       -3.10370   0.00026   0.00000   0.00376   0.00348  -3.10022
   D20        0.17496   0.00039   0.00000   0.01455   0.01664   0.19160
   D21        2.80232  -0.00064   0.00000  -0.02693  -0.02959   2.77273
   D22       -2.59142   0.00065   0.00000   0.02249   0.02018  -2.57124
         Item               Value     Threshold  Converged?
 Maximum Force            0.023164     0.000450     NO 
 RMS     Force            0.004802     0.000300     NO 
 Maximum Displacement     0.908474     0.001800     NO 
 RMS     Displacement     0.223146     0.001200     NO 
 Predicted change in Energy=-3.550692D-03
 GradGradGradGradGradGradGradGradGradGradGradGradGradGradGradGradGradGrad

                          Input orientation:                          
 ---------------------------------------------------------------------
 Center     Atomic      Atomic             Coordinates (Angstroms)
 Number     Number       Type             X           Y           Z
 ---------------------------------------------------------------------
      1          7           0        0.464771    1.072573    0.077341
      2          7           0        0.597648   -0.264956    0.011806
      3          6           0        1.910804   -0.617968   -0.037933
      4          6           0        2.573898    0.575644   -0.002219
      5          7           0        1.648736    1.581964    0.068560
      6          1           0        2.231846   -1.645983   -0.093249
      7          1           0        3.632974    0.776666   -0.022262
      8          1           0       -2.265216    2.341639   -0.209224
      9          6           0       -0.518395   -1.167043    0.005584
     10          8           0       -0.282013   -2.356908   -0.014295
     11          8           0       -1.705179   -0.651491    0.023890
     12          1           0       -1.902597    0.395818    0.004794
     13          8           0       -2.673351    1.483667   -0.023172
     14          1           0       -3.596932    1.532876   -0.308922
 ---------------------------------------------------------------------
                    Distance matrix (angstroms):
                    1          2          3          4          5
     1  N    0.000000
     2  N    1.345710   0.000000
     3  C    2.227606   1.360688   0.000000
     4  C    2.168337   2.147643   1.365899   0.000000
     5  N    1.288925   2.125822   2.218045   1.368801   0.000000
     6  H    3.246876   2.142166   1.078398   2.249648   3.284181
     7  H    3.183550   3.209259   2.216104   1.078171   2.143352
     8  H    3.024149   3.878039   5.121305   5.155446   3.996660
     9  C    2.446966   1.435044   2.490860   3.549548   3.501065
    10  O    3.511043   2.269526   2.798735   4.093438   4.387410
    11  O    2.771992   2.335074   3.616667   4.451634   4.029772
    12  H    2.463269   2.586097   3.946089   4.480111   3.744726
    13  O    3.166530   3.709224   5.042972   5.325276   4.324177
    14  H    4.105912   4.574885   5.919014   6.252160   5.259461
                    6          7          8          9         10
     6  H    0.000000
     7  H    2.799541   0.000000
     8  H    6.011502   6.105141   0.000000
     9  C    2.793381   4.583955   3.925351   0.000000
    10  O    2.613644   5.014626   5.103669   1.213281   0.000000
    11  O    4.062376   5.526088   3.053984   1.294058   2.221555
    12  H    4.612178   5.548723   1.990858   2.087714   3.194394
    13  O    5.818984   6.345832   0.968145   3.416274   4.524223
    14  H    6.642764   7.274997   1.561251   4.106807   5.119171
                   11         12         13         14
    11  O    0.000000
    12  H    1.065925   0.000000
    13  O    2.344882   1.333514   0.000000
    14  H    2.908772   2.064483   0.968028   0.000000
 Stoichiometry    C3H5N3O3
 Framework group  C1[X(C3H5N3O3)]
 Deg. of freedom    36
 Full point group                 C1      NOp   1
 Largest Abelian subgroup         C1      NOp   1
 Largest concise Abelian subgroup C1      NOp   1
                         Standard orientation:                         
 ---------------------------------------------------------------------
 Center     Atomic      Atomic             Coordinates (Angstroms)
 Number     Number       Type             X           Y           Z
 ---------------------------------------------------------------------
      1          7           0        0.367224   -1.079508   -0.066239
      2          7           0        0.556068    0.251483   -0.005109
      3          6           0        1.882457    0.548756    0.056460
      4          6           0        2.494637   -0.672041    0.032623
      5          7           0        1.528365   -1.638571   -0.043232
      6          1           0        2.246257    1.562492    0.110616
      7          1           0        3.543978   -0.917670    0.064296
      8          1           0       -2.416870   -2.230365    0.198009
      9          6           0       -0.520704    1.200078   -0.014113
     10          8           0       -0.234264    2.378936    0.003051
     11          8           0       -1.728051    0.735206   -0.042267
     12          1           0       -1.969906   -0.302694   -0.020676
     13          8           0       -2.786360   -1.356756    0.004130
     14          1           0       -3.714002   -1.365427    0.280684
 ---------------------------------------------------------------------
 Rotational constants (GHZ):           2.3032998           1.3486295           0.8514450
 Standard basis: 6-31+G(d,p) (6D, 7F)
 There are   196 symmetry adapted cartesian basis functions of A   symmetry.
 There are   196 symmetry adapted basis functions of A   symmetry.
   196 basis functions,   323 primitive gaussians,   196 cartesian basis functions
    34 alpha electrons       34 beta electrons
       nuclear repulsion energy       452.7293451808 Hartrees.
 NAtoms=   14 NActive=   14 NUniq=   14 SFac= 1.00D+00 NAtFMM=   60 NAOKFM=F Big=F
 Integral buffers will be    131072 words long.
 Raffenetti 2 integral format.
 Two-electron integral symmetry is turned on.
 ------------------------------------------------------------------------------
 Polarizable Continuum Model (PCM)
 =================================
 Model                : PCM.
 Atomic radii         : SMD-Coulomb.
 Polarization charges : Total charges.
 Charge compensation  : None.
 Solution method      : On-the-fly selection.
 Cavity type          : VdW (van der Waals Surface) (Alpha=1.000).
 Cavity algorithm     : GePol (No added spheres)
                        Default sphere list used, NSphG=   14.
                        Lebedev-Laikov grids with approx.  5.0 points / Ang**2.
                        Smoothing algorithm: York/Karplus (Gamma=1.0000).
                        Polarization charges: spherical gaussians, with
                                              point-specific exponents (IZeta= 3).
                        Self-potential: point-specific (ISelfS= 7).
                        Self-field    : sphere-specific E.n sum rule (ISelfD= 2).
 1st derivatives      : Analytical E(r).r(x)/FMM algorithm (CHGder, D1EAlg=3).
                        Cavity 1st derivative terms included.
 Solvent              : Water, Eps=  78.355300 Eps(inf)=   1.777849
 ------------------------------------------------------------------------------
 Spheres list:
 ISph  on   Nord     Re0    Alpha      Xe            Ye            Ze
    1   N      1    1.8900  1.000      0.367224     -1.079508     -0.066239
    2   N      2    1.8900  1.000      0.556068      0.251483     -0.005109
    3   C      3    1.8500  1.000      1.882457      0.548756      0.056460
    4   C      4    1.8500  1.000      2.494637     -0.672041      0.032623
    5   N      5    1.8900  1.000      1.528365     -1.638571     -0.043232
    6   H      6    1.2000  1.000      2.246257      1.562492      0.110616
    7   H      7    1.2000  1.000      3.543978     -0.917670      0.064296
    8   H      8    1.2000  1.000     -2.416870     -2.230365      0.198009
    9   C      9    1.8500  1.000     -0.520704      1.200078     -0.014113
   10   O     10    1.5200  1.000     -0.234264      2.378936      0.003051
   11   O     11    1.5200  1.000     -1.728051      0.735206     -0.042267
   12   H     12    1.2000  1.000     -1.969906     -0.302694     -0.020676
   13   O     13    1.5200  1.000     -2.786360     -1.356756      0.004130
   14   H     14    1.2000  1.000     -3.714002     -1.365427      0.280684
 ------------------------------------------------------------------------------
 ------------------------------------------------------------------------------
 Atomic radii for non-electrostatic terms: SMD-CDS.
 ------------------------------------------------------------------------------
 Nuclear repulsion after PCM non-electrostatic terms =      452.7372665257 Hartrees.
 One-electron integrals computed using PRISM.
 NBasis=   196 RedAO= T EigKep=  2.00D-05  NBF=   196
 NBsUse=   196 1.00D-06 EigRej= -1.00D+00 NBFU=   196
 Initial guess from the checkpoint file:  "/home/gau/soft/scratch/Gau-117006.chk"
 B after Tr=     0.000000    0.000000    0.000000
         Rot=    0.999243    0.001154    0.001339    0.038874 Ang=   4.46 deg.
 ExpMin= 4.38D-02 ExpMax= 5.48D+03 ExpMxC= 8.25D+02 IAcc=3 IRadAn=         5 AccDes= 0.00D+00
 Harris functional with IExCor= 1009 and IRadAn=       5 diagonalized for initial guess.
 HarFok:  IExCor= 1009 AccDes= 0.00D+00 IRadAn=         5 IDoV= 1 UseB2=F ITyADJ=14
 ICtDFT=  3500011 ScaDFX=  1.000000  1.000000  1.000000  1.000000
 FoFCou: FMM=F IPFlag=           0 FMFlag=      100000 FMFlg1=           0
         NFxFlg=           0 DoJE=T BraDBF=F KetDBF=T FulRan=T
         wScrn=  0.000000 ICntrl=       500 IOpCl=  0 I1Cent=   200000004 NGrid=           0
         NMat0=    1 NMatS0=      1 NMatT0=    0 NMatD0=    1 NMtDS0=    0 NMtDT0=    0
 Petite list used in FoFCou.
 Requested convergence on RMS density matrix=1.00D-08 within 128 cycles.
 Requested convergence on MAX density matrix=1.00D-06.
 Requested convergence on             energy=1.00D-06.
 No special actions if energy rises.
 Inv3:  Mode=1 IEnd=     4341627.
 Iteration    1 A*A^-1 deviation from unit magnitude is 4.55D-15 for   1196.
 Iteration    1 A*A^-1 deviation from orthogonality  is 3.97D-15 for   1196    924.
 Iteration    1 A^-1*A deviation from unit magnitude is 4.55D-15 for   1196.
 Iteration    1 A^-1*A deviation from orthogonality  is 1.42D-15 for   1202   1132.
 Error on total polarization charges =  0.04069
 SCF Done:  E(RM062X) =  -507.083558889     A.U. after   12 cycles
            NFock= 12  Conv=0.85D-08     -V/T= 2.0083
 SMD-CDS (non-electrostatic) energy       (kcal/mol) =       4.97
 (included in total energy above)
 D1PCM: PCM CHGder 1st derivatives, ID1Alg=3 FixD1E=F DoIter=F DoCFld=F I1PDM=0.
 Calling FoFJK, ICntrl=      2127 FMM=F ISym2X=0 I1Cent= 0 IOpClX= 0 NMat=1 NMatS=1 NMatT=0.
 ***** Axes restored to original set *****
 -------------------------------------------------------------------
 Center     Atomic                   Forces (Hartrees/Bohr)
 Number     Number              X              Y              Z
 -------------------------------------------------------------------
      1        7          -0.004871123   -0.000240203   -0.000264206
      2        7           0.000307524    0.001501461    0.000131760
      3        6           0.000332463   -0.000543671   -0.000086371
      4        6          -0.000066174   -0.000490359   -0.000005563
      5        7          -0.000634607    0.000236064    0.000076664
      6        1           0.000048696    0.000073779    0.000004947
      7        1           0.000016584   -0.000015422    0.000009648
      8        1          -0.000395509   -0.000583579   -0.000145349
      9        6          -0.004480881    0.000603014    0.000232868
     10        8           0.000844008   -0.002309956   -0.000155678
     11        8           0.012864979   -0.006755530    0.000950403
     12        1          -0.004433926   -0.008470912   -0.002593405
     13        8          -0.000882603    0.020343263    0.002931898
     14        1           0.001350566   -0.003347950   -0.001087616
 -------------------------------------------------------------------
 Cartesian Forces:  Max     0.020343263 RMS     0.004369997

 GradGradGradGradGradGradGradGradGradGradGradGradGradGradGradGradGradGrad
 Berny optimization.
 Using GEDIIS/GDIIS optimizer.
 FormGI is forming the generalized inverse of G from B-inverse, IUseBI=4.
 Internal  Forces:  Max     0.018045279 RMS     0.004774838
 Search for a local minimum.
 Step number   2 out of a maximum of   66
 All quantities printed in internal units (Hartrees-Bohrs-Radians)
 Mixed Optimization -- RFO/linear search
 Update second derivatives using D2CorX and points    2    1
 DE=  1.30D-03 DEPred=-3.55D-03 R=-3.66D-01
 Trust test=-3.66D-01 RLast= 3.02D-01 DXMaxT set to 1.50D-01
 ITU= -1  0
 Use linear search instead of GDIIS.
     Eigenvalues ---    0.00229   0.00230   0.00868   0.01240   0.01578
     Eigenvalues ---    0.01802   0.01921   0.02202   0.02324   0.02395
     Eigenvalues ---    0.02453   0.03070   0.09750   0.15963   0.16000
     Eigenvalues ---    0.16000   0.16281   0.18659   0.22764   0.24722
     Eigenvalues ---    0.24954   0.25000   0.34289   0.36183   0.36220
     Eigenvalues ---    0.37585   0.41820   0.46138   0.48253   0.52048
     Eigenvalues ---    0.53464   0.53698   0.54549   0.67317   0.69619
     Eigenvalues ---    0.98712
 RFO step:  Lambda=-1.26262299D-02 EMin= 2.28909341D-03
 Quartic linear search produced a step of -0.67842.
 Maximum step size (   0.150) exceeded in Quadratic search.
    -- Step size scaled by   0.252
 Iteration  1 RMS(Cart)=  0.09730494 RMS(Int)=  0.01566227
 Iteration  2 RMS(Cart)=  0.06799415 RMS(Int)=  0.00206512
 Iteration  3 RMS(Cart)=  0.00287315 RMS(Int)=  0.00035148
 Iteration  4 RMS(Cart)=  0.00000201 RMS(Int)=  0.00035147
 Iteration  5 RMS(Cart)=  0.00000000 RMS(Int)=  0.00035147
 Variable       Old X    -DE/DX   Delta X   Delta X   Delta X     New X
                                 (Linear)    (Quad)   (Total)
    R1        2.54302  -0.00059   0.00034  -0.00079  -0.00045   2.54257
    R2        2.43572  -0.00008  -0.00019   0.00036   0.00016   2.43588
    R3        2.57133  -0.00055  -0.00028   0.00042   0.00014   2.57146
    R4        2.71184  -0.00342  -0.00190   0.00273   0.00083   2.71267
    R5        2.58117   0.00003   0.00010  -0.00018  -0.00007   2.58110
    R6        2.03788  -0.00006   0.00005  -0.00012  -0.00007   2.03781
    R7        2.58666   0.00136   0.00026  -0.00019   0.00007   2.58673
    R8        2.03745   0.00001  -0.00004   0.00009   0.00004   2.03749
    R9        1.82953  -0.00067   0.00159  -0.00320  -0.00161   1.82792
   R10        2.29277   0.00244  -0.00118   0.00256   0.00138   2.29415
   R11        2.44542  -0.00732   0.00047  -0.00205  -0.00159   2.44383
   R12        2.01431   0.00859  -0.02100   0.04236   0.02137   2.03568
   R13        2.51998   0.01329  -0.03874   0.07851   0.03976   2.55973
   R14        1.82931  -0.00113   0.00057  -0.00133  -0.00076   1.82855
    A1        1.87735  -0.00165  -0.00061   0.00041  -0.00021   1.87714
    A2        1.93364   0.00263   0.00097  -0.00076   0.00021   1.93385
    A3        2.15102  -0.00764  -0.00395   0.00422   0.00027   2.15128
    A4        2.19851   0.00501   0.00299  -0.00346  -0.00048   2.19803
    A5        1.81402  -0.00162  -0.00087   0.00087   0.00000   1.81403
    A6        2.13707   0.00089   0.00034  -0.00020   0.00013   2.13720
    A7        2.33209   0.00073   0.00053  -0.00066  -0.00013   2.33196
    A8        1.89197   0.00031   0.00051  -0.00073  -0.00021   1.89176
    A9        2.26440  -0.00016  -0.00032   0.00047   0.00015   2.26455
   A10        2.12682  -0.00015  -0.00020   0.00026   0.00006   2.12688
   A11        1.90780   0.00034  -0.00001   0.00021   0.00020   1.90800
   A12        2.05447   0.00709   0.00687  -0.00988  -0.00301   2.05146
   A13        2.05188  -0.01506  -0.00866   0.00988   0.00122   2.05310
   A14        2.17684   0.00798   0.00179   0.00000   0.00179   2.17863
   A15        2.16644  -0.01225  -0.02808   0.04318   0.01510   2.18155
   A16        2.07523   0.00186   0.00989  -0.01568  -0.00554   2.06969
   A17        1.87594   0.00190  -0.01092   0.02220   0.01155   1.88749
   A18        2.21318  -0.00475   0.00839  -0.01727  -0.00857   2.20461
   A19        3.57153  -0.01805  -0.19313  -0.10625  -0.29932   3.27221
   A20        3.15042   0.00177   0.02933   0.00941   0.03959   3.19001
    D1        0.00195  -0.00012  -0.00086   0.00056  -0.00030   0.00165
    D2        3.13741   0.00012   0.00024   0.00013   0.00038   3.13779
    D3       -0.00083   0.00008   0.00058  -0.00041   0.00017  -0.00066
    D4       -0.00221   0.00011   0.00076  -0.00048   0.00029  -0.00191
    D5        3.14092   0.00008   0.00071  -0.00050   0.00021   3.14113
    D6       -3.13746  -0.00009  -0.00035  -0.00006  -0.00041  -3.13787
    D7        0.00567  -0.00012  -0.00041  -0.00008  -0.00050   0.00517
    D8       -3.10241  -0.00057  -0.00218  -0.00022  -0.00242  -3.10483
    D9        0.03719  -0.00028  -0.00265   0.00131  -0.00135   0.03584
   D10        0.03210  -0.00031  -0.00091  -0.00070  -0.00163   0.03046
   D11       -3.11149  -0.00001  -0.00139   0.00082  -0.00056  -3.11205
   D12        0.00165  -0.00006  -0.00040   0.00022  -0.00018   0.00147
   D13       -3.13983  -0.00003  -0.00005  -0.00005  -0.00010  -3.13993
   D14        3.14145  -0.00003  -0.00033   0.00025  -0.00008   3.14137
   D15       -0.00003   0.00000   0.00002  -0.00002   0.00000  -0.00003
   D16       -0.00055  -0.00001  -0.00011   0.00012   0.00001  -0.00054
   D17        3.14094  -0.00004  -0.00042   0.00036  -0.00007   3.14087
   D18        0.04351  -0.00095  -0.00186   0.00007  -0.00185   0.04166
   D19       -3.10022  -0.00064  -0.00236   0.00170  -0.00070  -3.10092
   D20        0.19160  -0.00019  -0.01129   0.00094  -0.00896   0.18264
   D21        2.77273  -0.00053   0.02007  -0.00741   0.01117   2.78390
   D22       -2.57124   0.00143  -0.01369   0.01707   0.00204  -2.56919
         Item               Value     Threshold  Converged?
 Maximum Force            0.018045     0.000450     NO 
 RMS     Force            0.004775     0.000300     NO 
 Maximum Displacement     0.651037     0.001800     NO 
 RMS     Displacement     0.162024     0.001200     NO 
 Predicted change in Energy=-2.517958D-03
 GradGradGradGradGradGradGradGradGradGradGradGradGradGradGradGradGradGrad

                          Input orientation:                          
 ---------------------------------------------------------------------
 Center     Atomic      Atomic             Coordinates (Angstroms)
 Number     Number       Type             X           Y           Z
 ---------------------------------------------------------------------
      1          7           0        0.339772    1.041001    0.046289
      2          7           0        0.539328   -0.288965    0.005541
      3          6           0        1.868720   -0.577294   -0.029839
      4          6           0        2.471707    0.648114   -0.011073
      5          7           0        1.497214    1.608251    0.035991
      6          1           0        2.240696   -1.588862   -0.064957
      7          1           0        3.519651    0.901157   -0.028014
      8          1           0       -1.920702    2.249164   -0.172263
      9          6           0       -0.530564   -1.246012    0.007816
     10          8           0       -0.231247   -2.422546    0.008163
     11          8           0       -1.741467   -0.792005    0.010399
     12          1           0       -2.010453    0.250477   -0.025779
     13          8           0       -2.518549    1.506038   -0.011010
     14          1           0       -3.407110    1.767981   -0.290561
 ---------------------------------------------------------------------
                    Distance matrix (angstroms):
                    1          2          3          4          5
     1  N    0.000000
     2  N    1.345471   0.000000
     3  C    2.227635   1.360760   0.000000
     4  C    2.168594   2.147670   1.365860   0.000000
     5  N    1.289012   2.125536   2.217873   1.368837   0.000000
     6  H    3.246855   2.142278   1.078364   2.249518   3.283974
     7  H    3.183820   3.209337   2.216167   1.078194   2.143439
     8  H    2.572385   3.539133   4.729574   4.677885   3.483718
     9  C    2.447323   1.435483   2.491016   3.549888   3.501356
    10  O    3.510508   2.268470   2.795757   4.090878   4.385849
    11  O    2.773581   2.335615   3.616789   4.452555   4.031245
    12  H    2.480661   2.606408   3.966510   4.499789   3.761794
    13  O    2.896470   3.545831   4.856825   5.063466   4.017338
    14  H    3.831591   4.460165   5.779504   5.991052   4.917778
                    6          7          8          9         10
     6  H    0.000000
     7  H    2.799515   0.000000
     8  H    5.662084   5.606726   0.000000
     9  C    2.793336   4.584305   3.765789   0.000000
    10  O    2.609766   5.011740   4.971085   1.214011   0.000000
    11  O    4.061808   5.526991   3.051918   1.293219   2.222483
    12  H    4.632167   5.568253   2.006057   2.104918   3.211196
    13  O    5.677299   6.068445   0.967295   3.395028   4.545975
    14  H    6.573964   6.985723   1.566825   4.177044   5.266484
                   11         12         13         14
    11  O    0.000000
    12  H    1.077233   0.000000
    13  O    2.425967   1.354553   0.000000
    14  H    3.068953   2.079321   0.967628   0.000000
 Stoichiometry    C3H5N3O3
 Framework group  C1[X(C3H5N3O3)]
 Deg. of freedom    36
 Full point group                 C1      NOp   1
 Largest Abelian subgroup         C1      NOp   1
 Largest concise Abelian subgroup C1      NOp   1
                         Standard orientation:                         
 ---------------------------------------------------------------------
 Center     Atomic      Atomic             Coordinates (Angstroms)
 Number     Number       Type             X           Y           Z
 ---------------------------------------------------------------------
      1          7           0        0.300017   -1.053053   -0.049791
      2          7           0        0.513026    0.274621   -0.002891
      3          6           0        1.845076    0.549059    0.041786
      4          6           0        2.435494   -0.682443    0.022224
      5          7           0        1.451458   -1.632275   -0.034424
      6          1           0        2.227243    1.556591    0.082946
      7          1           0        3.480645   -0.946367    0.044717
      8          1           0       -1.974119   -2.238566    0.150290
      9          6           0       -0.546900    1.242681   -0.008252
     10          8           0       -0.235464    2.416050   -0.002395
     11          8           0       -1.762383    0.801232   -0.020012
     12          1           0       -2.042330   -0.238538    0.010644
     13          8           0       -2.563250   -1.488717   -0.011913
     14          1           0       -3.456191   -1.742471    0.261160
 ---------------------------------------------------------------------
 Rotational constants (GHZ):           2.1857173           1.4675941           0.8785921
 Standard basis: 6-31+G(d,p) (6D, 7F)
 There are   196 symmetry adapted cartesian basis functions of A   symmetry.
 There are   196 symmetry adapted basis functions of A   symmetry.
   196 basis functions,   323 primitive gaussians,   196 cartesian basis functions
    34 alpha electrons       34 beta electrons
       nuclear repulsion energy       455.0558674849 Hartrees.
 NAtoms=   14 NActive=   14 NUniq=   14 SFac= 1.00D+00 NAtFMM=   60 NAOKFM=F Big=F
 Integral buffers will be    131072 words long.
 Raffenetti 2 integral format.
 Two-electron integral symmetry is turned on.
 ------------------------------------------------------------------------------
 Polarizable Continuum Model (PCM)
 =================================
 Model                : PCM.
 Atomic radii         : SMD-Coulomb.
 Polarization charges : Total charges.
 Charge compensation  : None.
 Solution method      : On-the-fly selection.
 Cavity type          : VdW (van der Waals Surface) (Alpha=1.000).
 Cavity algorithm     : GePol (No added spheres)
                        Default sphere list used, NSphG=   14.
                        Lebedev-Laikov grids with approx.  5.0 points / Ang**2.
                        Smoothing algorithm: York/Karplus (Gamma=1.0000).
                        Polarization charges: spherical gaussians, with
                                              point-specific exponents (IZeta= 3).
                        Self-potential: point-specific (ISelfS= 7).
                        Self-field    : sphere-specific E.n sum rule (ISelfD= 2).
 1st derivatives      : Analytical E(r).r(x)/FMM algorithm (CHGder, D1EAlg=3).
                        Cavity 1st derivative terms included.
 Solvent              : Water, Eps=  78.355300 Eps(inf)=   1.777849
 ------------------------------------------------------------------------------
 Spheres list:
 ISph  on   Nord     Re0    Alpha      Xe            Ye            Ze
    1   N      1    1.8900  1.000      0.300017     -1.053053     -0.049791
    2   N      2    1.8900  1.000      0.513026      0.274621     -0.002891
    3   C      3    1.8500  1.000      1.845076      0.549059      0.041786
    4   C      4    1.8500  1.000      2.435494     -0.682443      0.022224
    5   N      5    1.8900  1.000      1.451458     -1.632275     -0.034424
    6   H      6    1.2000  1.000      2.227243      1.556591      0.082946
    7   H      7    1.2000  1.000      3.480645     -0.946367      0.044717
    8   H      8    1.2000  1.000     -1.974119     -2.238566      0.150290
    9   C      9    1.8500  1.000     -0.546900      1.242681     -0.008252
   10   O     10    1.5200  1.000     -0.235464      2.416050     -0.002395
   11   O     11    1.5200  1.000     -1.762383      0.801232     -0.020012
   12   H     12    1.2000  1.000     -2.042330     -0.238538      0.010644
   13   O     13    1.5200  1.000     -2.563250     -1.488717     -0.011913
   14   H     14    1.2000  1.000     -3.456191     -1.742471      0.261160
 ------------------------------------------------------------------------------
 ------------------------------------------------------------------------------
 Atomic radii for non-electrostatic terms: SMD-CDS.
 ------------------------------------------------------------------------------
 Nuclear repulsion after PCM non-electrostatic terms =      455.0637168313 Hartrees.
 One-electron integrals computed using PRISM.
 NBasis=   196 RedAO= T EigKep=  1.91D-05  NBF=   196
 NBsUse=   196 1.00D-06 EigRej= -1.00D+00 NBFU=   196
 Lowest energy guess from the checkpoint file:  "/home/gau/soft/scratch/Gau-117006.chk"
 B after Tr=     0.000000   -0.000000    0.000000
         Rot=    0.999546    0.000077    0.000366    0.030120 Ang=   3.45 deg.
 B after Tr=    -0.000000   -0.000000   -0.000000
         Rot=    0.999957   -0.001151   -0.000877   -0.009119 Ang=  -1.06 deg.
 Requested convergence on RMS density matrix=1.00D-08 within 128 cycles.
 Requested convergence on MAX density matrix=1.00D-06.
 Requested convergence on             energy=1.00D-06.
 No special actions if energy rises.
 Inv3:  Mode=1 IEnd=     4198467.
 Iteration    1 A*A^-1 deviation from unit magnitude is 3.55D-15 for   1173.
 Iteration    1 A*A^-1 deviation from orthogonality  is 2.33D-15 for   1175    990.
 Iteration    1 A^-1*A deviation from unit magnitude is 4.00D-15 for   1173.
 Iteration    1 A^-1*A deviation from orthogonality  is 2.00D-15 for    283    211.
 EnCoef did     2 forward-backward iterations
 Error on total polarization charges =  0.04103
 SCF Done:  E(RM062X) =  -507.086544923     A.U. after   11 cycles
            NFock= 11  Conv=0.75D-08     -V/T= 2.0084
 SMD-CDS (non-electrostatic) energy       (kcal/mol) =       4.93
 (included in total energy above)
 D1PCM: PCM CHGder 1st derivatives, ID1Alg=3 FixD1E=F DoIter=F DoCFld=F I1PDM=0.
 Calling FoFJK, ICntrl=      2127 FMM=F ISym2X=0 I1Cent= 0 IOpClX= 0 NMat=1 NMatS=1 NMatT=0.
 ***** Axes restored to original set *****
 -------------------------------------------------------------------
 Center     Atomic                   Forces (Hartrees/Bohr)
 Number     Number              X              Y              Z
 -------------------------------------------------------------------
      1        7          -0.003143194    0.000042549   -0.000110497
      2        7          -0.000163114    0.001239697    0.000058520
      3        6           0.000323550   -0.000414385   -0.000041293
      4        6          -0.000132933   -0.000323710    0.000018912
      5        7          -0.000254034    0.000284534    0.000026953
      6        1           0.000011678    0.000060756    0.000013402
      7        1          -0.000012013   -0.000033229    0.000012058
      8        1           0.001593815   -0.001633158   -0.000761220
      9        6          -0.003401298    0.001376623   -0.000283704
     10        8          -0.000184601   -0.001034468    0.000051030
     11        8           0.001110792    0.001140302   -0.000298058
     12        1           0.006329225   -0.004930562   -0.000576424
     13        8          -0.002445844    0.006799427    0.002940332
     14        1           0.000367970   -0.002574377   -0.001050012
 -------------------------------------------------------------------
 Cartesian Forces:  Max     0.006799427 RMS     0.002002982

 GradGradGradGradGradGradGradGradGradGradGradGradGradGradGradGradGradGrad
 Berny optimization.
 Using GEDIIS/GDIIS optimizer.
 FormGI is forming the generalized inverse of G from B-inverse, IUseBI=4.
 Internal  Forces:  Max     0.011488905 RMS     0.002729328
 Search for a local minimum.
 Step number   3 out of a maximum of   66
 All quantities printed in internal units (Hartrees-Bohrs-Radians)
 Mixed Optimization -- RFO/linear search
 Update second derivatives using D2CorX and points    2    1    3
 DE= -1.68D-03 DEPred=-2.52D-03 R= 6.69D-01
 TightC=F SS=  1.41D+00  RLast= 1.36D-01 DXNew= 2.5227D-01 4.0855D-01
 Trust test= 6.69D-01 RLast= 1.36D-01 DXMaxT set to 2.52D-01
 ITU=  1 -1  0
 Use linear search instead of GDIIS.
     Eigenvalues ---    0.00229   0.00230   0.00890   0.01247   0.01794
     Eigenvalues ---    0.01924   0.02202   0.02324   0.02395   0.02453
     Eigenvalues ---    0.03064   0.03853   0.11794   0.16000   0.16000
     Eigenvalues ---    0.16118   0.16967   0.19461   0.22768   0.24721
     Eigenvalues ---    0.24968   0.25008   0.31422   0.36184   0.36220
     Eigenvalues ---    0.40353   0.45900   0.48212   0.52024   0.52984
     Eigenvalues ---    0.53587   0.54184   0.54785   0.67317   0.71840
     Eigenvalues ---    0.98708
 RFO step:  Lambda=-1.48954526D-03 EMin= 2.28914109D-03
 Quartic linear search produced a step of -0.15220.
 Iteration  1 RMS(Cart)=  0.09873864 RMS(Int)=  0.00496935
 Iteration  2 RMS(Cart)=  0.00850482 RMS(Int)=  0.00095248
 Iteration  3 RMS(Cart)=  0.00005798 RMS(Int)=  0.00095146
 Iteration  4 RMS(Cart)=  0.00000023 RMS(Int)=  0.00095146
 Variable       Old X    -DE/DX   Delta X   Delta X   Delta X     New X
                                 (Linear)    (Quad)   (Total)
    R1        2.54257   0.00005   0.00015  -0.00049  -0.00034   2.54223
    R2        2.43588   0.00007  -0.00007   0.00033   0.00026   2.43614
    R3        2.57146  -0.00034  -0.00008  -0.00030  -0.00039   2.57108
    R4        2.71267  -0.00192  -0.00055  -0.00210  -0.00266   2.71001
    R5        2.58110   0.00003   0.00003  -0.00003   0.00000   2.58110
    R6        2.03781  -0.00006   0.00002  -0.00021  -0.00019   2.03762
    R7        2.58673   0.00088   0.00005   0.00137   0.00142   2.58815
    R8        2.03749  -0.00002  -0.00002   0.00001  -0.00001   2.03749
    R9        1.82792  -0.00015   0.00060  -0.00235  -0.00174   1.82618
   R10        2.29415   0.00096  -0.00047   0.00250   0.00203   2.29618
   R11        2.44383  -0.00693   0.00035  -0.00984  -0.00950   2.43433
   R12        2.03568  -0.00376  -0.00796   0.01940   0.01148   2.04716
   R13        2.55973   0.00258  -0.01474   0.06031   0.04554   2.60527
   R14        1.82855  -0.00073   0.00024  -0.00201  -0.00177   1.82678
    A1        1.87714  -0.00107  -0.00011  -0.00338  -0.00348   1.87366
    A2        1.93385   0.00160   0.00019   0.00466   0.00485   1.93870
    A3        2.15128  -0.00466  -0.00093  -0.01257  -0.01350   2.13779
    A4        2.19803   0.00305   0.00074   0.00792   0.00866   2.20670
    A5        1.81403  -0.00102  -0.00019  -0.00324  -0.00343   1.81059
    A6        2.13720   0.00055   0.00006   0.00196   0.00202   2.13922
    A7        2.33196   0.00047   0.00014   0.00128   0.00142   2.33337
    A8        1.89176   0.00034   0.00015   0.00107   0.00122   1.89298
    A9        2.26455  -0.00019  -0.00009  -0.00058  -0.00067   2.26388
   A10        2.12688  -0.00015  -0.00005  -0.00050  -0.00055   2.12633
   A11        1.90800   0.00015  -0.00003   0.00088   0.00085   1.90885
   A12        2.05146   0.00553   0.00200   0.01202   0.01402   2.06548
   A13        2.05310  -0.01008  -0.00213  -0.02699  -0.02913   2.02397
   A14        2.17863   0.00455   0.00013   0.01497   0.01510   2.19373
   A15        2.18155  -0.01149  -0.00860  -0.03277  -0.04135   2.14019
   A16        2.06969  -0.00168   0.00306  -0.03132  -0.03039   2.03930
   A17        1.88749   0.00290  -0.00421   0.01533   0.00825   1.89574
   A18        2.20461  -0.00222   0.00319  -0.03420  -0.03322   2.17139
   A19        3.27221  -0.00114   0.00223  -0.00119   0.00102   3.27323
   A20        3.19001  -0.00033   0.00056  -0.15375  -0.15496   3.03505
    D1        0.00165  -0.00004  -0.00015  -0.00128  -0.00142   0.00023
    D2        3.13779   0.00005  -0.00000   0.00138   0.00135   3.13914
    D3       -0.00066   0.00003   0.00010   0.00071   0.00080   0.00014
    D4       -0.00191   0.00004   0.00013   0.00130   0.00142  -0.00049
    D5        3.14113   0.00002   0.00013   0.00089   0.00101  -3.14104
    D6       -3.13787  -0.00002  -0.00002  -0.00137  -0.00140  -3.13927
    D7        0.00517  -0.00003  -0.00002  -0.00179  -0.00180   0.00337
    D8       -3.10483  -0.00012  -0.00012  -0.00582  -0.00587  -3.11070
    D9        0.03584  -0.00016  -0.00039  -0.00759  -0.00796   0.02788
   D10        0.03046  -0.00003   0.00004  -0.00277  -0.00269   0.02777
   D11       -3.11205  -0.00007  -0.00023  -0.00454  -0.00478  -3.11683
   D12        0.00147  -0.00002  -0.00006  -0.00085  -0.00090   0.00056
   D13       -3.13993  -0.00001   0.00000  -0.00036  -0.00036  -3.14028
   D14        3.14137  -0.00001  -0.00006  -0.00037  -0.00043   3.14094
   D15       -0.00003   0.00000   0.00000   0.00012   0.00012   0.00009
   D16       -0.00054  -0.00000  -0.00003   0.00010   0.00008  -0.00046
   D17        3.14087  -0.00001  -0.00008  -0.00033  -0.00041   3.14046
   D18        0.04166  -0.00020  -0.00013  -0.00365  -0.00363   0.03803
   D19       -3.10092  -0.00024  -0.00042  -0.00557  -0.00589  -3.10682
   D20        0.18264   0.00076  -0.00117   0.08302   0.07840   0.26104
   D21        2.78390  -0.00098   0.00280  -0.11217  -0.10570   2.67820
   D22       -2.56919   0.00127  -0.00338   0.10439   0.10312  -2.46607
         Item               Value     Threshold  Converged?
 Maximum Force            0.011489     0.000450     NO 
 RMS     Force            0.002729     0.000300     NO 
 Maximum Displacement     0.288996     0.001800     NO 
 RMS     Displacement     0.103069     0.001200     NO 
 Predicted change in Energy=-8.950758D-04
 GradGradGradGradGradGradGradGradGradGradGradGradGradGradGradGradGradGrad

                          Input orientation:                          
 ---------------------------------------------------------------------
 Center     Atomic      Atomic             Coordinates (Angstroms)
 Number     Number       Type             X           Y           Z
 ---------------------------------------------------------------------
      1          7           0        0.263006    1.011495    0.127420
      2          7           0        0.502979   -0.308277    0.025352
      3          6           0        1.837675   -0.557695   -0.061174
      4          6           0        2.403920    0.684085   -0.007099
      5          7           0        1.403457    1.612257    0.108427
      6          1           0        2.237167   -1.555260   -0.150198
      7          1           0        3.443009    0.969541   -0.043239
      8          1           0       -1.771144    2.194332   -0.325193
      9          6           0       -0.548067   -1.283887    0.017224
     10          8           0       -0.244187   -2.458691   -0.045426
     11          8           0       -1.748276   -0.820454    0.081814
     12          1           0       -1.964093    0.240899    0.104475
     13          8           0       -2.410744    1.539714   -0.014933
     14          1           0       -3.287706    1.788438   -0.336748
 ---------------------------------------------------------------------
                    Distance matrix (angstroms):
                    1          2          3          4          5
     1  N    0.000000
     2  N    1.345290   0.000000
     3  C    2.231033   1.360555   0.000000
     4  C    2.169977   2.144624   1.365861   0.000000
     5  N    1.289148   2.122785   2.219460   1.369589   0.000000
     6  H    3.250017   2.143173   1.078264   2.250100   3.285593
     7  H    3.184854   3.206446   2.215822   1.078191   2.143795
     8  H    2.396191   3.399643   4.546090   4.451201   3.256521
     9  C    2.436958   1.434077   2.495048   3.547919   3.493482
    10  O    3.511313   2.277619   2.819253   4.109864   4.394431
    11  O    2.720914   2.309472   3.598407   4.417270   3.981484
    12  H    2.356760   2.528695   3.888269   4.391856   3.636074
    13  O    2.729143   3.450576   4.738178   4.890108   3.816885
    14  H    3.664240   4.347025   5.643564   5.807140   4.715531
                    6          7          8          9         10
     6  H    0.000000
     7  H    2.800020   0.000000
     8  H    5.491505   5.363488   0.000000
     9  C    2.803426   4.583697   3.702861   0.000000
    10  O    2.642780   5.034699   4.905150   1.215085   0.000000
    11  O    4.059252   5.492645   3.042222   1.288194   2.227620
    12  H    4.576203   5.457975   2.009414   2.082719   3.204424
    13  O    5.585717   5.881524   0.966372   3.382798   4.547762
    14  H    6.460599   6.786698   1.569983   4.131598   5.233162
                   11         12         13         14
    11  O    0.000000
    12  H    1.083310   0.000000
    13  O    2.453287   1.378650   0.000000
    14  H    3.057999   2.083628   0.966691   0.000000
 Stoichiometry    C3H5N3O3
 Framework group  C1[X(C3H5N3O3)]
 Deg. of freedom    36
 Full point group                 C1      NOp   1
 Largest Abelian subgroup         C1      NOp   1
 Largest concise Abelian subgroup C1      NOp   1
                         Standard orientation:                         
 ---------------------------------------------------------------------
 Center     Atomic      Atomic             Coordinates (Angstroms)
 Number     Number       Type             X           Y           Z
 ---------------------------------------------------------------------
      1          7           0        0.266714   -1.023735   -0.102568
      2          7           0        0.487323    0.300263   -0.012214
      3          6           0        1.817919    0.569629    0.077608
      4          6           0        2.402108   -0.664359    0.037940
      5          7           0        1.415550   -1.607858   -0.072903
      6          1           0        2.202697    1.573632    0.158710
      7          1           0        3.445005   -0.934513    0.081277
      8          1           0       -1.752281   -2.231250    0.352733
      9          6           0       -0.577601    1.260722   -0.017997
     10          8           0       -0.290844    2.440313    0.034614
     11          8           0       -1.770759    0.779514   -0.083244
     12          1           0       -1.971265   -0.284996   -0.096585
     13          8           0       -2.399807   -1.588883    0.033438
     14          1           0       -3.274532   -1.847070    0.353884
 ---------------------------------------------------------------------
 Rotational constants (GHZ):           2.1324568           1.5520282           0.9006406
 Standard basis: 6-31+G(d,p) (6D, 7F)
 There are   196 symmetry adapted cartesian basis functions of A   symmetry.
 There are   196 symmetry adapted basis functions of A   symmetry.
   196 basis functions,   323 primitive gaussians,   196 cartesian basis functions
    34 alpha electrons       34 beta electrons
       nuclear repulsion energy       457.5317315397 Hartrees.
 NAtoms=   14 NActive=   14 NUniq=   14 SFac= 1.00D+00 NAtFMM=   60 NAOKFM=F Big=F
 Integral buffers will be    131072 words long.
 Raffenetti 2 integral format.
 Two-electron integral symmetry is turned on.
 ------------------------------------------------------------------------------
 Polarizable Continuum Model (PCM)
 =================================
 Model                : PCM.
 Atomic radii         : SMD-Coulomb.
 Polarization charges : Total charges.
 Charge compensation  : None.
 Solution method      : On-the-fly selection.
 Cavity type          : VdW (van der Waals Surface) (Alpha=1.000).
 Cavity algorithm     : GePol (No added spheres)
                        Default sphere list used, NSphG=   14.
                        Lebedev-Laikov grids with approx.  5.0 points / Ang**2.
                        Smoothing algorithm: York/Karplus (Gamma=1.0000).
                        Polarization charges: spherical gaussians, with
                                              point-specific exponents (IZeta= 3).
                        Self-potential: point-specific (ISelfS= 7).
                        Self-field    : sphere-specific E.n sum rule (ISelfD= 2).
 1st derivatives      : Analytical E(r).r(x)/FMM algorithm (CHGder, D1EAlg=3).
                        Cavity 1st derivative terms included.
 Solvent              : Water, Eps=  78.355300 Eps(inf)=   1.777849
 ------------------------------------------------------------------------------
 Spheres list:
 ISph  on   Nord     Re0    Alpha      Xe            Ye            Ze
    1   N      1    1.8900  1.000      0.266714     -1.023735     -0.102568
    2   N      2    1.8900  1.000      0.487323      0.300263     -0.012214
[...]
 ! A19   L(11,12,13,1,-1)      191.0569         -DE/DX =    0.0                 !
 ! A20   L(11,12,13,1,-2)      181.3758         -DE/DX =    0.0                 !
 ! D1    D(5,1,2,3)             -0.0433         -DE/DX =    0.0                 !
 ! D2    D(5,1,2,9)           -179.7687         -DE/DX =    0.0                 !
 ! D3    D(2,1,5,4)              0.0014         -DE/DX =    0.0                 !
 ! D4    D(1,2,3,4)              0.0655         -DE/DX =    0.0                 !
 ! D5    D(1,2,3,6)            179.9773         -DE/DX =    0.0                 !
 ! D6    D(9,2,3,4)            179.7797         -DE/DX =    0.0                 !
 ! D7    D(9,2,3,6)             -0.3085         -DE/DX =    0.0                 !
 ! D8    D(1,2,9,10)           177.9429         -DE/DX =    0.0                 !
 ! D9    D(1,2,9,11)            -1.9194         -DE/DX =    0.0                 !
 ! D10   D(3,2,9,10)            -1.7391         -DE/DX =    0.0                 !
 ! D11   D(3,2,9,11)           178.3986         -DE/DX =    0.0                 !
 ! D12   D(2,3,4,5)             -0.0629         -DE/DX =    0.0                 !
 ! D13   D(2,3,4,7)            179.9032         -DE/DX =    0.0                 !
 ! D14   D(6,3,4,5)           -179.96           -DE/DX =    0.0                 !
 ! D15   D(6,3,4,7)              0.006          -DE/DX =    0.0                 !
 ! D16   D(3,4,5,1)              0.0402         -DE/DX =    0.0                 !
 ! D17   D(7,4,5,1)           -179.9291         -DE/DX =    0.0                 !
 ! D18   D(2,9,11,12)           -2.3494         -DE/DX =    0.0                 !
 ! D19   D(10,9,11,12)         177.7984         -DE/DX =    0.0                 !
 ! D20   D(9,11,13,8)           19.347          -DE/DX =    0.0                 !
 ! D21   D(9,11,13,14)         136.3929         -DE/DX =    0.0                 !
 ! D22   D(14,12,13,8)        -115.7136         -DE/DX =    0.0                 !
 --------------------------------------------------------------------------------
 GradGradGradGradGradGradGradGradGradGradGradGradGradGradGradGradGradGrad


 ----------------------------------------------------------------------

 Electric dipole moment (input orientation):
 (Debye = 10**-18 statcoulomb cm , SI units = C m)
                  (au)            (Debye)         (10**-30 SI)
   Tot        0.160759D+01      0.408609D+01      0.136297D+02
   x          0.150335D+00      0.382113D+00      0.127459D+01
   y          0.146107D+01      0.371367D+01      0.123875D+02
   z         -0.653469D+00     -0.166095D+01     -0.554035D+01

 Dipole polarizability, Alpha (input orientation).
 (esu units = cm**3 , SI units = C**2 m**2 J**-1)
 Alpha(0;0):
               (au)            (10**-24 esu)      (10**-40 SI)
   iso        0.915775D+02      0.135704D+02      0.150991D+02
   aniso      0.557468D+02      0.826082D+01      0.919140D+01
   xx         0.105902D+03      0.156930D+02      0.174609D+02
   yx         0.116993D+01      0.173365D+00      0.192895D+00
   yy         0.114089D+03      0.169062D+02      0.188107D+02
   zx         0.238685D+00      0.353695D-01      0.393538D-01
   zy        -0.245034D+00     -0.363103D-01     -0.404006D-01
   zz         0.547417D+02      0.811188D+01      0.902568D+01

 ----------------------------------------------------------------------

 Dipole orientation:
     7          0.40210039         -0.70442629          1.86098814
     7          0.97649271          0.31972919         -0.39498654
     6          3.51395322          0.66198329         -0.62627182
     6          4.46199041         -0.21125923          1.61035374
     7          2.49015150         -1.02702793          3.07271274
     1          4.36250712          1.46071315         -2.29815983
     1          6.39166380         -0.30826852          2.25680926
     1         -3.59583465         -1.73708439          3.44625798
     6         -0.89914853          0.94746088         -2.24638161
     8         -0.21216130          1.93007542         -4.19865241
     8         -3.22088367          0.41697298         -1.68906621
     1         -3.70532870         -0.49394479          0.00421302
     8         -4.85134865         -1.79460555          2.11344800
     1         -6.33524164         -0.93884375          2.75782097

 Electric dipole moment (dipole orientation):
 (Debye = 10**-18 statcoulomb cm , SI units = C m)
                  (au)            (Debye)         (10**-30 SI)
   Tot        0.160759D+01      0.408609D+01      0.136297D+02
   x          0.000000D+00      0.000000D+00      0.000000D+00
   y          0.000000D+00      0.000000D+00      0.000000D+00
   z          0.160759D+01      0.408609D+01      0.136297D+02

 Dipole polarizability, Alpha (dipole orientation).
 (esu units = cm**3 , SI units = C**2 m**2 J**-1)
 Alpha(0;0):
               (au)            (10**-24 esu)      (10**-40 SI)
   iso        0.915775D+02      0.135704D+02      0.150991D+02
   aniso      0.557468D+02      0.826082D+01      0.919140D+01
   xx         0.105391D+03      0.156173D+02      0.173766D+02
   yx         0.385006D+01      0.570521D+00      0.634790D+00
   yy         0.647686D+02      0.959771D+01      0.106789D+02
   zx         0.242402D+01      0.359202D+00      0.399666D+00
   zy        -0.218173D+02     -0.323299D+01     -0.359719D+01
   zz         0.104573D+03      0.154961D+02      0.172417D+02

 ----------------------------------------------------------------------
 Unable to Open any file for archive entry.
 1\1\GINC-NODE01\Freq\RM062X\6-31+G(d,p)\C3H5N3O3\GAU\07-Dec-2023\0\\#N
  Geom=AllCheck Guess=TCheck SCRF=Check GenChk RM062X/6-31+G(d,p) Freq\
 \test\\0,1\N,0.2810270291,1.0360208015,-0.0416182195\N,0.5042024571,-0
 .2910204913,-0.0204859599\C,1.8381187439,-0.5581446047,-0.0097716007\C
 ,2.4194374006,0.6779486582,-0.023983373\N,1.4287536336,1.6224794686,-0
 .0437822491\H,2.227167919,-1.5638066131,0.0077055442\H,3.4631160144,0.
 9483394034,-0.0208905181\H,-1.7760073842,2.151822216,-0.0838077196\C,-
 0.5537182262,-1.2585576791,-0.0169653867\O,-0.2576297889,-2.4340618425
 ,-0.0356104946\O,-1.7640725691,-0.8004195293,0.0033953481\H,-1.9641705
 618,0.2283885442,0.0532916221\O,-2.5040610396,1.5635225852,0.168420279
 7\H,-3.225168218,1.7339882028,-0.4551955729\\Version=ES64L-G16RevC.01\
 State=1-A\HF=-507.0888705\RMSD=3.467e-09\RMSF=2.088e-05\ZeroPoint=0.09
 80346\Thermal=0.1067935\ETot=-506.982077\HTot=-506.9811328\GTot=-507.0
 2537\Dipole=0.1503349,1.4610711,-0.6534695\DipoleDeriv=-0.6097108,0.56
 97459,-0.0088441,0.549224,0.6094345,-0.0088351,-0.0101082,-0.0054682,-
 0.1491899,-0.9863811,-1.0674833,0.0138231,-1.0411908,-1.2263594,0.0026
 836,0.0094213,0.00968,-0.0057741,0.3146874,0.6051625,-0.0062235,0.0123
 5,0.1473629,-0.0032365,0.000809,-0.0029118,-0.0269934,0.1410572,0.0817
 852,0.0016838,0.1162137,-0.408367,0.0037325,-0.0007078,0.0040207,-0.11
 92837,-0.1770775,-0.8180887,0.0106289,-0.1877987,-0.3487261,-0.0001271
 ,0.0028017,-0.002599,-0.3057306,0.1882346,-0.0157517,-0.0001015,-0.004
 3503,0.2038733,0.0009725,-0.0001609,0.0014074,0.2556861,0.0885754,0.00
 04725,-0.0007908,-0.0272296,0.146696,0.0012264,0.0000333,0.001658,0.23
 42381,0.5697775,-0.047729,-0.0096924,-0.0563203,0.470786,0.045941,0.00
 37318,0.0525983,0.4050426,3.2794018,-0.0382276,-0.0428598,0.2551535,3.
 4141977,0.0270166,-0.0365454,0.0291912,0.6513365,-0.9861923,0.1852825,
 0.0087498,0.0527001,-2.1784883,-0.0172532,0.0114443,-0.0225194,-0.5748
 518,-2.0339399,0.7589484,0.0334514,0.7899114,-1.6744021,-0.0316167,0.0
 370205,-0.031869,-0.5425374,0.7608846,-0.4982864,-0.025577,-0.7932564,
 1.7075181,0.039466,-0.0403778,0.0454799,0.4502494,-1.0162475,0.3030752
 ,0.0292175,0.3243348,-1.2628907,-0.0903118,0.0230546,-0.0967419,-0.678
 1616,0.4669306,-0.0189054,-0.0034653,0.0102585,0.3993651,0.030342,-0.0
 004165,0.018074,0.4059696\Polar=105.9019033,1.1699262,114.0889358,0.23
 8685,-0.2450338,54.7416816\Quadrupole=10.7502507,-9.1717644,-1.5784863
 ,-10.5535874,4.0947233,-2.5546923\PG=C01 [X(C3H5N3O3)]\NImag=0\\0.6852
 6327,0.01220610,0.45206809,0.00284080,-0.00467412,0.11833878,-0.127838
 53,0.11331048,-0.00179251,0.79659367,0.03753417,-0.21386336,0.00295610
 ,0.05636007,0.67737560,-0.00057071,0.00251411,-0.07108737,0.00194042,-
 0.00527262,0.11341312,-0.06381954,0.06051486,-0.00151843,-0.30082058,0
 .04942663,-0.00190036,0.61936917,0.01261207,-0.06296270,0.00122194,0.0
 5637167,-0.12979056,0.00089491,-0.07756743,0.95259890,-0.00057960,0.00
 164875,0.01758806,-0.00217305,0.00080354,-0.06275507,0.00428066,-0.011
 94938,0.13250043,-0.11854930,-0.01809305,-0.00069933,-0.05822937,-0.00
 549304,-0.00038946,-0.17960971,-0.13820610,0.00134884,0.89407433,0.062
 80028,0.01671310,0.00058680,-0.11056201,-0.01048979,-0.00017000,-0.095
 88407,-0.35856782,0.00332987,0.14913424,0.64700976,-0.00182122,-0.0000
 8412,0.02481075,0.00142114,0.00022626,0.00868482,0.00063758,0.00319935
 ,-0.07109107,0.00272333,-0.00639173,0.13671693,-0.36011819,-0.14920668
 ,0.00085384,-0.07633737,-0.10274556,0.00114810,0.04896520,0.07484422,-
 0.00116703,-0.18926165,0.07533785,-0.00205211,0.57520134,-0.09071166,-
 0.15952692,0.00044917,-0.04212800,-0.12000461,0.00195891,-0.01329875,-
 0.07157568,0.00136283,0.08591853,-0.21815920,0.00278884,0.06173663,0.5
 6663711,-0.00019269,0.00035642,-0.09475890,0.00004696,0.00131415,0.027
 57962,0.00043698,0.00181037,0.01873749,-0.00214646,0.00246654,-0.07268
 316,0.00188253,-0.00641634,0.11541146,-0.00597895,-0.00063024,-0.00006
 069,-0.00661911,0.03159538,-0.00051962,-0.09472116,0.10079121,-0.00201
 913,0.01375722,-0.01032665,0.00022270,-0.00003282,-0.00612446,0.000046
 62,0.09330174,-0.00345922,0.00130106,0.00005477,-0.00083135,0.00424953
 ,-0.00011178,0.11152606,-0.34129037,0.00515559,0.00999061,-0.00459633,
 0.00016100,0.00051516,-0.00274842,0.00012914,-0.11605518,0.34427786,-0
 .00002087,0.00009894,0.00621714,0.00005046,0.00008794,-0.00202056,-0.0
 0218468,0.00511019,-0.03170981,-0.00008054,0.00001704,0.00187597,-0.00
 006134,0.00008058,0.00640579,0.00226421,-0.00535386,0.02310307,-0.0011
 8100,0.00263843,-0.00009493,0.00062433,0.00072159,-0.00005939,0.000829
 47,0.00236529,-0.00003079,-0.35444487,-0.08127290,-0.00081559,-0.01381
 450,-0.00654120,0.00005006,-0.00027902,-0.00026345,0.00001764,0.367998
 27,0.00632766,-0.00289853,0.00017997,-0.00243197,-0.00625668,0.0001486
 0,-0.02289434,0.00334865,-0.00018915,-0.08747399,-0.08135392,0.0001879
 0,0.02419561,0.01182100,-0.00009369,0.00069878,0.00018589,-0.00003346,
 0.08258306,0.07394662,-0.00015394,0.00013447,0.00794180,0.00000141,0.0
 0023752,0.00664465,0.00033830,-0.00001855,0.00043781,-0.00075717,0.000
 24597,-0.03177903,-0.00034975,-0.00032423,-0.00628918,0.00000391,-0.00
 003840,-0.00242468,0.00093336,-0.00021188,0.02446381,-0.00444726,0.001
 01468,-0.00011087,0.00086124,0.00027943,0.00004800,0.00142556,-0.00069
 883,0.00000701,0.00082051,-0.00134893,0.00003414,-0.00118092,-0.000614
 77,-0.00000122,0.00015111,0.00007296,-0.00000067,0.00009102,-0.0000906
 1,-0.00000151,0.31920174,0.00012401,-0.00256144,-0.00008492,0.00008736
 ,-0.00040863,0.00001079,-0.00095149,0.00023994,-0.00000262,-0.00085060
 ,0.00079007,-0.00001460,-0.00010703,0.00081545,0.00002505,-0.00007457,
 -0.00004327,0.00000290,-0.00009274,0.00009950,-0.00000170,0.22997107,0
 .21166156,0.00027377,-0.00004632,-0.00127838,0.00004774,-0.00004707,-0
 .00019825,0.00008540,-0.00004659,0.00007067,0.00005458,-0.00006176,0.0
 0014145,-0.00006513,-0.00003588,-0.00012547,0.00000974,0.00000427,0.00
 005854,0.00000788,-0.00000560,0.00003176,-0.08032479,-0.08855011,0.057
 34651,0.01134066,-0.04075184,0.00062614,-0.16679775,-0.02469201,-0.000
 24401,-0.04018905,-0.02397067,0.00019972,-0.00750868,0.01750389,-0.000
 38276,0.02820282,0.01941599,-0.00015151,-0.00000469,0.00090425,-0.0000
 0356,0.00027904,-0.00014587,-0.00002490,0.00263450,0.00034473,0.000230
 55,0.64756762,-0.02976392,-0.04864239,0.00010027,-0.01894169,-0.117449
 70,0.00029874,-0.02664438,0.01221539,-0.00021663,0.00580501,0.01718554
 ,-0.00019823,0.02912487,0.00172309,0.00030880,0.00105841,-0.00127849,-
 0.00001924,0.00009955,0.00168561,-0.00002619,0.00156380,-0.00197877,-0
 .00001498,-0.18537996,0.92391781,0.00092189,0.00016831,-0.01506499,-0.
 00049305,0.00049954,-0.05401831,-0.00000999,-0.00028645,-0.00754790,-0
 .00008349,-0.00008953,0.00313328,-0.00028268,0.00029681,0.00852046,0.0
 0002351,-0.00003080,-0.00146061,-0.00000424,0.00001139,0.00168128,0.00
 003160,-0.00011547,0.00012286,-0.00698467,0.01150143,0.21699386,-0.004
 34922,0.00408879,-0.00021183,0.01266703,-0.03779986,-0.00017442,-0.001
 11613,-0.00088125,-0.00005225,0.00175368,0.00013389,-0.00001405,-0.001
 73877,-0.00554734,0.00015215,0.00019766,-0.00220866,0.00000977,-0.0000
 5683,-0.00006624,0.00000172,-0.00076200,-0.00006546,-0.00002145,-0.121
 11641,0.13430190,0.00216733,0.15546462,-0.00844392,0.01829670,-0.00052
 271,-0.02336511,-0.09462907,-0.00048458,0.01420246,-0.00001004,-0.0001
 3393,0.00149710,-0.00776960,0.00014935,-0.01317559,-0.00916924,0.00016
 713,-0.00069550,-0.00029533,0.00001590,-0.00020384,-0.00019186,0.00000
 982,-0.00014456,0.00073734,-0.00000493,0.12552499,-0.64391076,-0.00898
 452,-0.17385995,0.79150584,-0.00027284,0.00012867,0.00545201,0.0001801
 1,-0.00064783,0.01847659,-0.00007512,-0.00009463,0.00016012,0.00002175
 ,0.00007423,0.00039888,0.00006544,-0.00018399,-0.00238871,0.00003575,0
 .00002637,0.00006222,-0.00000106,-0.00000145,-0.00008115,-0.00000681,0
 .00005171,-0.00002495,0.00176811,-0.00890374,-0.08345062,-0.00385405,0
 .01171289,0.03602924,0.00104989,0.01402621,-0.00006920,-0.07378479,-0.
 00663287,0.00076606,0.01105674,-0.00700694,0.00027891,-0.00289591,-0.0
 0637737,0.00003266,-0.01048777,-0.00288133,-0.00005868,0.00032115,-0.0
 0020440,0.00002044,-0.00001808,-0.00084920,0.00000163,-0.00351807,0.00
 150798,0.00014920,-0.33786535,0.05571689,0.00340499,-0.04048238,0.0802
 5172,0.00209773,0.49186206,-0.00150082,-0.00281989,0.00001707,-0.02092
 129,0.01299474,0.00011228,-0.00153542,-0.00300900,0.00009546,-0.002497
 51,0.00136771,-0.00006412,0.00140447,0.00195642,-0.00002625,-0.0003537
 8,0.00026828,-0.00001322,-0.00008043,-0.00012986,-0.00000950,0.0041913
 8,0.00058006,-0.00002683,0.08491255,-0.13402220,-0.00311806,0.09142038
 ,-0.06781354,-0.00202415,-0.16855632,0.48347749,0.00008661,-0.00014690
 ,0.00013378,0.00092436,-0.00017127,0.01551250,-0.00010290,0.00025281,0
 .00405226,0.00011096,-0.00001283,-0.00032017,0.00006939,0.00002363,0.0
 0002721,-0.00000735,0.00000878,-0.00001237,0.00000837,0.00000848,-0.00
 071517,0.00033959,-0.00049419,0.00005566,0.00403304,-0.00279775,-0.059
 41845,0.00253629,-0.00235120,0.01889539,-0.00954106,0.01888602,0.03461
 979,-0.00319708,-0.00026353,-0.00013234,0.00147943,0.00190299,-0.00004
 205,-0.00034933,0.00103776,-0.00006549,0.00134659,0.00007966,0.0000772
 9,0.00161524,-0.00043872,-0.00011281,0.00000261,0.00009132,-0.00000566
 ,0.00011282,0.00000366,0.00001629,0.00694297,-0.00799748,-0.00062365,-
 0.02549660,0.03675852,0.00133641,0.00233844,-0.00544324,0.00003073,-0.
 03017866,-0.01455760,-0.00027810,0.06564653,-0.00007013,0.00587637,-0.
 00033657,-0.01010173,-0.00288875,0.00013225,0.00407048,-0.00172385,0.0
 0009695,-0.00010341,-0.00285060,0.00005161,-0.00359892,-0.00194587,-0.
 00000291,0.00017502,-0.00008234,0.00001086,0.00001546,-0.00029824,0.00
 000226,-0.00458518,-0.00888923,-0.00095817,0.05254043,-0.01076204,0.00
 026789,-0.01854383,0.02262963,0.00000125,-0.00106918,-0.22154717,-0.00
 939065,0.00262193,0.18640157,-0.00004014,0.00001046,0.00010991,-0.0003
 9913,-0.00007161,-0.00028760,0.00008969,-0.00012681,-0.00038375,-0.000
 10993,-0.00004989,0.00025874,-0.00018536,-0.00001421,-0.00054585,0.000
 00407,-0.00000872,-0.00005948,-0.00001085,-0.00000617,0.00012099,-0.00
 088166,0.00312322,0.00026015,0.00255209,-0.00001530,-0.01064318,-0.001
 06238,0.00095525,0.00703569,0.00048571,-0.01031819,-0.01991161,0.00245
 376,0.00723599,0.04150449,-0.00735037,0.00101416,0.00016506,-0.0017587
 8,-0.00057325,-0.00002699,-0.00088778,0.00022781,-0.00001819,-0.001170
 49,0.00070499,-0.00004488,-0.00096969,0.00105263,0.00001502,-0.0000811
 5,-0.00008028,0.00000165,-0.00012971,0.00012487,-0.00000363,-0.3016500
 2,-0.23115957,0.10368439,0.01027541,-0.00392018,-0.00011697,-0.0032085
 2,0.00429191,0.00004215,-0.00664716,0.03058792,0.00183947,-0.01659658,
 -0.02662129,-0.00165250,0.62698491,0.00223285,-0.00149254,0.00006756,0
 .00317827,0.00109113,-0.00004462,-0.00092089,0.00046477,-0.00000172,0.
 00034568,0.00067128,-0.00003286,0.00148825,0.00023410,-0.00001832,-0.0
 0004643,0.00005480,0.00000376,0.00002906,0.00004496,-0.00000083,-0.209
 31350,-0.20569599,0.10867221,-0.02492245,0.00097161,0.00010142,0.00860
 872,-0.00892632,-0.00026476,0.04117098,-0.06651542,-0.00231947,-0.0187
 4437,0.03043156,-0.00815846,0.15787568,0.29964258,-0.00146334,-0.00009
 792,0.00160710,0.00014491,0.00000701,0.00007238,-0.00022489,0.00008208
 ,-0.00006224,-0.00016652,0.00016543,-0.00016371,0.00003685,0.00017049,
 0.00016545,-0.00001948,-0.00000525,-0.00003767,-0.00002157,0.00002449,
 -0.00003502,0.06903784,0.08657658,-0.06253079,-0.00080585,-0.00053734,
 0.00113755,0.00024903,-0.00010801,-0.00056433,0.00188048,-0.00039216,0
 .00725412,-0.00338659,-0.00188533,-0.01788612,0.15472629,-0.16349567,0
 .30125716,-0.00082438,0.00013160,0.00020428,-0.00003944,0.00011631,0.0
 0002446,-0.00013286,0.00008119,-0.00000963,-0.00008236,0.00007714,-0.0
 0001823,-0.00004293,0.00016246,0.00003306,-0.00001459,0.00000218,-0.00
 000687,-0.00001095,0.00001858,-0.00000572,-0.02057036,0.00926379,-0.02
 350823,-0.00132153,0.00022119,0.00008935,0.00040882,-0.00043647,-0.000
 03189,0.00158834,-0.00251354,-0.00001868,-0.00366637,0.00527035,-0.001
 24336,-0.29681006,0.03901815,-0.21998716,0.32151866,0.00011252,0.00051
 246,-0.00001533,-0.00002469,0.00007016,0.00001300,-0.00004372,0.000062
 38,0.00000041,0.00002653,0.00004982,0.00002135,0.00018672,-0.00005723,
 -0.00002010,-0.00001198,-0.00000287,-0.00000833,0.00000211,-0.00000313
 ,0.00000124,-0.02029694,0.00465342,-0.01887823,-0.00128404,0.00034530,
 -0.00022196,0.00041890,-0.00045373,0.00012545,0.00090382,-0.00478763,-
 0.00149545,0.00494911,0.00564897,0.00744444,0.06647461,-0.05097651,0.0
 7949561,-0.05141295,0.04493860,0.00099229,-0.00001078,-0.00000967,0.00
 010021,0.00007834,-0.00001652,0.00014777,-0.00004923,0.00000300,0.0001
 7343,-0.00011013,0.00001632,0.00010725,-0.00015663,-0.00005621,0.00001
 575,0.00000889,0.00000245,0.00002111,-0.00001943,0.00000213,0.01182935
 ,-0.00052665,0.00607023,-0.00081237,0.00052016,0.00001478,0.00027413,-
 0.00042046,-0.00000040,0.00055114,-0.00311835,-0.00017291,0.00073222,0
 .00477459,0.00042762,-0.25861087,0.06549176,-0.23021390,0.24447860,-0.
 06646209,0.22393307\\0.00000280,-0.00004182,0.00000172,0.00000819,0.00
 002547,0.00001753,-0.00001897,-0.00001806,-0.00000429,-0.00002926,0.00
 003436,0.00001845,0.00003787,0.00003810,-0.00000573,0.00000413,0.00000
 654,0.00001717,-0.00000315,0.00000801,0.00001645,-0.00000572,-0.000014
 98,-0.00001506,-0.00003688,-0.00002316,-0.00000133,0.00000675,0.000002
 48,0.00000698,0.00003009,0.00002512,-0.00000202,0.00002663,-0.00004702
 ,-0.00000919,-0.00002671,-0.00000214,-0.00003023,0.00000424,0.00000711
 ,-0.00001046\\\@
 The archive entry for this job was punched.


 ... I FELL INTO A REVERIE ... THE ATOMS WERE GAMBOLING BEFORE MY EYES
 ... I SAW HOW TWO SMALL ONES UNITED TO FORM A PAIR;
 HOW THE LARGER ONES SEIZED TWO OF THE SMALLER ONES;
 HOW STILL LARGER ONES KEPT HOLD OF THREE OR FOUR
 SMALLER ONES ... I SAW HOW THE LARGER ONES FORMED A CHAIN ...
 THIS WAS THE ORIGIN OF THE STRUCTURE THEORY.

                                   -- C.F.KEKULE VON STRADONITZ
 Job cpu time:       0 days  0 hours 37 minutes 28.8 seconds.
 Elapsed time:       0 days  0 hours  0 minutes 48.4 seconds.
 File lengths (MBytes):  RWF=     90 Int=      0 D2E=      0 Chk=      8 Scr=      1
 Normal termination of Gaussian 16 at Thu Dec  7 08:27:40 2023.
