 Entering Gaussian System, Link 0=/opt/soft/g16/g16
 Initial command:
 /opt/soft/g16/l1.exe "/scratch/gongke2021/TS/Gau-12693.inp" -scrdir="/scratch/gongke2021/TS/"
 Entering Link 1 = /opt/soft/g16/l1.exe PID=     12694.
  
 Copyright (c) 1988,1990,1992,1993,1995,1998,2003,2009,2016,
            Gaussian, Inc.  All Rights Reserved.
  
 This is part of the Gaussian(R) 16 program.  It is based on
 the Gaussian(R) 09 system (copyright 2009, Gaussian, Inc.),
 the Gaussian(R) 03 system (copyright 2003, Gaussian, Inc.),
 the Gaussian(R) 98 system (copyright 1998, Gaussian, Inc.),
 the Gaussian(R) 94 system (copyright 1995, Gaussian, Inc.),
 the Gaussian 92(TM) system (copyright 1992, Gaussian, Inc.),
 the Gaussian 90(TM) system (copyright 1990, Gaussian, Inc.),
 the Gaussian 88(TM) system (copyright 1988, Gaussian, Inc.),
 the Gaussian 86(TM) system (copyright 1986, Carnegie Mellon
 University), and the Gaussian 82(TM) system (copyright 1983,
 Carnegie Mellon University). Gaussian is a federally registered
 trademark of Gaussian, Inc.
  
 This software contains proprietary and confidential information,
 including trade secrets, belonging to Gaussian, Inc.
  
 This software is provided under written license and may be
 used, copied, transmitted, or stored only in accord with that
 written license.
  
 The following legend is applicable only to US Government
 contracts under FAR:
  
                    RESTRICTED RIGHTS LEGEND
  
 Use, reproduction and disclosure by the US Government is
 subject to restrictions as set forth in subparagraphs (a)
 and (c) of the Commercial Computer Software - Restricted
 Rights clause in FAR 52.227-19.
  
 Gaussian, Inc.
 340 Quinnipiac St., Bldg. 40, Wallingford CT 06492
  
  
 ---------------------------------------------------------------
 Warning -- This program may not be used in any manner that
 competes with the business of Gaussian, Inc. or will provide
 assistance to any competitor of Gaussian, Inc.  The licensee
 of this program is prohibited from giving any competitor of
 Gaussian, Inc. access to this program.  By using this program,
 the user acknowledges that Gaussian, Inc. is engaged in the
 business of creating and licensing software in the field of
 computational chemistry and represents and warrants to the
 licensee that it is not a competitor of Gaussian, Inc. and that
 it will not use this program in any manner prohibited above.
 ---------------------------------------------------------------
  

 Cite this work as:
 Gaussian 16, Revision A.03,
 M. J. Frisch, G. W. Trucks, H. B. Schlegel, G. E. Scuseria, 
 M. A. Robb, J. R. Cheeseman, G. Scalmani, V. Barone, 
 G. A. Petersson, H. Nakatsuji, X. Li, M. Caricato, A. V. Marenich, 
 J. Bloino, B. G. Janesko, R. Gomperts, B. Mennucci, H. P. Hratchian, 
 J. V. Ortiz, A. F. Izmaylov, J. L. Sonnenberg, D. Williams-Young, 
 F. Ding, F. Lipparini, F. Egidi, J. Goings, B. Peng, A. Petrone, 
 T. Henderson, D. Ranasinghe, V. G. Zakrzewski, J. Gao, N. Rega, 
 G. Zheng, W. Liang, M. Hada, M. Ehara, K. Toyota, R. Fukuda, 
 J. Hasegawa, M. Ishida, T. Nakajima, Y. Honda, O. Kitao, H. Nakai, 
 T. Vreven, K. Throssell, J. A. Montgomery, Jr., J. E. Peralta, 
 F. Ogliaro, M. J. Bearpark, J. J. Heyd, E. N. Brothers, K. N. Kudin, 
 V. N. Staroverov, T. A. Keith, R. Kobayashi, J. Normand, 
 K. Raghavachari, A. P. Rendell, J. C. Burant, S. S. Iyengar, 
 J. Tomasi, M. Cossi, J. M. Millam, M. Klene, C. Adamo, R. Cammi, 
 J. W. Ochterski, R. L. Martin, K. Morokuma, O. Farkas, 
 J. B. Foresman, and D. J. Fox, Gaussian, Inc., Wallingford CT, 2016.
 
 ******************************************
 Gaussian 16:  ES64L-G16RevA.03 25-Dec-2016
                 6-Jul-2023 
 ******************************************
 %mem=10GB
 %nprocshared=24
 Will use up to   24 processors via shared memory.
 ----------------------------------------------------------------------
 # opt=(calcfc,ts,noeigentest) freq 6-31+g(d,p) integral=grid=ultrafine
  m062x scrf=(SMD,solvent=water)
 ----------------------------------------------------------------------
 1/5=1,10=4,11=1,18=20,26=6,38=1/1,3;
 2/9=110,12=2,17=6,18=5,40=1/2;
 3/5=1,6=6,7=111,11=2,25=1,30=1,70=32201,71=2,72=1,74=-55,75=-5,140=1/1,2,3;
 4//1;
 5/5=2,38=5,53=1/2;
 8/6=4,10=90,11=11/1;
 11/6=1,8=1,9=11,15=111,16=1/1,2,10;
 10/6=1,13=1/2;
 6/7=2,8=2,9=2,10=2,28=1/1;
 7/10=1,18=20,25=1/1,2,3,16;
 1/5=1,10=4,11=1,18=20,26=6/3(2);
 2/9=110/2;
 99//99;
 2/9=110/2;
 3/5=1,6=6,7=111,11=2,25=1,30=1,70=32205,71=1,72=1,74=-55,75=-5/1,2,3;
 4/5=5,16=3,69=1/1;
 5/5=2,38=5,53=1/2;
 7//1,2,3,16;
 1/5=1,11=1,18=20,26=6/3(-5);
 2/9=110/2;
 6/7=2,8=2,9=2,10=2,19=2,28=1/1;
 99/9=1/99;
 ----
 test
 ----
 Symbolic Z-matrix:
 Charge = -1 Multiplicity = 2
 N                    -0.7585   -1.04543   0.29844 
 N                     0.03582   0.10544   0.34414 
 C                    -0.81032   1.16094   0.08555 
 C                    -2.04206   0.61337  -0.19919 
 N                    -2.02951  -0.73554  -0.15354 
 H                    -0.43513   2.17026   0.08257 
 H                    -2.95249   1.13659  -0.46027 
 H                     0.46152  -1.81675  -0.30129 
 C                     1.47858   0.00853  -0.01646 
 O                     2.04805   1.10501  -0.06258 
 O                     1.8467   -1.16542  -0.19689 
 
 Add virtual bond connecting atoms N1         and H8         Dist= 2.95D+00.
 Add virtual bond connecting atoms O11        and H8         Dist= 2.90D+00.

 GradGradGradGradGradGradGradGradGradGradGradGradGradGradGradGradGradGrad
 Berny optimization.
 Initialization pass.
                           ----------------------------
                           !    Initial Parameters    !
                           ! (Angstroms and Degrees)  !
 --------------------------                            --------------------------
 ! Name  Definition              Value          Derivative Info.                !
 --------------------------------------------------------------------------------
 ! R1    R(1,2)                  1.3991         calculate D2E/DX2 analytically  !
 ! R2    R(1,5)                  1.3841         calculate D2E/DX2 analytically  !
 ! R3    R(1,8)                  1.563          calculate D2E/DX2 analytically  !
 ! R4    R(2,3)                  1.3773         calculate D2E/DX2 analytically  !
 ! R5    R(2,9)                  1.4903         calculate D2E/DX2 analytically  !
 ! R6    R(3,4)                  1.3777         calculate D2E/DX2 analytically  !
 ! R7    R(3,6)                  1.0768         calculate D2E/DX2 analytically  !
 ! R8    R(4,5)                  1.3497         calculate D2E/DX2 analytically  !
 ! R9    R(4,7)                  1.082          calculate D2E/DX2 analytically  !
 ! R10   R(8,11)                 1.5342         calculate D2E/DX2 analytically  !
 ! R11   R(9,10)                 1.2364         calculate D2E/DX2 analytically  !
 ! R12   R(9,11)                 1.2435         calculate D2E/DX2 analytically  !
 ! A1    A(2,1,5)              110.3547         calculate D2E/DX2 analytically  !
 ! A2    A(2,1,8)               88.5851         calculate D2E/DX2 analytically  !
 ! A3    A(5,1,8)              134.5841         calculate D2E/DX2 analytically  !
 ! A4    A(1,2,3)              105.9898         calculate D2E/DX2 analytically  !
 ! A5    A(1,2,9)              119.2244         calculate D2E/DX2 analytically  !
 ! A6    A(3,2,9)              126.81           calculate D2E/DX2 analytically  !
 ! A7    A(2,3,4)              106.4675         calculate D2E/DX2 analytically  !
 ! A8    A(2,3,6)              120.318          calculate D2E/DX2 analytically  !
 ! A9    A(4,3,6)              133.1164         calculate D2E/DX2 analytically  !
 ! A10   A(3,4,5)              112.4515         calculate D2E/DX2 analytically  !
 ! A11   A(3,4,7)              127.5845         calculate D2E/DX2 analytically  !
 ! A12   A(5,4,7)              119.9499         calculate D2E/DX2 analytically  !
 ! A13   A(1,5,4)              104.084          calculate D2E/DX2 analytically  !
 ! A14   A(1,8,11)             117.9766         calculate D2E/DX2 analytically  !
 ! A15   A(2,9,10)             113.4067         calculate D2E/DX2 analytically  !
 ! A16   A(2,9,11)             112.5257         calculate D2E/DX2 analytically  !
 ! A17   A(10,9,11)            134.0657         calculate D2E/DX2 analytically  !
 ! A18   A(8,11,9)              98.2441         calculate D2E/DX2 analytically  !
 ! D1    D(5,1,2,3)              7.8384         calculate D2E/DX2 analytically  !
 ! D2    D(5,1,2,9)           -143.1465         calculate D2E/DX2 analytically  !
 ! D3    D(8,1,2,3)            145.5504         calculate D2E/DX2 analytically  !
 ! D4    D(8,1,2,9)             -5.4345         calculate D2E/DX2 analytically  !
 ! D5    D(2,1,5,4)             -8.0928         calculate D2E/DX2 analytically  !
 ! D6    D(8,1,5,4)           -117.281          calculate D2E/DX2 analytically  !
 ! D7    D(2,1,8,11)            15.091          calculate D2E/DX2 analytically  !
 ! D8    D(5,1,8,11)           132.7483         calculate D2E/DX2 analytically  !
 ! D9    D(1,2,3,4)             -4.2488         calculate D2E/DX2 analytically  !
 ! D10   D(1,2,3,6)            178.8969         calculate D2E/DX2 analytically  !
 ! D11   D(9,2,3,4)            143.8328         calculate D2E/DX2 analytically  !
 ! D12   D(9,2,3,6)            -33.0216         calculate D2E/DX2 analytically  !
 ! D13   D(1,2,9,10)           173.5297         calculate D2E/DX2 analytically  !
 ! D14   D(1,2,9,11)            -6.9059         calculate D2E/DX2 analytically  !
 ! D15   D(3,2,9,10)            29.1482         calculate D2E/DX2 analytically  !
 ! D16   D(3,2,9,11)          -151.2874         calculate D2E/DX2 analytically  !
 ! D17   D(2,3,4,5)             -0.7497         calculate D2E/DX2 analytically  !
 ! D18   D(2,3,4,7)           -179.3659         calculate D2E/DX2 analytically  !
 ! D19   D(6,3,4,5)            175.5296         calculate D2E/DX2 analytically  !
 ! D20   D(6,3,4,7)             -3.0866         calculate D2E/DX2 analytically  !
 ! D21   D(3,4,5,1)              5.4167         calculate D2E/DX2 analytically  !
 ! D22   D(7,4,5,1)           -175.8489         calculate D2E/DX2 analytically  !
 ! D23   D(1,8,11,9)           -20.2669         calculate D2E/DX2 analytically  !
 ! D24   D(2,9,11,8)            14.5322         calculate D2E/DX2 analytically  !
 ! D25   D(10,9,11,8)         -166.0242         calculate D2E/DX2 analytically  !
 --------------------------------------------------------------------------------
 Trust Radius=3.00D-01 FncErr=5.00D-06 GrdErr=5.00D-06 EigMax=2.50D+02 EigMin=1.00D-04
 Number of steps in this run=     65 maximum allowed number of steps=    100.
 Search for a saddle point of order  1.
 GradGradGradGradGradGradGradGradGradGradGradGradGradGradGradGradGradGrad

                          Input orientation:                          
 ---------------------------------------------------------------------
 Center     Atomic      Atomic             Coordinates (Angstroms)
 Number     Number       Type             X           Y           Z
 ---------------------------------------------------------------------
      1          7           0       -0.758500   -1.045433    0.298439
      2          7           0        0.035823    0.105438    0.344135
      3          6           0       -0.810319    1.160941    0.085546
      4          6           0       -2.042061    0.613365   -0.199190
      5          7           0       -2.029507   -0.735535   -0.153535
      6          1           0       -0.435132    2.170262    0.082572
      7          1           0       -2.952494    1.136589   -0.460271
      8          1           0        0.461519   -1.816750   -0.301294
      9          6           0        1.478576    0.008533   -0.016462
     10          8           0        2.048046    1.105012   -0.062580
     11          8           0        1.846696   -1.165417   -0.196892
 ---------------------------------------------------------------------
                    Distance matrix (angstroms):
                    1          2          3          4          5
     1  N    0.000000
     2  N    1.399122   0.000000
     3  C    2.217227   1.377284   0.000000
     4  C    2.155638   2.206987   1.377716   0.000000
     5  N    1.384116   2.284841   2.267201   1.349731   0.000000
     6  H    3.239114   2.133943   1.076802   2.255114   3.322865
     7  H    3.185980   3.261960   2.210752   1.082042   2.109701
     8  H    1.563027   2.071859   3.260960   3.490529   2.719571
     9  C    2.492893   1.490288   2.564662   3.576884   3.588742
    10  O    3.554075   2.283332   2.862747   4.121814   4.474631
    11  O    2.654580   2.277508   3.542801   4.276272   3.900209
                    6          7          8          9         10
     6  H    0.000000
     7  H    2.774936   0.000000
     8  H    4.104582   4.516964   0.000000
     9  C    2.888799   4.593894   2.108836   0.000000
    10  O    2.705919   5.016429   3.333278   1.236402   0.000000
    11  O    4.051123   5.329242   1.534226   1.243473   2.283294
                   11
    11  O    0.000000
 Stoichiometry    C3H3N3O2(1-,2)
 Framework group  C1[X(C3H3N3O2)]
 Deg. of freedom    27
 Full point group                 C1      NOp   1
 Largest Abelian subgroup         C1      NOp   1
 Largest concise Abelian subgroup C1      NOp   1
                         Standard orientation:                         
 ---------------------------------------------------------------------
 Center     Atomic      Atomic             Coordinates (Angstroms)
 Number     Number       Type             X           Y           Z
 ---------------------------------------------------------------------
      1          7           0       -0.756621   -1.054473    0.303771
      2          7           0        0.021393    0.107629    0.345650
      3          6           0       -0.839147    1.150046    0.081553
      4          6           0       -2.062694    0.584028   -0.202454
      5          7           0       -2.031252   -0.764360   -0.151122
      6          1           0       -0.478173    2.164519    0.074822
      7          1           0       -2.980038    1.093309   -0.466892
      8          1           0        0.474913   -1.811067   -0.291161
      9          6           0        1.465846    0.029504   -0.012694
     10          8           0        2.019917    1.133676   -0.062687
     11          8           0        1.850662   -1.139900   -0.187725
 ---------------------------------------------------------------------
 Rotational constants (GHZ):           5.1004077           1.7707838           1.3479927
 Standard basis: 6-31+G(d,p) (6D, 7F)
 There are   167 symmetry adapted cartesian basis functions of A   symmetry.
 There are   167 symmetry adapted basis functions of A   symmetry.
   167 basis functions,   277 primitive gaussians,   167 cartesian basis functions
    30 alpha electrons       29 beta electrons
       nuclear repulsion energy       357.8789830215 Hartrees.
 NAtoms=   11 NActive=   11 NUniq=   11 SFac= 1.00D+00 NAtFMM=   60 NAOKFM=F Big=F
 Integral buffers will be    131072 words long.
 Raffenetti 2 integral format.
 Two-electron integral symmetry is turned on.
 Force inversion solution in PCM.
 ------------------------------------------------------------------------------
 Polarizable Continuum Model (PCM)
 =================================
 Model                : PCM.
 Atomic radii         : SMD-Coulomb.
 Polarization charges : Total charges.
 Charge compensation  : None.
 Solution method      : Matrix inversion.
 Cavity type          : VdW (van der Waals Surface) (Alpha=1.000).
 Cavity algorithm     : GePol (No added spheres)
                        Default sphere list used, NSphG=   11.
                        Lebedev-Laikov grids with approx.  5.0 points / Ang**2.
                        Smoothing algorithm: York/Karplus (Gamma=1.0000).
                        Polarization charges: spherical gaussians, with
                                              point-specific exponents (IZeta= 3).
                        Self-potential: point-specific (ISelfS= 7).
                        Self-field    : sphere-specific E.n sum rule (ISelfD= 2).
 1st derivatives      : Analytical E(r).r(x)/FMM algorithm (CHGder, D1EAlg=3).
                        Cavity 1st derivative terms included.
 2nd derivatives      : Analytical E(r).r(xy)/FMM algorithm (CHGder, D2EAlg=3).
                        Cavity 2nd derivative terms included.
 Solvent              : Water, Eps=  78.355300 Eps(inf)=   1.777849
 ------------------------------------------------------------------------------
 Spheres list:
 ISph  on   Nord     Re0    Alpha      Xe            Ye            Ze
    1   N      1    1.8900  1.000     -0.756621     -1.054473      0.303771
    2   N      2    1.8900  1.000      0.021393      0.107629      0.345650
    3   C      3    1.8500  1.000     -0.839147      1.150046      0.081553
    4   C      4    1.8500  1.000     -2.062694      0.584028     -0.202454
    5   N      5    1.8900  1.000     -2.031252     -0.764360     -0.151122
    6   H      6    1.2000  1.000     -0.478173      2.164519      0.074822
    7   H      7    1.2000  1.000     -2.980038      1.093309     -0.466892
    8   H      8    1.2000  1.000      0.474913     -1.811067     -0.291161
    9   C      9    1.8500  1.000      1.465846      0.029504     -0.012694
   10   O     10    1.5200  1.000      2.019917      1.133676     -0.062687
   11   O     11    1.5200  1.000      1.850662     -1.139900     -0.187725
 ------------------------------------------------------------------------------
 ------------------------------------------------------------------------------
 Atomic radii for non-electrostatic terms: SMD-CDS.
 ------------------------------------------------------------------------------
 Nuclear repulsion after PCM non-electrostatic terms =      357.8854160952 Hartrees.
 One-electron integrals computed using PRISM.
 NBasis=   167 RedAO= T EigKep=  4.62D-05  NBF=   167
 NBsUse=   167 1.00D-06 EigRej= -1.00D+00 NBFU=   167
 ExpMin= 4.38D-02 ExpMax= 5.48D+03 ExpMxC= 8.25D+02 IAcc=3 IRadAn=         5 AccDes= 0.00D+00
 Harris functional with IExCor= 1009 and IRadAn=       5 diagonalized for initial guess.
 HarFok:  IExCor= 1009 AccDes= 0.00D+00 IRadAn=         5 IDoV= 1 UseB2=F ITyADJ=14
 ICtDFT=  3500011 ScaDFX=  1.000000  1.000000  1.000000  1.000000
 FoFCou: FMM=F IPFlag=           0 FMFlag=      100000 FMFlg1=           0
         NFxFlg=           0 DoJE=T BraDBF=F KetDBF=T FulRan=T
         wScrn=  0.000000 ICntrl=       500 IOpCl=  0 I1Cent=   200000004 NGrid=           0
         NMat0=    1 NMatS0=      1 NMatT0=    0 NMatD0=    1 NMtDS0=    0 NMtDT0=    0
 Petite list used in FoFCou.
 Initial guess <Sx>= 0.0000 <Sy>= 0.0000 <Sz>= 0.5000 <S**2>= 0.7500 S= 0.5000
 Keep R1 and R2 ints in memory in canonical form, NReq=220618657.
 Requested convergence on RMS density matrix=1.00D-08 within 128 cycles.
 Requested convergence on MAX density matrix=1.00D-06.
 Requested convergence on             energy=1.00D-06.
 No special actions if energy rises.
 Inv3:  Mode=1 IEnd=     3042147.
 Iteration    1 A*A^-1 deviation from unit magnitude is 2.66D-15 for     10.
 Iteration    1 A*A^-1 deviation from orthogonality  is 1.57D-15 for    693    638.
 Iteration    1 A^-1*A deviation from unit magnitude is 2.66D-15 for     10.
 Iteration    1 A^-1*A deviation from orthogonality  is 1.77D-15 for    980    115.
 Error on total polarization charges =  0.05047
 SCF Done:  E(UM062X) =  -430.699605918     A.U. after   19 cycles
            NFock= 19  Conv=0.89D-08     -V/T= 2.0089
 <Sx>= 0.0000 <Sy>= 0.0000 <Sz>= 0.5000 <S**2>= 0.7641 S= 0.5070
 <L.S>=  0.00000000000    
 SMD-CDS (non-electrostatic) energy       (kcal/mol) =       4.04
 (included in total energy above)
 Annihilation of the first spin contaminant:
 S**2 before annihilation     0.7641,   after     0.7501
 DoSCS=F DFT=T ScalE2(SS,OS)=  1.000000  1.000000
 Range of M.O.s used for correlation:     1   167
 NBasis=   167 NAE=    30 NBE=    29 NFC=     0 NFV=     0
 NROrb=    167 NOA=    30 NOB=    29 NVA=   137 NVB=   138

 **** Warning!!: The largest alpha MO coefficient is  0.39247366D+02


 **** Warning!!: The largest beta MO coefficient is  0.43960153D+02

 Symmetrizing basis deriv contribution to polar:
 IMax=3 JMax=2 DiffMx= 0.00D+00
 G2DrvN: will do    12 centers at a time, making    1 passes.
 Calling FoFCou, ICntrl=  3107 FMM=F I1Cent=   0 AccDes= 0.00D+00.
 NEqPCM:  Using equilibrium solvation (IEInf=0, Eps=  78.3553, EpsInf=   1.7778)
 G2PCM: DoFxE=T DoFxN=T DoGrad=T DoDP/DQ/DG/TGxP=FFFF NFrqRd=   0 IEInf=0 SqF1=F DoCFld=F IF1Alg=4.
 End of G2Drv F.D. properties file   721 does not exist.
 End of G2Drv F.D. properties file   722 does not exist.
 End of G2Drv F.D. properties file   788 does not exist.
          IDoAtm=11111111111
 NEqPCM:  Using equilibrium solvation (IEInf=0, Eps=  78.3553, EpsInf=   1.7778)
          Differentiating once with respect to nuclear coordinates.
 Keep R1 and R2 ints in memory in canonical form, NReq=220545632.
          There are    36 degrees of freedom in the 1st order CPHF.  IDoFFX=6 NUNeed=     0.
     30 vectors produced by pass  0 Test12= 2.25D-14 2.78D-09 XBig12= 3.48D-01 1.08D-01.
 AX will form    30 AO Fock derivatives at one time.
     30 vectors produced by pass  1 Test12= 2.25D-14 2.78D-09 XBig12= 3.20D-02 5.09D-02.
     30 vectors produced by pass  2 Test12= 2.25D-14 2.78D-09 XBig12= 1.67D-03 5.74D-03.
     30 vectors produced by pass  3 Test12= 2.25D-14 2.78D-09 XBig12= 3.58D-05 7.30D-04.
     30 vectors produced by pass  4 Test12= 2.25D-14 2.78D-09 XBig12= 7.69D-07 1.31D-04.
     30 vectors produced by pass  5 Test12= 2.25D-14 2.78D-09 XBig12= 1.36D-08 1.31D-05.
     30 vectors produced by pass  6 Test12= 2.25D-14 2.78D-09 XBig12= 1.66D-10 1.40D-06.
     25 vectors produced by pass  7 Test12= 2.25D-14 2.78D-09 XBig12= 1.49D-12 1.05D-07.
      9 vectors produced by pass  8 Test12= 2.25D-14 2.78D-09 XBig12= 1.23D-14 1.32D-08.
 InvSVY:  IOpt=1 It=  1 EMax= 1.89D-15
 Solved reduced A of dimension   244 with    30 vectors.
 End of Minotr F.D. properties file   721 does not exist.
 End of Minotr F.D. properties file   722 does not exist.
 End of Minotr F.D. properties file   788 does not exist.

 **********************************************************************

            Population analysis using the SCF density.

 **********************************************************************

 Orbital symmetries:
 Alpha Orbitals:
       Occupied  (A) (A) (A) (A) (A) (A) (A) (A) (A) (A) (A) (A)
                 (A) (A) (A) (A) (A) (A) (A) (A) (A) (A) (A) (A)
                 (A) (A) (A) (A) (A) (A)
       Virtual   (A) (A) (A) (A) (A) (A) (A) (A) (A) (A) (A) (A)
                 (A) (A) (A) (A) (A) (A) (A) (A) (A) (A) (A) (A)
                 (A) (A) (A) (A) (A) (A) (A) (A) (A) (A) (A) (A)
                 (A) (A) (A) (A) (A) (A) (A) (A) (A) (A) (A) (A)
                 (A) (A) (A) (A) (A) (A) (A) (A) (A) (A) (A) (A)
                 (A) (A) (A) (A) (A) (A) (A) (A) (A) (A) (A) (A)
                 (A) (A) (A) (A) (A) (A) (A) (A) (A) (A) (A) (A)
                 (A) (A) (A) (A) (A) (A) (A) (A) (A) (A) (A) (A)
                 (A) (A) (A) (A) (A) (A) (A) (A) (A) (A) (A) (A)
                 (A) (A) (A) (A) (A) (A) (A) (A) (A) (A) (A) (A)
                 (A) (A) (A) (A) (A) (A) (A) (A) (A) (A) (A) (A)
                 (A) (A) (A) (A) (A)
 Beta  Orbitals:
       Occupied  (A) (A) (A) (A) (A) (A) (A) (A) (A) (A) (A) (A)
                 (A) (A) (A) (A) (A) (A) (A) (A) (A) (A) (A) (A)
                 (A) (A) (A) (A) (A)
       Virtual   (A) (A) (A) (A) (A) (A) (A) (A) (A) (A) (A) (A)
                 (A) (A) (A) (A) (A) (A) (A) (A) (A) (A) (A) (A)
                 (A) (A) (A) (A) (A) (A) (A) (A) (A) (A) (A) (A)
                 (A) (A) (A) (A) (A) (A) (A) (A) (A) (A) (A) (A)
                 (A) (A) (A) (A) (A) (A) (A) (A) (A) (A) (A) (A)
                 (A) (A) (A) (A) (A) (A) (A) (A) (A) (A) (A) (A)
                 (A) (A) (A) (A) (A) (A) (A) (A) (A) (A) (A) (A)
                 (A) (A) (A) (A) (A) (A) (A) (A) (A) (A) (A) (A)
                 (A) (A) (A) (A) (A) (A) (A) (A) (A) (A) (A) (A)
                 (A) (A) (A) (A) (A) (A) (A) (A) (A) (A) (A) (A)
                 (A) (A) (A) (A) (A) (A) (A) (A) (A) (A) (A) (A)
                 (A) (A) (A) (A) (A) (A)
 The electronic state is 2-A.
 Alpha  occ. eigenvalues --  -19.66016 -19.62612 -14.82150 -14.81982 -14.77370
 Alpha  occ. eigenvalues --  -10.70484 -10.56882 -10.56546  -1.22454  -1.15844
 Alpha  occ. eigenvalues --   -1.12439  -0.98615  -0.87912  -0.74595  -0.68066
 Alpha  occ. eigenvalues --   -0.63389  -0.61277  -0.56513  -0.54098  -0.52627
 Alpha  occ. eigenvalues --   -0.49507  -0.48661  -0.44433  -0.39705  -0.38142
 Alpha  occ. eigenvalues --   -0.37481  -0.36367  -0.35233  -0.32151  -0.17119
 Alpha virt. eigenvalues --    0.01988   0.04104   0.04893   0.05530   0.05875
 Alpha virt. eigenvalues --    0.06582   0.06945   0.08782   0.09405   0.09843
 Alpha virt. eigenvalues --    0.10102   0.12728   0.13022   0.14349   0.14978
 Alpha virt. eigenvalues --    0.16528   0.17784   0.20250   0.21173   0.21821
 Alpha virt. eigenvalues --    0.22882   0.23696   0.24859   0.24974   0.25186
 Alpha virt. eigenvalues --    0.26618   0.27118   0.27668   0.28133   0.29473
 Alpha virt. eigenvalues --    0.30179   0.30830   0.31529   0.32641   0.33346
 Alpha virt. eigenvalues --    0.34590   0.36006   0.36962   0.39289   0.40458
 Alpha virt. eigenvalues --    0.41496   0.48575   0.49586   0.53614   0.64308
 Alpha virt. eigenvalues --    0.72557   0.75704   0.78017   0.79902   0.82610
 Alpha virt. eigenvalues --    0.86151   0.88595   0.89713   0.90730   0.95088
 Alpha virt. eigenvalues --    0.97360   0.98056   0.98432   1.01671   1.03400
 Alpha virt. eigenvalues --    1.04782   1.09053   1.12972   1.15119   1.16845
 Alpha virt. eigenvalues --    1.19734   1.20601   1.24195   1.26495   1.28281
 Alpha virt. eigenvalues --    1.33450   1.33981   1.36176   1.37967   1.39196
 Alpha virt. eigenvalues --    1.40010   1.44200   1.46618   1.49098   1.50503
 Alpha virt. eigenvalues --    1.51169   1.55878   1.58342   1.59794   1.61613
 Alpha virt. eigenvalues --    1.75578   1.78218   1.81865   1.83552   1.85032
 Alpha virt. eigenvalues --    1.91096   1.91916   1.96262   1.98949   2.02361
 Alpha virt. eigenvalues --    2.03515   2.07449   2.09860   2.14142   2.18027
 Alpha virt. eigenvalues --    2.20986   2.23052   2.27033   2.28555   2.32455
 Alpha virt. eigenvalues --    2.36017   2.39943   2.43955   2.52042   2.54157
 Alpha virt. eigenvalues --    2.55788   2.58555   2.64825   2.69155   2.73258
 Alpha virt. eigenvalues --    2.78765   2.79755   2.82263   2.85628   2.92120
 Alpha virt. eigenvalues --    2.94531   2.97229   3.09302   3.10072   3.13168
 Alpha virt. eigenvalues --    3.23378   3.27471   3.33524   3.73598   3.98497
 Alpha virt. eigenvalues --    4.16513   4.24217   4.27095   4.44244   4.56905
 Alpha virt. eigenvalues --    4.62229   4.68560
  Beta  occ. eigenvalues --  -19.65958 -19.62526 -14.81876 -14.81628 -14.76904
  Beta  occ. eigenvalues --  -10.70419 -10.56719 -10.56622  -1.22107  -1.14991
  Beta  occ. eigenvalues --   -1.12199  -0.97356  -0.87149  -0.73448  -0.67525
  Beta  occ. eigenvalues --   -0.62623  -0.60688  -0.55126  -0.53852  -0.52160
  Beta  occ. eigenvalues --   -0.48712  -0.47548  -0.43401  -0.38914  -0.37321
  Beta  occ. eigenvalues --   -0.36404  -0.34628  -0.32875  -0.29758
  Beta virt. eigenvalues --   -0.01260   0.01957   0.04097   0.04680   0.05133
  Beta virt. eigenvalues --    0.06095   0.06696   0.07371   0.08484   0.08873
  Beta virt. eigenvalues --    0.10531   0.11214   0.12557   0.13230   0.14396
  Beta virt. eigenvalues --    0.14610   0.16234   0.17440   0.20150   0.20984
  Beta virt. eigenvalues --    0.21836   0.22815   0.23417   0.24776   0.25033
  Beta virt. eigenvalues --    0.25243   0.26463   0.26814   0.27790   0.27867
  Beta virt. eigenvalues --    0.29780   0.30121   0.30687   0.31372   0.32638
  Beta virt. eigenvalues --    0.33275   0.34454   0.35825   0.36522   0.39170
  Beta virt. eigenvalues --    0.40372   0.41977   0.48677   0.50090   0.53922
  Beta virt. eigenvalues --    0.64628   0.72825   0.75115   0.79086   0.80264
  Beta virt. eigenvalues --    0.82946   0.86271   0.88775   0.90050   0.91184
  Beta virt. eigenvalues --    0.95496   0.97614   0.98627   0.98977   1.02635
  Beta virt. eigenvalues --    1.05143   1.05336   1.09375   1.13197   1.15331
  Beta virt. eigenvalues --    1.16821   1.19897   1.21169   1.24655   1.26863
  Beta virt. eigenvalues --    1.28278   1.33727   1.34063   1.36677   1.38291
  Beta virt. eigenvalues --    1.39458   1.40214   1.44748   1.47218   1.49567
  Beta virt. eigenvalues --    1.51089   1.51509   1.56417   1.59109   1.60288
  Beta virt. eigenvalues --    1.62222   1.75799   1.78295   1.82179   1.83664
  Beta virt. eigenvalues --    1.85200   1.91622   1.92167   1.96519   1.99246
  Beta virt. eigenvalues --    2.02775   2.03785   2.07589   2.10329   2.14476
  Beta virt. eigenvalues --    2.18405   2.21446   2.23968   2.27438   2.28879
  Beta virt. eigenvalues --    2.33078   2.36500   2.40308   2.44386   2.52523
  Beta virt. eigenvalues --    2.54554   2.56163   2.58990   2.65330   2.69803
  Beta virt. eigenvalues --    2.73864   2.79281   2.80332   2.82727   2.86274
  Beta virt. eigenvalues --    2.92616   2.95191   2.97625   3.09496   3.10457
  Beta virt. eigenvalues --    3.13434   3.23648   3.27862   3.33807   3.74094
  Beta virt. eigenvalues --    3.99029   4.16663   4.24405   4.27382   4.44318
  Beta virt. eigenvalues --    4.57672   4.62241   4.69334
          Condensed to atoms (all electrons):
               1          2          3          4          5          6
     1  N    7.880496  -0.270001  -0.502588   0.425589  -0.447078   0.010529
     2  N   -0.270001   7.427447   0.232086  -0.166777   0.184501  -0.040652
     3  C   -0.502588   0.232086   6.402256  -0.349720   0.230137   0.398595
     4  C    0.425589  -0.166777  -0.349720   5.875754  -0.013249  -0.018762
     5  N   -0.447078   0.184501   0.230137  -0.013249   7.461733  -0.001771
     6  H    0.010529  -0.040652   0.398595  -0.018762  -0.001771   0.439756
     7  H    0.025858  -0.010014  -0.035735   0.408420  -0.061467   0.000446
     8  H    0.224649  -0.087950  -0.023493   0.024475  -0.028814  -0.000066
     9  C    0.022881   0.183690  -0.187311  -0.006807  -0.013656  -0.007423
    10  O    0.007731  -0.168296  -0.012494   0.009420   0.002854  -0.000666
    11  O   -0.095777  -0.102873   0.025565  -0.003974   0.012299  -0.000246
               7          8          9         10         11
     1  N    0.025858   0.224649   0.022881   0.007731  -0.095777
     2  N   -0.010014  -0.087950   0.183690  -0.168296  -0.102873
     3  C   -0.035735  -0.023493  -0.187311  -0.012494   0.025565
     4  C    0.408420   0.024475  -0.006807   0.009420  -0.003974
     5  N   -0.061467  -0.028814  -0.013656   0.002854   0.012299
     6  H    0.000446  -0.000066  -0.007423  -0.000666  -0.000246
     7  H    0.470979  -0.000021  -0.000740  -0.000110   0.000077
     8  H   -0.000021   0.492570   0.044556   0.004685   0.020668
     9  C   -0.000740   0.044556   4.529448   0.448124   0.272494
    10  O   -0.000110   0.004685   0.448124   8.527153  -0.114587
    11  O    0.000077   0.020668   0.272494  -0.114587   8.597983
          Atomic-Atomic Spin Densities.
               1          2          3          4          5          6
     1  N    0.266437  -0.071157   0.159761  -0.022860  -0.172902  -0.000782
     2  N   -0.071157   0.309214  -0.173802  -0.021330   0.050533   0.001522
     3  C    0.159761  -0.173802   0.371210   0.056233  -0.109880  -0.004013
     4  C   -0.022860  -0.021330   0.056233  -0.126702  -0.012371   0.001908
     5  N   -0.172902   0.050533  -0.109880  -0.012371   0.579742   0.000197
     6  H   -0.000782   0.001522  -0.004013   0.001908   0.000197  -0.011441
     7  H    0.001718  -0.001106  -0.002075   0.004442  -0.002082  -0.000019
     8  H    0.053880  -0.048739   0.005312   0.015386  -0.022636  -0.000014
     9  C   -0.046204   0.070709  -0.024945  -0.019673   0.008605   0.001073
    10  O    0.008097  -0.017773   0.011580   0.008087  -0.002685   0.000024
    11  O   -0.002806  -0.001983  -0.001179  -0.006397   0.003395   0.000089
               7          8          9         10         11
     1  N    0.001718   0.053880  -0.046204   0.008097  -0.002806
     2  N   -0.001106  -0.048739   0.070709  -0.017773  -0.001983
     3  C   -0.002075   0.005312  -0.024945   0.011580  -0.001179
     4  C    0.004442   0.015386  -0.019673   0.008087  -0.006397
     5  N   -0.002082  -0.022636   0.008605  -0.002685   0.003395
     6  H   -0.000019  -0.000014   0.001073   0.000024   0.000089
     7  H    0.002678   0.000008  -0.000074   0.000014  -0.000004
     8  H    0.000008   0.215858   0.003291   0.001591  -0.060551
     9  C   -0.000074   0.003291   0.114357  -0.038292  -0.008603
    10  O    0.000014   0.001591  -0.038292   0.067084   0.003619
    11  O   -0.000004  -0.060551  -0.008603   0.003619   0.063298
 Mulliken charges and spin densities:
               1          2
     1  N   -0.282289   0.173182
     2  N   -0.181160   0.096087
     3  C   -0.177299   0.288199
     4  C   -0.184369  -0.123278
     5  N   -0.325490   0.319915
     6  H    0.220259  -0.011456
     7  H    0.202307   0.003499
     8  H    0.328741   0.163387
     9  C    0.714744   0.060241
    10  O   -0.703814   0.041346
    11  O   -0.611628  -0.011123
 Sum of Mulliken charges =  -1.00000   1.00000
 Mulliken charges and spin densities with hydrogens summed into heavy atoms:
               1          2
     1  N   -0.282289   0.173182
     2  N   -0.181160   0.096087
     3  C    0.042959   0.276743
     4  C    0.017937  -0.119779
     5  N   -0.325490   0.319915
     9  C    0.714744   0.060241
    10  O   -0.703814   0.041346
    11  O   -0.282887   0.152264
 APT charges:
               1
     1  N   -0.285934
     2  N   -0.240196
     3  C   -0.567341
     4  C   -0.451166
     5  N   -0.449506
     6  H    0.517961
     7  H    0.729813
     8  H    0.398373
     9  C    0.367784
    10  O   -0.523219
    11  O   -0.496568
 Sum of APT charges =  -1.00000
 APT charges with hydrogens summed into heavy atoms:
               1
     1  N   -0.285934
     2  N   -0.240196
     3  C   -0.049380
     4  C    0.278646
     5  N   -0.449506
     9  C    0.367784
    10  O   -0.523219
    11  O   -0.098195
 Electronic spatial extent (au):  <R**2>=            843.0367
 Charge=             -1.0000 electrons
 Dipole moment (field-independent basis, Debye):
    X=             -3.3010    Y=              2.0637    Z=             -0.5581  Tot=              3.9328
 Quadrupole moment (field-independent basis, Debye-Ang):
   XX=            -71.6073   YY=            -54.7368   ZZ=            -50.5680
   XY=            -10.3166   XZ=              2.0790   YZ=              0.5233
 Traceless Quadrupole moment (field-independent basis, Debye-Ang):
   XX=            -12.6366   YY=              4.2339   ZZ=              8.4027
   XY=            -10.3166   XZ=              2.0790   YZ=              0.5233
 Octapole moment (field-independent basis, Debye-Ang**2):
  XXX=            -17.7498  YYY=              4.9458  ZZZ=             -1.0275  XYY=             -4.1956
  XXY=             12.9605  XXZ=              1.4168  XZZ=              7.0174  YZZ=             -0.1390
  YYZ=             -1.8977  XYZ=              1.4766
 Hexadecapole moment (field-independent basis, Debye-Ang**3):
 XXXX=           -867.3466 YYYY=           -295.9921 ZZZZ=            -69.6205 XXXY=            -63.8080
 XXXZ=             15.4039 YYYX=            -23.3080 YYYZ=              3.9077 ZZZX=             -0.4359
 ZZZY=              1.0147 XXYY=           -221.1344 XXZZ=           -144.0661 YYZZ=            -68.1558
 XXYZ=             -7.8727 YYXZ=              2.9148 ZZXY=             -1.6277
 N-N= 3.578854160952D+02 E-N=-1.733962963027D+03  KE= 4.269032100770D+02
  Exact polarizability:   0.000   0.000   0.000   0.000   0.000   0.000
 Approx polarizability: 115.479   1.294 105.600   0.898   2.517  57.597
                          Isotropic Fermi Contact Couplings
        Atom                 a.u.       MegaHertz       Gauss      10(-4) cm-1
     1  N(14)              0.15914      51.41929      18.34768      17.15163
     2  N(14)              0.07352      23.75444       8.47618       7.92363
     3  C(13)              0.03896      43.80306      15.63002      14.61113
     4  C(13)             -0.03037     -34.14061     -12.18222     -11.38808
     5  N(14)              0.09371      30.27938      10.80444      10.10011
     6  H(1)              -0.00391     -17.46601      -6.23231      -5.82603
     7  H(1)               0.00089       3.98177       1.42079       1.32818
     8  H(1)               0.05895     263.49174      94.02040      87.89138
     9  C(13)              0.02356      26.48307       9.44982       8.83380
    10  O(17)              0.01039      -6.29776      -2.24720      -2.10071
    11  O(17)              0.04152     -25.17127      -8.98173      -8.39623
 --------------------------------------------------------
       Center         ----  Spin Dipole Couplings  ----
                      3XX-RR        3YY-RR        3ZZ-RR
 --------------------------------------------------------
     1   Atom       -0.228771     -0.210031      0.438802
     2   Atom       -0.190135     -0.194681      0.384815
     3   Atom       -0.110729     -0.110751      0.221480
     4   Atom        0.033762      0.057193     -0.090956
     5   Atom       -0.337300     -0.361197      0.698497
     6   Atom       -0.013133      0.017131     -0.003998
     7   Atom        0.000766      0.005174     -0.005940
     8   Atom        0.000926      0.003375     -0.004302
     9   Atom        0.056741     -0.045240     -0.011501
    10   Atom       -0.004442     -0.074670      0.079112
    11   Atom       -0.052330      0.055449     -0.003118
 --------------------------------------------------------
                        XY            XZ            YZ
 --------------------------------------------------------
     1   Atom        0.055278     -0.030282     -0.207755
     2   Atom        0.005946      0.028170     -0.007982
     3   Atom       -0.002606     -0.061234      0.012149
     4   Atom        0.007232      0.031048     -0.013356
     5   Atom        0.010864     -0.137232     -0.047681
     6   Atom        0.011970     -0.004786     -0.002018
     7   Atom        0.000568      0.001373     -0.000524
     8   Atom       -0.009415     -0.001293      0.004338
     9   Atom       -0.008716      0.069925     -0.009280
    10   Atom       -0.031501      0.121997     -0.053139
    11   Atom        0.033958     -0.080406     -0.104639
 --------------------------------------------------------


 ---------------------------------------------------------------------------------
              Anisotropic Spin Dipole Couplings in Principal Axis System
 ---------------------------------------------------------------------------------

       Atom             a.u.   MegaHertz   Gauss  10(-4) cm-1        Axes

              Baa    -0.2998   -11.563    -4.126    -3.857 -0.5447  0.8129  0.2063
     1 N(14)  Bbb    -0.2026    -7.812    -2.788    -2.606  0.8364  0.5086  0.2042
              Bcc     0.5024    19.375     6.913     6.463 -0.0611 -0.2838  0.9569
 
              Baa    -0.1997    -7.701    -2.748    -2.569 -0.6111  0.7906  0.0402
     2 N(14)  Bbb    -0.1866    -7.197    -2.568    -2.401  0.7901  0.6122 -0.0304
              Bcc     0.3863    14.898     5.316     4.970  0.0487 -0.0132  0.9987
 
              Baa    -0.1217   -16.327    -5.826    -5.446  0.9839  0.0411  0.1741
     3 C(13)  Bbb    -0.1112   -14.920    -5.324    -4.977 -0.0342  0.9985 -0.0428
              Bcc     0.2329    31.247    11.150    10.423 -0.1756  0.0361  0.9838
 
              Baa    -0.0996   -13.369    -4.770    -4.459 -0.2305  0.0931  0.9686
     4 C(13)  Bbb     0.0402     5.396     1.925     1.800  0.9464 -0.2100  0.2454
              Bcc     0.0594     7.974     2.845     2.660  0.2263  0.9733 -0.0397
 
              Baa    -0.3655   -14.095    -5.029    -4.702 -0.4109  0.9116 -0.0121
     5 N(14)  Bbb    -0.3531   -13.619    -4.859    -4.543  0.9025  0.4086  0.1363
              Bcc     0.7186    27.713     9.889     9.244 -0.1292 -0.0450  0.9906
 
              Baa    -0.0184    -9.793    -3.494    -3.267  0.9182 -0.2947  0.2647
     6 H(1)   Bbb    -0.0034    -1.822    -0.650    -0.608 -0.2065  0.2141  0.9547
              Bcc     0.0218    11.615     4.145     3.874  0.3380  0.9313 -0.1357
 
              Baa    -0.0062    -3.332    -1.189    -1.111 -0.1962  0.0547  0.9790
     7 H(1)   Bbb     0.0010     0.527     0.188     0.176  0.9737 -0.1070  0.2012
              Bcc     0.0053     2.805     1.001     0.936  0.1157  0.9928 -0.0322
 
              Baa    -0.0084    -4.499    -1.605    -1.501  0.5808  0.6454 -0.4961
     8 H(1)   Bbb    -0.0042    -2.253    -0.804    -0.751  0.5230  0.1713  0.8350
              Bcc     0.0127     6.751     2.409     2.252 -0.6239  0.7444  0.2381
 
              Baa    -0.0562    -7.547    -2.693    -2.517 -0.4833  0.3083  0.8194
     9 C(13)  Bbb    -0.0452    -6.068    -2.165    -2.024  0.2318  0.9476 -0.2198
              Bcc     0.1015    13.615     4.858     4.541  0.8442 -0.0837  0.5295
 
              Baa    -0.0958     6.931     2.473     2.312 -0.5476  0.6139  0.5685
    10 O(17)  Bbb    -0.0853     6.174     2.203     2.059  0.6203  0.7539 -0.2166
              Bcc     0.1811   -13.105    -4.676    -4.371  0.5616 -0.2340  0.7936
 
              Baa    -0.1223     8.847     3.157     2.951  0.6615  0.2826  0.6947
    11 O(17)  Bbb    -0.0402     2.909     1.038     0.970  0.6672 -0.6448 -0.3729
              Bcc     0.1625   -11.756    -4.195    -3.921  0.3425  0.7101 -0.6151
 

 ---------------------------------------------------------------------------------

 D2PCM: PCM CHGder 2nd derivatives, FixD1E=F FixD2E=F DoIter=F DoCFld=F I1PDM=0
 Calling FoFJK, ICntrl=    100147 FMM=F ISym2X=0 I1Cent= 0 IOpClX= 1 NMat=1 NMatS=1 NMatT=0.
 ***** Axes restored to original set *****
 -------------------------------------------------------------------
 Center     Atomic                   Forces (Hartrees/Bohr)
 Number     Number              X              Y              Z
 -------------------------------------------------------------------
      1        7           0.049529049   -0.038324287   -0.020911410
      2        7           0.000351894   -0.007891064    0.001951897
      3        6          -0.001845538    0.009227046   -0.004432551
      4        6           0.000681800    0.010182757   -0.004213035
      5        7           0.024883295   -0.001728018    0.008531153
      6        1          -0.003155651    0.002464149   -0.000454787
      7        1           0.000933874    0.001193301   -0.000077376
      8        1          -0.023407212    0.030512236    0.016679769
      9        6          -0.054166127    0.035719039    0.013958243
     10        8           0.013961510   -0.005267441   -0.003356957
     11        8          -0.007766895   -0.036087719   -0.007674947
 -------------------------------------------------------------------
 Cartesian Forces:  Max     0.054166127 RMS     0.019989542
 FormGI is forming the generalized inverse of G from B-inverse, IUseBI=4.

 GradGradGradGradGradGradGradGradGradGradGradGradGradGradGradGradGradGrad
 Berny optimization.
 Internal  Forces:  Max     0.049747598 RMS     0.011556083
 Search for a saddle point.
 Step number   1 out of a maximum of   65
 All quantities printed in internal units (Hartrees-Bohrs-Radians)
 Swapping is turned off.
 Second derivative matrix not updated -- analytic derivatives used.
 ITU=  0
     Eigenvalues ---   -0.06662  -0.03171   0.00402   0.00889   0.01278
     Eigenvalues ---    0.01472   0.02522   0.03217   0.04816   0.06058
     Eigenvalues ---    0.07457   0.09849   0.10952   0.11709   0.17549
     Eigenvalues ---    0.20208   0.22743   0.27050   0.29417   0.31263
     Eigenvalues ---    0.37908   0.38553   0.39429   0.44554   0.51201
     Eigenvalues ---    0.57884   0.78312
 Eigenvectors required to have negative eigenvalues:
                          R10       R3        A3        A2        D6
   1                   -0.69289   0.64640   0.13699  -0.12462   0.12312
                          A18       R5        D8        D3        A17
   1                    0.09909  -0.08534  -0.08374   0.06475  -0.06358
 RFO step:  Lambda0=2.341538041D-03 Lambda=-7.65408052D-02.
 Linear search not attempted -- option 19 set.
 Maximum step size (   0.300) exceeded in Quadratic search.
    -- Step size scaled by   0.284
 Iteration  1 RMS(Cart)=  0.03914120 RMS(Int)=  0.00163601
 Iteration  2 RMS(Cart)=  0.00144275 RMS(Int)=  0.00033335
 Iteration  3 RMS(Cart)=  0.00000185 RMS(Int)=  0.00033334
 Iteration  4 RMS(Cart)=  0.00000000 RMS(Int)=  0.00033334
 Variable       Old X    -DE/DX   Delta X   Delta X   Delta X     New X
                                 (Linear)    (Quad)   (Total)
    R1        2.64396  -0.00333   0.00000   0.00419   0.00389   2.64785
    R2        2.61560  -0.01475   0.00000   0.00523   0.00531   2.62090
    R3        2.95369  -0.04975   0.00000  -0.16153  -0.16083   2.79286
    R4        2.60269   0.00833   0.00000   0.01189   0.01178   2.61447
    R5        2.81624  -0.02816   0.00000  -0.08494  -0.08570   2.73054
    R6        2.60351  -0.00995   0.00000   0.00026   0.00024   2.60375
    R7        2.03486   0.00121   0.00000   0.00040   0.00040   2.03526
    R8        2.55062   0.00947   0.00000   0.00171   0.00181   2.55243
    R9        2.04476  -0.00019   0.00000   0.00023   0.00023   2.04499
   R10        2.89927  -0.02298   0.00000  -0.20558  -0.20495   2.69432
   R11        2.33646   0.00189   0.00000   0.00213   0.00213   2.33859
   R12        2.34982   0.02850   0.00000   0.03688   0.03651   2.38633
    A1        1.92605  -0.01587   0.00000  -0.01187  -0.01216   1.91389
    A2        1.54610   0.01779   0.00000   0.00310   0.00344   1.54955
    A3        2.34894  -0.00476   0.00000   0.01823   0.01843   2.36736
    A4        1.84987   0.01537   0.00000   0.01156   0.01199   1.86186
    A5        2.08086  -0.01320   0.00000  -0.04510  -0.04567   2.03519
    A6        2.21325  -0.00367   0.00000   0.03100   0.03128   2.24453
    A7        1.85821  -0.00953   0.00000  -0.01144  -0.01166   1.84655
    A8        2.09995   0.00867   0.00000   0.00973   0.00984   2.10979
    A9        2.32332   0.00077   0.00000   0.00147   0.00157   2.32489
   A10        1.96265  -0.00465   0.00000   0.00569   0.00566   1.96831
   A11        2.22677   0.00082   0.00000  -0.00473  -0.00472   2.22205
   A12        2.09352   0.00383   0.00000  -0.00100  -0.00099   2.09253
   A13        1.81661   0.01507   0.00000   0.00541   0.00551   1.82212
   A14        2.05908   0.00119   0.00000   0.07052   0.07174   2.13082
   A15        1.97932   0.02020   0.00000   0.05002   0.05053   2.02985
   A16        1.96394  -0.00497   0.00000  -0.01661  -0.01763   1.94632
   A17        2.33989  -0.01522   0.00000  -0.03340  -0.03289   2.30700
   A18        1.71468  -0.00118   0.00000  -0.00805  -0.00805   1.70664
    D1        0.13681  -0.00242   0.00000   0.00380   0.00384   0.14065
    D2       -2.49838   0.00024   0.00000  -0.00437  -0.00451  -2.50289
    D3        2.54033  -0.00435   0.00000   0.02161   0.02188   2.56221
    D4       -0.09485  -0.00169   0.00000   0.01344   0.01352  -0.08133
    D5       -0.14125   0.00301   0.00000  -0.00338  -0.00338  -0.14463
    D6       -2.04694  -0.00308   0.00000  -0.00780  -0.00799  -2.05493
    D7        0.26339   0.00413   0.00000   0.00298   0.00301   0.26640
    D8        2.31689  -0.00221   0.00000  -0.00234  -0.00224   2.31465
    D9       -0.07416   0.00049   0.00000  -0.00265  -0.00270  -0.07686
   D10        3.12234   0.00185   0.00000   0.00112   0.00114   3.12348
   D11        2.51036  -0.00539   0.00000  -0.02364  -0.02385   2.48650
   D12       -0.57634  -0.00402   0.00000  -0.01987  -0.02001  -0.59634
   D13        3.02866   0.00159   0.00000   0.00203   0.00198   3.03065
   D14       -0.12053   0.00252   0.00000   0.00315   0.00329  -0.11724
   D15        0.50873  -0.00010   0.00000   0.00572   0.00591   0.51464
   D16       -2.64046   0.00084   0.00000   0.00685   0.00721  -2.63325
   D17       -0.01308   0.00091   0.00000  -0.00030  -0.00031  -0.01339
   D18       -3.13053   0.00048   0.00000   0.00200   0.00203  -3.12850
   D19        3.06357  -0.00042   0.00000  -0.00449  -0.00456   3.05901
   D20       -0.05387  -0.00085   0.00000  -0.00219  -0.00222  -0.05609
   D21        0.09454  -0.00129   0.00000   0.00306   0.00309   0.09763
   D22       -3.06914  -0.00094   0.00000   0.00089   0.00088  -3.06826
   D23       -0.35372  -0.00077   0.00000   0.00256   0.00232  -0.35140
   D24        0.25363  -0.00101   0.00000  -0.01083  -0.01083   0.24280
   D25       -2.89767   0.00041   0.00000  -0.00886  -0.00874  -2.90641
         Item               Value     Threshold  Converged?
 Maximum Force            0.049748     0.000450     NO 
 RMS     Force            0.011556     0.000300     NO 
 Maximum Displacement     0.134742     0.001800     NO 
 RMS     Displacement     0.039958     0.001200     NO 
 Predicted change in Energy=-2.005839D-02
 GradGradGradGradGradGradGradGradGradGradGradGradGradGradGradGradGradGrad

                          Input orientation:                          
 ---------------------------------------------------------------------
 Center     Atomic      Atomic             Coordinates (Angstroms)
 Number     Number       Type             X           Y           Z
 ---------------------------------------------------------------------
      1          7           0       -0.716027   -1.046267    0.278393
      2          7           0        0.049060    0.126074    0.338069
      3          6           0       -0.816209    1.177706    0.094144
      4          6           0       -2.032852    0.601909   -0.200296
      5          7           0       -1.992229   -0.747938   -0.175330
      6          1           0       -0.465150    2.195862    0.102977
      7          1           0       -2.953665    1.109117   -0.457048
      8          1           0        0.462530   -1.749994   -0.269346
      9          6           0        1.444959    0.006573   -0.015527
     10          8           0        2.086836    1.062703   -0.079279
     11          8           0        1.775394   -1.198741   -0.196289
 ---------------------------------------------------------------------
                    Distance matrix (angstroms):
                    1          2          3          4          5
     1  N    0.000000
     2  N    1.401179   0.000000
     3  C    2.233840   1.383517   0.000000
     4  C    2.163251   2.202411   1.377846   0.000000
     5  N    1.386923   2.279109   2.272388   1.350689   0.000000
     6  H    3.256548   2.145623   1.077014   2.256180   3.327969
     7  H    3.192738   3.258058   2.208447   1.082163   2.110065
     8  H    1.477920   2.014831   3.215389   3.429745   2.653073
     9  C    2.421719   1.444937   2.548815   3.533233   3.522653
    10  O    3.525866   2.281225   2.910493   4.147145   4.463902
    11  O    2.540817   2.240737   3.528208   4.212493   3.794555
                    6          7          8          9         10
     6  H    0.000000
     7  H    2.772607   0.000000
     8  H    4.070502   4.458714   0.000000
     9  C    2.907842   4.556143   2.028576   0.000000
    10  O    2.798196   5.054851   3.253577   1.237531   0.000000
    11  O    4.078348   5.268605   1.425773   1.262792   2.285786
                   11
    11  O    0.000000
 Stoichiometry    C3H3N3O2(1-,2)
 Framework group  C1[X(C3H3N3O2)]
 Deg. of freedom    27
 Full point group                 C1      NOp   1
 Largest Abelian subgroup         C1      NOp   1
 Largest concise Abelian subgroup C1      NOp   1
                         Standard orientation:                         
 ---------------------------------------------------------------------
 Center     Atomic      Atomic             Coordinates (Angstroms)
 Number     Number       Type             X           Y           Z
 ---------------------------------------------------------------------
      1          7           0       -0.711522   -1.048463    0.297861
      2          7           0        0.031118    0.138800    0.344725
      3          6           0       -0.854168    1.171151    0.090486
      4          6           0       -2.059780    0.569237   -0.197016
      5          7           0       -1.993427   -0.779257   -0.157993
      6          1           0       -0.522571    2.195846    0.088430
      7          1           0       -2.990232    1.056101   -0.458358
      8          1           0        0.479930   -1.735296   -0.243385
      9          6           0        1.428846    0.042223   -0.008649
     10          8           0        2.050446    1.109665   -0.083902
     11          8           0        1.782091   -1.158400   -0.177069
 ---------------------------------------------------------------------
 Rotational constants (GHZ):           5.0919450           1.8097224           1.3692290
 Standard basis: 6-31+G(d,p) (6D, 7F)
 There are   167 symmetry adapted cartesian basis functions of A   symmetry.
 There are   167 symmetry adapted basis functions of A   symmetry.
   167 basis functions,   277 primitive gaussians,   167 cartesian basis functions
    30 alpha electrons       29 beta electrons
       nuclear repulsion energy       359.6896047108 Hartrees.
 NAtoms=   11 NActive=   11 NUniq=   11 SFac= 1.00D+00 NAtFMM=   60 NAOKFM=F Big=F
 Integral buffers will be    131072 words long.
 Raffenetti 2 integral format.
 Two-electron integral symmetry is turned on.
 ------------------------------------------------------------------------------
 Polarizable Continuum Model (PCM)
 =================================
 Model                : PCM.
 Atomic radii         : SMD-Coulomb.
 Polarization charges : Total charges.
 Charge compensation  : None.
 Solution method      : Matrix inversion.
 Cavity type          : VdW (van der Waals Surface) (Alpha=1.000).
 Cavity algorithm     : GePol (No added spheres)
                        Default sphere list used, NSphG=   11.
                        Lebedev-Laikov grids with approx.  5.0 points / Ang**2.
                        Smoothing algorithm: York/Karplus (Gamma=1.0000).
                        Polarization charges: spherical gaussians, with
                                              point-specific exponents (IZeta= 3).
                        Self-potential: point-specific (ISelfS= 7).
                        Self-field    : sphere-specific E.n sum rule (ISelfD= 2).
 1st derivatives      : Analytical E(r).r(x)/FMM algorithm (CHGder, D1EAlg=3).
                        Cavity 1st derivative terms included.
 Solvent              : Water, Eps=  78.355300 Eps(inf)=   1.777849
 ------------------------------------------------------------------------------
 Spheres list:
 ISph  on   Nord     Re0    Alpha      Xe            Ye            Ze
    1   N      1    1.8900  1.000     -0.711522     -1.048463      0.297861
    2   N      2    1.8900  1.000      0.031118      0.138800      0.344725
    3   C      3    1.8500  1.000     -0.854168      1.171151      0.090486
    4   C      4    1.8500  1.000     -2.059780      0.569237     -0.197016
    5   N      5    1.8900  1.000     -1.993427     -0.779257     -0.157993
    6   H      6    1.2000  1.000     -0.522571      2.195846      0.088430
    7   H      7    1.2000  1.000     -2.990232      1.056101     -0.458358
    8   H      8    1.2000  1.000      0.479930     -1.735296     -0.243385
    9   C      9    1.8500  1.000      1.428846      0.042223     -0.008649
   10   O     10    1.5200  1.000      2.050446      1.109665     -0.083902
   11   O     11    1.5200  1.000      1.782091     -1.158400     -0.177069
 ------------------------------------------------------------------------------
 ------------------------------------------------------------------------------
 Atomic radii for non-electrostatic terms: SMD-CDS.
 ------------------------------------------------------------------------------
 Nuclear repulsion after PCM non-electrostatic terms =      359.6958792902 Hartrees.
 One-electron integrals computed using PRISM.
 NBasis=   167 RedAO= T EigKep=  4.79D-05  NBF=   167
 NBsUse=   167 1.00D-06 EigRej= -1.00D+00 NBFU=   167
 Initial guess from the checkpoint file:  "/scratch/gongke2021/TS/Gau-12694.chk"
 B after Tr=    -0.000000    0.000000    0.000000
         Rot=    0.999994    0.003177   -0.001032    0.000806 Ang=   0.39 deg.
 Initial guess <Sx>= 0.0000 <Sy>= 0.0000 <Sz>= 0.5000 <S**2>= 0.7638 S= 0.5069
 ExpMin= 4.38D-02 ExpMax= 5.48D+03 ExpMxC= 8.25D+02 IAcc=2 IRadAn=         4 AccDes= 0.00D+00
 Harris functional with IExCor= 1009 and IRadAn=       4 diagonalized for initial guess.
 HarFok:  IExCor= 1009 AccDes= 0.00D+00 IRadAn=         4 IDoV= 1 UseB2=F ITyADJ=14
 ICtDFT=  3500011 ScaDFX=  1.000000  1.000000  1.000000  1.000000
 FoFCou: FMM=F IPFlag=           0 FMFlag=      100000 FMFlg1=           0
         NFxFlg=           0 DoJE=T BraDBF=F KetDBF=T FulRan=T
         wScrn=  0.000000 ICntrl=       500 IOpCl=  0 I1Cent=   200000004 NGrid=           0
         NMat0=    1 NMatS0=      1 NMatT0=    0 NMatD0=    1 NMtDS0=    0 NMtDT0=    0
 Petite list used in FoFCou.
 Keep R1 and R2 ints in memory in canonical form, NReq=220618657.
 Requested convergence on RMS density matrix=1.00D-08 within 128 cycles.
 Requested convergence on MAX density matrix=1.00D-06.
 Requested convergence on             energy=1.00D-06.
 No special actions if energy rises.
 Inv3:  Mode=1 IEnd=     2982027.
 Iteration    1 A*A^-1 deviation from unit magnitude is 3.22D-15 for    729.
 Iteration    1 A*A^-1 deviation from orthogonality  is 1.67D-15 for    675    550.
 Iteration    1 A^-1*A deviation from unit magnitude is 3.33D-15 for    729.
 Iteration    1 A^-1*A deviation from orthogonality  is 7.44D-15 for    563    532.
 Error on total polarization charges =  0.05014
 SCF Done:  E(UM062X) =  -430.718455721     A.U. after   17 cycles
            NFock= 17  Conv=0.65D-08     -V/T= 2.0088
 <Sx>= 0.0000 <Sy>= 0.0000 <Sz>= 0.5000 <S**2>= 0.7634 S= 0.5067
 <L.S>=  0.00000000000    
 SMD-CDS (non-electrostatic) energy       (kcal/mol) =       3.94
 (included in total energy above)
 Annihilation of the first spin contaminant:
 S**2 before annihilation     0.7634,   after     0.7501
 D1PCM: PCM CHGder 1st derivatives, ID1Alg=3 FixD1E=F DoIter=F DoCFld=F I1PDM=0.
 Calling FoFJK, ICntrl=      2127 FMM=F ISym2X=0 I1Cent= 0 IOpClX= 1 NMat=1 NMatS=1 NMatT=0.
 ***** Axes restored to original set *****
 -------------------------------------------------------------------
 Center     Atomic                   Forces (Hartrees/Bohr)
 Number     Number              X              Y              Z
 -------------------------------------------------------------------
      1        7           0.040723793   -0.031519050   -0.020748538
      2        7          -0.001370454   -0.005101137    0.002115719
      3        6          -0.001988754    0.005922125   -0.003285123
      4        6           0.000237801    0.007529095   -0.003540805
      5        7           0.021611244   -0.000899592    0.008165114
      6        1          -0.002618521    0.001835520    0.000042411
      7        1           0.000766513    0.001022602   -0.000027579
      8        1          -0.015639902    0.029652188    0.017511815
      9        6          -0.040962802    0.028075567    0.010107155
     10        8           0.011473967   -0.005049332   -0.002364997
     11        8          -0.012232885   -0.031467985   -0.007975171
 -------------------------------------------------------------------
 Cartesian Forces:  Max     0.040962802 RMS     0.016647257

 GradGradGradGradGradGradGradGradGradGradGradGradGradGradGradGradGradGrad
 Berny optimization.
 FormGI is forming the generalized inverse of G from B-inverse, IUseBI=4.
 Internal  Forces:  Max     0.043609919 RMS     0.009753063
 Search for a saddle point.
 Step number   2 out of a maximum of   65
 All quantities printed in internal units (Hartrees-Bohrs-Radians)
 Swapping is turned off.
 Update second derivatives using D2CorX and points    1    2
 ITU=  0  0
     Eigenvalues ---   -0.06707  -0.00189   0.00522   0.00909   0.01283
     Eigenvalues ---    0.01866   0.02530   0.03219   0.04819   0.06054
     Eigenvalues ---    0.07497   0.09854   0.10957   0.12195   0.17779
     Eigenvalues ---    0.20232   0.22748   0.27197   0.29445   0.31326
     Eigenvalues ---    0.37908   0.38561   0.39430   0.44552   0.51252
     Eigenvalues ---    0.57878   0.78315
 Eigenvectors required to have negative eigenvalues:
                          R10       R3        A3        A2        D6
   1                   -0.71626   0.62029   0.13797  -0.12239   0.12007
                          A18       R5        D8        D3        A17
   1                    0.09420  -0.09157  -0.08538   0.06893  -0.06475
 RFO step:  Lambda0=5.638865649D-04 Lambda=-5.21434467D-02.
 Linear search not attempted -- option 19 set.
 Maximum step size (   0.300) exceeded in Quadratic search.
    -- Step size scaled by   0.275
 Iteration  1 RMS(Cart)=  0.04281610 RMS(Int)=  0.00229933
 Iteration  2 RMS(Cart)=  0.00175967 RMS(Int)=  0.00062971
 Iteration  3 RMS(Cart)=  0.00000578 RMS(Int)=  0.00062969
 Iteration  4 RMS(Cart)=  0.00000000 RMS(Int)=  0.00062969
 Variable       Old X    -DE/DX   Delta X   Delta X   Delta X     New X
                                 (Linear)    (Quad)   (Total)
    R1        2.64785  -0.00300   0.00000   0.00272   0.00196   2.64980
    R2        2.62090  -0.01368   0.00000  -0.00052  -0.00052   2.62039
    R3        2.79286  -0.04361   0.00000  -0.19067  -0.18972   2.60315
    R4        2.61447   0.00574   0.00000   0.00797   0.00780   2.62226
    R5        2.73054  -0.02039   0.00000  -0.04814  -0.04923   2.68130
    R6        2.60375  -0.00797   0.00000   0.00087   0.00101   2.60476
    R7        2.03526   0.00088   0.00000   0.00044   0.00044   2.03570
    R8        2.55243   0.00691   0.00000   0.00171   0.00198   2.55441
    R9        2.04499  -0.00016   0.00000   0.00011   0.00011   2.04510
   R10        2.69432  -0.02455   0.00000  -0.18407  -0.18304   2.51128
   R11        2.33859   0.00176   0.00000  -0.00078  -0.00078   2.33781
   R12        2.38633   0.02187   0.00000   0.02752   0.02723   2.41356
    A1        1.91389  -0.01225   0.00000  -0.00765  -0.00773   1.90616
    A2        1.54955   0.01334   0.00000   0.00239   0.00254   1.55209
    A3        2.36736  -0.00231   0.00000   0.02366   0.02363   2.39099
    A4        1.86186   0.01201   0.00000   0.00801   0.00853   1.87039
    A5        2.03519  -0.01205   0.00000  -0.04840  -0.04954   1.98565
    A6        2.24453  -0.00114   0.00000   0.03134   0.03219   2.27672
    A7        1.84655  -0.00768   0.00000  -0.00917  -0.00955   1.83700
    A8        2.10979   0.00690   0.00000   0.00842   0.00861   2.11840
    A9        2.32489   0.00071   0.00000   0.00052   0.00069   2.32558
   A10        1.96831  -0.00391   0.00000   0.00381   0.00383   1.97214
   A11        2.22205   0.00068   0.00000  -0.00379  -0.00379   2.21826
   A12        2.09253   0.00324   0.00000  -0.00005  -0.00006   2.09247
   A13        1.82212   0.01215   0.00000   0.00377   0.00366   1.82578
   A14        2.13082   0.00532   0.00000   0.09749   0.09912   2.22993
   A15        2.02985   0.01698   0.00000   0.04131   0.04220   2.07205
   A16        1.94632  -0.00450   0.00000  -0.02190  -0.02370   1.92262
   A17        2.30700  -0.01248   0.00000  -0.01943  -0.01853   2.28847
   A18        1.70664  -0.00202   0.00000  -0.01489  -0.01507   1.69156
    D1        0.14065  -0.00182   0.00000   0.00782   0.00788   0.14853
    D2       -2.50289  -0.00020   0.00000   0.01007   0.00905  -2.49384
    D3        2.56221  -0.00211   0.00000   0.03283   0.03289   2.59510
    D4       -0.08133  -0.00049   0.00000   0.03508   0.03405  -0.04728
    D5       -0.14463   0.00233   0.00000  -0.00653  -0.00654  -0.15117
    D6       -2.05493  -0.00261   0.00000  -0.01863  -0.01888  -2.07381
    D7        0.26640   0.00292   0.00000  -0.02889  -0.02986   0.23654
    D8        2.31465  -0.00162   0.00000  -0.02581  -0.02646   2.28819
    D9       -0.07686   0.00033   0.00000  -0.00560  -0.00564  -0.08249
   D10        3.12348   0.00148   0.00000  -0.00202  -0.00194   3.12154
   D11        2.48650  -0.00496   0.00000  -0.04046  -0.04089   2.44561
   D12       -0.59634  -0.00382   0.00000  -0.03688  -0.03720  -0.63354
   D13        3.03065   0.00121   0.00000  -0.00032   0.00033   3.03098
   D14       -0.11724   0.00220   0.00000  -0.00273  -0.00253  -0.11978
   D15        0.51464   0.00011   0.00000   0.01902   0.01957   0.53421
   D16       -2.63325   0.00110   0.00000   0.01661   0.01671  -2.61654
   D17       -0.01339   0.00081   0.00000   0.00115   0.00110  -0.01229
   D18       -3.12850   0.00043   0.00000   0.00225   0.00229  -3.12621
   D19        3.05901  -0.00030   0.00000  -0.00276  -0.00291   3.05610
   D20       -0.05609  -0.00068   0.00000  -0.00166  -0.00173  -0.05782
   D21        0.09763  -0.00104   0.00000   0.00390   0.00395   0.10158
   D22       -3.06826  -0.00072   0.00000   0.00282   0.00279  -3.06547
   D23       -0.35140  -0.00012   0.00000   0.03265   0.03277  -0.31863
   D24        0.24280  -0.00178   0.00000  -0.02928  -0.02784   0.21496
   D25       -2.90641  -0.00043   0.00000  -0.03190  -0.03089  -2.93730
         Item               Value     Threshold  Converged?
 Maximum Force            0.043610     0.000450     NO 
 RMS     Force            0.009753     0.000300     NO 
 Maximum Displacement     0.139402     0.001800     NO 
 RMS     Displacement     0.043565     0.001200     NO 
 Predicted change in Energy=-1.684614D-02
 GradGradGradGradGradGradGradGradGradGradGradGradGradGradGradGradGradGrad

                          Input orientation:                          
 ---------------------------------------------------------------------
 Center     Atomic      Atomic             Coordinates (Angstroms)
 Number     Number       Type             X           Y           Z
 ---------------------------------------------------------------------
      1          7           0       -0.674765   -1.042793    0.257848
      2          7           0        0.060557    0.148524    0.337035
      3          6           0       -0.824764    1.192238    0.108081
      4          6           0       -2.023744    0.588627   -0.205027
      5          7           0       -1.951531   -0.761177   -0.204061
      6          1           0       -0.500212    2.219082    0.134836
      7          1           0       -2.954246    1.078737   -0.460299
      8          1           0        0.451917   -1.676226   -0.218523
      9          6           0        1.425237    0.003274   -0.023217
     10          8           0        2.130638    1.016596   -0.100999
     11          8           0        1.703560   -1.229877   -0.205206
 ---------------------------------------------------------------------
                    Distance matrix (angstroms):
                    1          2          3          4          5
     1  N    0.000000
     2  N    1.402215   0.000000
     3  C    2.245060   1.387643   0.000000
     4  C    2.166917   2.198143   1.378381   0.000000
     5  N    1.386650   2.273508   2.276590   1.351735   0.000000
     6  H    3.268858   2.154659   1.077246   2.257220   3.332135
     7  H    3.195725   3.254240   2.206950   1.082222   2.111014
     8  H    1.377526   1.947182   3.156686   3.355389   2.571786
     9  C    2.362893   1.418884   2.548211   3.503022   3.466937
    10  O    3.498591   2.287064   2.967991   4.177663   4.453673
    11  O    2.430195   2.212120   3.515283   4.147259   3.685019
                    6          7          8          9         10
     6  H    0.000000
     7  H    2.770714   0.000000
     8  H    4.025523   4.387507   0.000000
     9  C    2.939751   4.530732   1.950953   0.000000
    10  O    2.902234   5.097941   3.175406   1.237118   0.000000
    11  O    4.107013   5.204799   1.328915   1.277203   2.289082
                   11
    11  O    0.000000
 Stoichiometry    C3H3N3O2(1-,2)
 Framework group  C1[X(C3H3N3O2)]
 Deg. of freedom    27
 Full point group                 C1      NOp   1
 Largest Abelian subgroup         C1      NOp   1
 Largest concise Abelian subgroup C1      NOp   1
                         Standard orientation:                         
 ---------------------------------------------------------------------
 Center     Atomic      Atomic             Coordinates (Angstroms)
 Number     Number       Type             X           Y           Z
 ---------------------------------------------------------------------
      1          7           0       -0.669937   -1.036859    0.295702
      2          7           0        0.036765    0.173004    0.350566
      3          6           0       -0.873499    1.190603    0.102648
      4          6           0       -2.058023    0.552526   -0.196848
      5          7           0       -1.953548   -0.794892   -0.169694
      6          1           0       -0.573570    2.225234    0.108908
      7          1           0       -3.000242    1.015191   -0.460226
      8          1           0        0.471080   -1.652367   -0.169925
      9          6           0        1.404157    0.053398   -0.008831
     10          8           0        2.085042    1.081572   -0.107394
     11          8           0        1.711703   -1.176069   -0.167179
 ---------------------------------------------------------------------
 Rotational constants (GHZ):           5.0898465           1.8424014           1.3885620
 Standard basis: 6-31+G(d,p) (6D, 7F)
 There are   167 symmetry adapted cartesian basis functions of A   symmetry.
 There are   167 symmetry adapted basis functions of A   symmetry.
   167 basis functions,   277 primitive gaussians,   167 cartesian basis functions
    30 alpha electrons       29 beta electrons
       nuclear repulsion energy       361.4477893148 Hartrees.
 NAtoms=   11 NActive=   11 NUniq=   11 SFac= 1.00D+00 NAtFMM=   60 NAOKFM=F Big=F
 Integral buffers will be    131072 words long.
 Raffenetti 2 integral format.
 Two-electron integral symmetry is turned on.
 ------------------------------------------------------------------------------
 Polarizable Continuum Model (PCM)
 =================================
 Model                : PCM.
 Atomic radii         : SMD-Coulomb.
 Polarization charges : Total charges.
 Charge compensation  : None.
 Solution method      : Matrix inversion.
 Cavity type          : VdW (van der Waals Surface) (Alpha=1.000).
 Cavity algorithm     : GePol (No added spheres)
                        Default sphere list used, NSphG=   11.
                        Lebedev-Laikov grids with approx.  5.0 points / Ang**2.
                        Smoothing algorithm: York/Karplus (Gamma=1.0000).
                        Polarization charges: spherical gaussians, with
                                              point-specific exponents (IZeta= 3).
                        Self-potential: point-specific (ISelfS= 7).
                        Self-field    : sphere-specific E.n sum rule (ISelfD= 2).
 1st derivatives      : Analytical E(r).r(x)/FMM algorithm (CHGder, D1EAlg=3).
                        Cavity 1st derivative terms included.
 Solvent              : Water, Eps=  78.355300 Eps(inf)=   1.777849
 ------------------------------------------------------------------------------
 Spheres list:
 ISph  on   Nord     Re0    Alpha      Xe            Ye            Ze
    1   N      1    1.8900  1.000     -0.669937     -1.036859      0.295702
    2   N      2    1.8900  1.000      0.036765      0.173004      0.350566
    3   C      3    1.8500  1.000     -0.873499      1.190603      0.102648
    4   C      4    1.8500  1.000     -2.058023      0.552526     -0.196848
    5   N      5    1.8900  1.000     -1.953548     -0.794892     -0.169694
    6   H      6    1.2000  1.000     -0.573570      2.225234      0.108908
    7   H      7    1.2000  1.000     -3.000242      1.015191     -0.460226
    8   H      8    1.2000  1.000      0.471080     -1.652367     -0.169925
    9   C      9    1.8500  1.000      1.404157      0.053398     -0.008831
   10   O     10    1.5200  1.000      2.085042      1.081572     -0.107394
   11   O     11    1.5200  1.000      1.711703     -1.176069     -0.167179
 ------------------------------------------------------------------------------
 ------------------------------------------------------------------------------
 Atomic radii for non-electrostatic terms: SMD-CDS.
 ------------------------------------------------------------------------------
 Nuclear repulsion after PCM non-electrostatic terms =      361.4539293928 Hartrees.
 One-electron integrals computed using PRISM.
 NBasis=   167 RedAO= T EigKep=  5.00D-05  NBF=   167
 NBsUse=   167 1.00D-06 EigRej= -1.00D+00 NBFU=   167
 Initial guess from the checkpoint file:  "/scratch/gongke2021/TS/Gau-12694.chk"
 B after Tr=     0.000000   -0.000000    0.000000
         Rot=    0.999992    0.003801   -0.000798    0.001025 Ang=   0.46 deg.
 Initial guess <Sx>= 0.0000 <Sy>= 0.0000 <Sz>= 0.5000 <S**2>= 0.7634 S= 0.5067
 ExpMin= 4.38D-02 ExpMax= 5.48D+03 ExpMxC= 8.25D+02 IAcc=2 IRadAn=         4 AccDes= 0.00D+00
 Harris functional with IExCor= 1009 and IRadAn=       4 diagonalized for initial guess.
 HarFok:  IExCor= 1009 AccDes= 0.00D+00 IRadAn=         4 IDoV= 1 UseB2=F ITyADJ=14
 ICtDFT=  3500011 ScaDFX=  1.000000  1.000000  1.000000  1.000000
 FoFCou: FMM=F IPFlag=           0 FMFlag=      100000 FMFlg1=           0
         NFxFlg=           0 DoJE=T BraDBF=F KetDBF=T FulRan=T
         wScrn=  0.000000 ICntrl=       500 IOpCl=  0 I1Cent=   200000004 NGrid=           0
         NMat0=    1 NMatS0=      1 NMatT0=    0 NMatD0=    1 NMtDS0=    0 NMtDT0=    0
 Petite list used in FoFCou.
 Keep R1 and R2 ints in memory in canonical form, NReq=220618657.
 Requested convergence on RMS density matrix=1.00D-08 within 128 cycles.
 Requested convergence on MAX density matrix=1.00D-06.
 Requested convergence on             energy=1.00D-06.
 No special actions if energy rises.
 Inv3:  Mode=1 IEnd=     3012012.
 Iteration    1 A*A^-1 deviation from unit magnitude is 2.89D-15 for     54.
 Iteration    1 A*A^-1 deviation from orthogonality  is 2.19D-15 for    621    333.
 Iteration    1 A^-1*A deviation from unit magnitude is 2.66D-15 for    624.
 Iteration    1 A^-1*A deviation from orthogonality  is 2.84D-11 for    567    535.
 Error on total polarization charges =  0.05003
 SCF Done:  E(UM062X) =  -430.733061560     A.U. after   16 cycles
            NFock= 16  Conv=0.10D-07     -V/T= 2.0086
 <Sx>= 0.0000 <Sy>= 0.0000 <Sz>= 0.5000 <S**2>= 0.7640 S= 0.5070
 <L.S>=  0.00000000000    
 SMD-CDS (non-electrostatic) energy       (kcal/mol) =       3.85
 (included in total energy above)
 Annihilation of the first spin contaminant:
 S**2 before annihilation     0.7640,   after     0.7501
 D1PCM: PCM CHGder 1st derivatives, ID1Alg=3 FixD1E=F DoIter=F DoCFld=F I1PDM=0.
 Calling FoFJK, ICntrl=      2127 FMM=F ISym2X=0 I1Cent= 0 IOpClX= 1 NMat=1 NMatS=1 NMatT=0.
 ***** Axes restored to original set *****
 -------------------------------------------------------------------
 Center     Atomic                   Forces (Hartrees/Bohr)
 Number     Number              X              Y              Z
 -------------------------------------------------------------------
      1        7           0.024139496   -0.021049868   -0.016237858
      2        7          -0.005659822   -0.002940540    0.003258573
      3        6          -0.001840549    0.002860266   -0.003212011
      4        6          -0.000116211    0.006258061   -0.003388204
      5        7           0.019859505   -0.000198541    0.009332394
      6        1          -0.002128130    0.001291721    0.000331574
      7        1           0.000664804    0.000849841   -0.000062469
      8        1          -0.012059059    0.017975560    0.011275901
      9        6          -0.026205013    0.020701968    0.007132514
     10        8           0.008697829   -0.004101197   -0.001712531
     11        8          -0.005352849   -0.021647267   -0.006717884
 -------------------------------------------------------------------
 Cartesian Forces:  Max     0.026205013 RMS     0.011417632

 GradGradGradGradGradGradGradGradGradGradGradGradGradGradGradGradGradGrad
 Berny optimization.
 FormGI is forming the generalized inverse of G from B-inverse, IUseBI=4.
 Internal  Forces:  Max     0.028292771 RMS     0.006759222
 Search for a saddle point.
 Step number   3 out of a maximum of   65
 All quantities printed in internal units (Hartrees-Bohrs-Radians)
 Swapping is turned off.
 Update second derivatives using D2CorX and points    2    3
 ITU=  0  0  0
     Eigenvalues ---   -0.06702   0.00296   0.00862   0.01132   0.01297
     Eigenvalues ---    0.02514   0.03207   0.04766   0.05398   0.06086
     Eigenvalues ---    0.07730   0.09864   0.10957   0.12637   0.18284
     Eigenvalues ---    0.20330   0.22737   0.27276   0.29448   0.31479
     Eigenvalues ---    0.37908   0.38552   0.39427   0.44542   0.51281
     Eigenvalues ---    0.57846   0.78324
 Eigenvectors required to have negative eigenvalues:
                          R10       R3        A3        D6        A2
   1                    0.70853  -0.63279  -0.13278  -0.12040   0.11795
                          A18       R5        D8        A17       D3
   1                   -0.09053   0.08887   0.08692   0.06350  -0.06320
 RFO step:  Lambda0=4.771179237D-04 Lambda=-1.82047603D-02.
 Linear search not attempted -- option 19 set.
 Maximum step size (   0.300) exceeded in Quadratic search.
    -- Step size scaled by   0.700
 Iteration  1 RMS(Cart)=  0.04324901 RMS(Int)=  0.00217876
 Iteration  2 RMS(Cart)=  0.00176022 RMS(Int)=  0.00052832
 Iteration  3 RMS(Cart)=  0.00000475 RMS(Int)=  0.00052830
 Iteration  4 RMS(Cart)=  0.00000000 RMS(Int)=  0.00052830
 Variable       Old X    -DE/DX   Delta X   Delta X   Delta X     New X
                                 (Linear)    (Quad)   (Total)
    R1        2.64980  -0.00216   0.00000   0.00205   0.00177   2.65157
    R2        2.62039  -0.01379   0.00000  -0.03865  -0.03865   2.58174
    R3        2.60315  -0.02829   0.00000  -0.15778  -0.15681   2.44633
    R4        2.62226   0.00374   0.00000   0.00974   0.00961   2.63187
    R5        2.68130  -0.01039   0.00000  -0.05298  -0.05393   2.62737
    R6        2.60476  -0.00680   0.00000  -0.00587  -0.00577   2.59899
    R7        2.03570   0.00060   0.00000   0.00050   0.00050   2.03620
    R8        2.55441   0.00502   0.00000   0.00713   0.00731   2.56172
    R9        2.04510  -0.00017   0.00000  -0.00103  -0.00103   2.04408
   R10        2.51128  -0.01414   0.00000  -0.19614  -0.19541   2.31588
   R11        2.33781   0.00170   0.00000   0.00038   0.00038   2.33820
   R12        2.41356   0.01633   0.00000   0.03814   0.03765   2.45121
    A1        1.90616  -0.00907   0.00000  -0.01461  -0.01500   1.89116
    A2        1.55209   0.00978   0.00000   0.00528   0.00581   1.55790
[...]
    D1        0.07295  -0.00000   0.00000  -0.00003  -0.00003   0.07292
    D2       -2.41756   0.00000   0.00000  -0.00012  -0.00012  -2.41768
    D3        2.50156  -0.00000   0.00000   0.00002   0.00002   2.50157
    D4        0.01104  -0.00000   0.00000  -0.00007  -0.00007   0.01097
    D5       -0.07590   0.00000   0.00000   0.00001   0.00001  -0.07588
    D6       -1.96623  -0.00001   0.00000  -0.00009  -0.00009  -1.96632
    D7        0.13772   0.00000   0.00000   0.00007   0.00007   0.13779
    D8        2.15351   0.00000   0.00000   0.00015   0.00015   2.15366
    D9       -0.03978   0.00000   0.00000   0.00004   0.00004  -0.03974
   D10        3.10076   0.00000   0.00000   0.00002   0.00002   3.10078
   D11        2.29892   0.00000   0.00000   0.00014   0.00014   2.29906
   D12       -0.84372   0.00000   0.00000   0.00012   0.00012  -0.84360
   D13        3.04276   0.00000   0.00000   0.00008   0.00008   3.04284
   D14       -0.11481   0.00000   0.00000   0.00008   0.00008  -0.11473
   D15        0.71757   0.00000   0.00000  -0.00001  -0.00001   0.71756
   D16       -2.44000   0.00000   0.00000  -0.00002  -0.00002  -2.44001
   D17       -0.00704  -0.00000   0.00000  -0.00003  -0.00003  -0.00707
   D18        3.13865  -0.00000   0.00000  -0.00001  -0.00001   3.13864
   D19        3.13576   0.00000   0.00000  -0.00001  -0.00001   3.13575
   D20       -0.00173   0.00000   0.00000   0.00001   0.00001  -0.00172
   D21        0.05281  -0.00000   0.00000   0.00001   0.00001   0.05282
   D22       -3.09257  -0.00000   0.00000  -0.00000  -0.00000  -3.09258
   D23       -0.20927   0.00000   0.00000  -0.00003  -0.00003  -0.20930
   D24        0.15696  -0.00000   0.00000  -0.00003  -0.00003   0.15693
   D25       -3.00146  -0.00000   0.00000  -0.00003  -0.00003  -3.00149
         Item               Value     Threshold  Converged?
 Maximum Force            0.000044     0.000450     YES
 RMS     Force            0.000007     0.000300     YES
 Maximum Displacement     0.000203     0.001800     YES
 RMS     Displacement     0.000055     0.001200     YES
 Predicted change in Energy=-3.909854D-09
 Optimization completed.
    -- Stationary point found.
                           ----------------------------
                           !   Optimized Parameters   !
                           ! (Angstroms and Degrees)  !
 --------------------------                            --------------------------
 ! Name  Definition              Value          Derivative Info.                !
 --------------------------------------------------------------------------------
 ! R1    R(1,2)                  1.416          -DE/DX =    0.0                 !
 ! R2    R(1,5)                  1.3579         -DE/DX =    0.0                 !
 ! R3    R(1,8)                  1.3235         -DE/DX =    0.0                 !
 ! R4    R(2,3)                  1.4025         -DE/DX =    0.0                 !
 ! R5    R(2,9)                  1.4007         -DE/DX =    0.0                 !
 ! R6    R(3,4)                  1.3717         -DE/DX =    0.0                 !
 ! R7    R(3,6)                  1.0777         -DE/DX =    0.0                 !
 ! R8    R(4,5)                  1.3566         -DE/DX =    0.0                 !
 ! R9    R(4,7)                  1.0815         -DE/DX =    0.0                 !
 ! R10   R(8,11)                 1.2011         -DE/DX =    0.0                 !
 ! R11   R(9,10)                 1.2335         -DE/DX =    0.0                 !
 ! R12   R(9,11)                 1.3091         -DE/DX =    0.0                 !
 ! A1    A(2,1,5)              108.0916         -DE/DX =    0.0                 !
 ! A2    A(2,1,8)               88.8873         -DE/DX =    0.0                 !
 ! A3    A(5,1,8)              136.4611         -DE/DX =    0.0                 !
 ! A4    A(1,2,3)              107.6675         -DE/DX =    0.0                 !
 ! A5    A(1,2,9)              109.8406         -DE/DX =    0.0                 !
 ! A6    A(3,2,9)              127.5835         -DE/DX =    0.0                 !
 ! A7    A(2,3,4)              104.7499         -DE/DX =    0.0                 !
 ! A8    A(2,3,6)              122.4346         -DE/DX =    0.0                 !
 ! A9    A(4,3,6)              132.8155         -DE/DX =    0.0                 !
 ! A10   A(3,4,5)              112.295          -DE/DX =    0.0                 !
 ! A11   A(3,4,7)              127.2074         -DE/DX =    0.0                 !
 ! A12   A(5,4,7)              120.4972         -DE/DX =    0.0                 !
 ! A13   A(1,5,4)              107.0068         -DE/DX =    0.0                 !
 ! A14   A(1,8,11)             134.5709         -DE/DX =    0.0                 !
 ! A15   A(2,9,10)             123.0318         -DE/DX =    0.0                 !
 ! A16   A(2,9,11)             109.6963         -DE/DX =    0.0                 !
 ! A17   A(10,9,11)            127.2647         -DE/DX =    0.0                 !
 ! A18   A(8,11,9)              95.9276         -DE/DX =    0.0                 !
 ! D1    D(5,1,2,3)              4.18           -DE/DX =    0.0                 !
 ! D2    D(5,1,2,9)           -138.5159         -DE/DX =    0.0                 !
 ! D3    D(8,1,2,3)            143.3286         -DE/DX =    0.0                 !
 ! D4    D(8,1,2,9)              0.6327         -DE/DX =    0.0                 !
 ! D5    D(2,1,5,4)             -4.3485         -DE/DX =    0.0                 !
 ! D6    D(8,1,5,4)           -112.6569         -DE/DX =    0.0                 !
 ! D7    D(2,1,8,11)             7.8908         -DE/DX =    0.0                 !
 ! D8    D(5,1,8,11)           123.387          -DE/DX =    0.0                 !
 ! D9    D(1,2,3,4)             -2.2794         -DE/DX =    0.0                 !
 ! D10   D(1,2,3,6)            177.6606         -DE/DX =    0.0                 !
 ! D11   D(9,2,3,4)            131.7186         -DE/DX =    0.0                 !
 ! D12   D(9,2,3,6)            -48.3414         -DE/DX =    0.0                 !
 ! D13   D(1,2,9,10)           174.3373         -DE/DX =    0.0                 !
 ! D14   D(1,2,9,11)            -6.5781         -DE/DX =    0.0                 !
 ! D15   D(3,2,9,10)            41.1139         -DE/DX =    0.0                 !
 ! D16   D(3,2,9,11)          -139.8015         -DE/DX =    0.0                 !
 ! D17   D(2,3,4,5)             -0.4032         -DE/DX =    0.0                 !
 ! D18   D(2,3,4,7)            179.8316         -DE/DX =    0.0                 !
 ! D19   D(6,3,4,5)            179.6659         -DE/DX =    0.0                 !
 ! D20   D(6,3,4,7)             -0.0993         -DE/DX =    0.0                 !
 ! D21   D(3,4,5,1)              3.0257         -DE/DX =    0.0                 !
 ! D22   D(7,4,5,1)           -177.1913         -DE/DX =    0.0                 !
 ! D23   D(1,8,11,9)           -11.9905         -DE/DX =    0.0                 !
 ! D24   D(2,9,11,8)             8.9933         -DE/DX =    0.0                 !
 ! D25   D(10,9,11,8)         -171.971          -DE/DX =    0.0                 !
 --------------------------------------------------------------------------------
 GradGradGradGradGradGradGradGradGradGradGradGradGradGradGradGradGradGrad


 ----------------------------------------------------------------------

 Electric dipole moment (input orientation):
 (Debye = 10**-18 statcoulomb cm , SI units = C m)
                  (au)            (Debye)         (10**-30 SI)
   Tot        0.185122D+01      0.470534D+01      0.156953D+02
   x         -0.149100D+01     -0.378973D+01     -0.126412D+02
   y          0.109689D+01      0.278803D+01      0.929985D+01
   z         -0.279656D-01     -0.710815D-01     -0.237102D+00

 Dipole polarizability, Alpha (input orientation).
 (esu units = cm**3 , SI units = C**2 m**2 J**-1)
 Alpha(0;0):
               (au)            (10**-24 esu)      (10**-40 SI)
   iso        0.102318D+03      0.151619D+02      0.168699D+02
   aniso      0.625143D+02      0.926367D+01      0.103072D+02
   xx         0.132688D+03      0.196624D+02      0.218773D+02
   yx         0.580689D+01      0.860492D+00      0.957426D+00
   yy         0.111046D+03      0.164553D+02      0.183089D+02
   zx         0.231106D+01      0.342464D+00      0.381043D+00
   zy        -0.131069D+00     -0.194224D-01     -0.216104D-01
   zz         0.632196D+02      0.936817D+01      0.104235D+02

 ----------------------------------------------------------------------

 Dipole orientation:
     7         -0.93470157         -2.19151193         -0.20758583
     7          0.83881744         -0.20967071          0.08675147
     6          0.74800461          0.58216897          2.61432145
     6         -1.11469546         -0.86270230          3.69201808
     7         -2.18962392         -2.47415204          2.01281029
     1          1.97361808          2.03329026          3.34907053
     1         -1.74926571         -0.81313414          5.63407681
     1         -1.46259523         -1.31459911         -2.48969339
     6          0.85700573          1.30898293         -2.08116318
     8          2.09388541          3.27804105         -2.24280272
     8         -0.57188436          0.29028468         -3.82474977

 Electric dipole moment (dipole orientation):
 (Debye = 10**-18 statcoulomb cm , SI units = C m)
                  (au)            (Debye)         (10**-30 SI)
   Tot        0.185122D+01      0.470534D+01      0.156953D+02
   x          0.000000D+00      0.000000D+00      0.000000D+00
   y          0.000000D+00      0.000000D+00      0.000000D+00
   z          0.185122D+01      0.470534D+01      0.156953D+02

 Dipole polarizability, Alpha (dipole orientation).
 (esu units = cm**3 , SI units = C**2 m**2 J**-1)
 Alpha(0;0):
               (au)            (10**-24 esu)      (10**-40 SI)
   iso        0.102318D+03      0.151619D+02      0.168699D+02
   aniso      0.625143D+02      0.926367D+01      0.103072D+02
   xx         0.856329D+02      0.126895D+02      0.141190D+02
   yx         0.294468D+02      0.436356D+01      0.485511D+01
   yy         0.101730D+03      0.150749D+02      0.167731D+02
   zx        -0.803278D+01     -0.119034D+01     -0.132443D+01
   zy        -0.908358D+01     -0.134605D+01     -0.149768D+01
   zz         0.119590D+03      0.177214D+02      0.197177D+02

 ----------------------------------------------------------------------
 1\1\GINC-NODE5\Freq\UM062X\6-31+G(d,p)\C3H3N3O2(1-,2)\GONGKE2021\06-Ju
 l-2023\0\\#N Geom=AllCheck Guess=TCheck SCRF=Check GenChk UM062X/6-31+
 G(d,p) Freq\\test\\-1,2\N,-0.6422980407,-1.0510565903,0.2904337395\N,0
 .0607896577,0.1708807761,0.4225571719\C,-0.829842599,1.2097698044,0.11
 53652669\C,-1.9961235148,0.5780275831,-0.2341027397\N,-1.8878054799,-0
 .7728766827,-0.1735488239\H,-0.5495172849,2.248577552,0.1768551536\H,-
 2.9257590915,1.0411301357,-0.5356269161\H,0.459838053,-1.6033439509,-0
 .1912701937\C,1.3774502077,0.0129590815,-0.0285346014\O,2.1746605183,0
 .9499717963,-0.1174764117\O,1.6012542141,-1.2470340552,-0.3041836755\\
 Version=ES64L-G16RevA.03\State=2-A\HF=-430.7407261\S2=0.764583\S2-1=0.
 \S2A=0.750084\RMSD=1.754e-09\RMSF=1.359e-05\ZeroPoint=0.0671974\Therma
 l=0.0730463\Dipole=-1.4909953,1.0968938,-0.0279656\DipoleDeriv=-0.4494
 17,0.7660913,0.1297219,0.2974548,-0.6567883,0.1757279,0.2815224,0.4089
 899,-0.384362,-1.9032339,-0.0945407,-0.0887598,0.1983925,-0.2557922,-0
 .1798728,0.5184535,-0.1342254,-0.3091376,-0.0156251,-0.3268939,0.17637
 86,-0.3164478,-0.3844899,-0.0306483,0.0184184,-0.0755668,-0.299454,0.3
 721772,0.1829171,0.165085,0.4547906,0.7471968,0.0969825,0.0967618,0.08
 02632,-0.0419651,-0.7789983,-0.52977,0.0919058,-0.326949,-0.7017511,-0
 .1507237,-0.0823242,-0.2812883,-0.3144568,0.1428719,0.0008148,-0.05327
 55,0.0100328,0.0889022,0.0002297,-0.067648,-0.0285188,0.2991133,0.0167
 883,0.0836784,-0.056661,0.0670029,0.1202882,0.0175212,-0.0603132,0.018
 6002,0.2009301,1.7611102,-0.4413877,-0.1841737,-0.0567293,0.4957484,-0
 .0358497,-0.223134,-0.043129,0.3787931,3.6695791,0.5866061,-0.3976099,
 0.749558,2.7728571,0.2216206,-0.8397321,0.23457,0.7686727,-2.0592365,-
 0.6487721,0.067794,-1.2678571,-1.5535058,0.0521414,0.2323014,0.0463743
 ,-0.6801592,-1.7560158,0.4212567,0.1495947,0.1907516,-1.6726655,-0.167
 1287,0.1256941,-0.2260694,-0.6179747\Polar=132.6881504,5.8068856,111.0
 45557,2.3110637,-0.1310691,63.21956\Quadrupole=-9.2613674,3.485141,5.7
 762265,-6.9912355,2.0753957,-0.0171361\PG=C01 [X(C3H3N3O2)]\NImag=1\\0
 .49447169,-0.07448112,0.42157453,0.06903437,-0.01347506,0.12622496,-0.
 08372837,-0.00224739,-0.00082786,0.69779539,-0.03022271,-0.17630691,-0
 .02746250,-0.09961807,0.56535513,0.00817082,0.02077408,-0.04034142,-0.
 00623145,-0.01043055,0.11169636,0.00318337,0.01410327,-0.00710778,-0.1
 6829759,0.08554786,-0.01532357,0.58131109,0.00570071,-0.06910902,0.006
 12040,0.06425891,-0.19268028,0.02815344,0.13846030,0.81053589,0.001133
 23,0.00240237,-0.00472079,-0.03825483,0.05096379,-0.03412789,0.1313623
 7,0.02478193,0.11677929,-0.05223431,0.04138658,-0.01424583,-0.06562908
 ,0.03675765,-0.02830165,-0.31355780,-0.10982403,-0.07206730,0.80193377
 ,0.04561616,-0.03887521,0.01726115,0.00134943,0.00425136,-0.01048608,-
 0.07881622,-0.13130714,-0.01370176,-0.10088526,0.57187041,-0.02560711,
 0.01546564,0.00438462,-0.02541155,0.01345138,0.00352910,-0.07585878,-0
 .03074444,-0.07833926,0.21225070,-0.04330738,0.19449812,-0.23548860,0.
 00800527,-0.06715932,-0.09202390,-0.03486879,-0.02049144,0.00096756,-0
 .03062224,-0.01025822,-0.09072875,0.04200599,-0.00895063,0.41243972,0.
 09950762,-0.10930636,0.02037450,-0.01586888,-0.00510238,0.00254748,-0.
 08905485,-0.08876550,-0.03093228,0.02587678,-0.28310668,0.01296660,-0.
 01291905,0.49170935,-0.07267899,-0.00172880,-0.07304239,-0.03210126,-0
 .01013701,-0.00177167,-0.00533554,-0.00914340,0.02429406,-0.01206188,0
 .01829835,-0.06141611,0.11520465,-0.01379534,0.11117396,-0.00486164,0.
 00304846,-0.00196744,0.00924369,0.02394256,0.00342197,-0.07480587,-0.0
 8913461,-0.01771855,0.00570002,-0.01994046,0.00243131,-0.00265210,-0.0
 0381996,-0.00247770,0.06707699,0.00134381,-0.00008523,-0.00068651,-0.0
 0598082,-0.01341246,-0.00151491,-0.08178352,-0.35233601,-0.01577871,0.
 00135072,-0.00080544,-0.00006424,0.00134198,0.00179996,0.00095362,0.08
 521296,0.36591069,-0.00193567,0.00123388,0.00356707,0.00370720,0.00869
 417,-0.00429330,-0.01655042,-0.02095906,-0.01906618,0.00160364,-0.0059
 5343,0.00012117,-0.00352536,-0.00116424,0.00445169,0.01571166,0.016921
 40,0.01745171,0.00175787,-0.00194894,-0.00183275,-0.00335197,-0.000118
 04,-0.00195962,-0.00786120,0.01276472,-0.00333159,-0.28733873,0.109686
 17,-0.08232441,0.00346114,-0.00040966,0.00278756,-0.00016498,-0.000290
 26,0.00081917,0.29252533,0.00204534,-0.00661586,-0.00025482,-0.0052020
 7,-0.00210908,-0.00065982,-0.01091476,0.01266225,-0.00362852,0.1042667
 3,-0.11032996,0.03349673,0.02881493,-0.00716879,0.00988872,0.00072479,
 -0.00029299,0.00023645,-0.11982329,0.11258602,-0.00106335,0.00095533,0
 .00743914,-0.00241518,-0.00234919,0.00610569,-0.00279678,0.00381146,0.
 00065538,-0.08210411,0.03466622,-0.06175483,0.00179192,0.00151510,-0.0
 0407789,0.00073068,-0.00014700,-0.00222887,0.08660721,-0.03940255,0.05
 351903,0.04767939,0.00691706,-0.00637614,-0.01518966,0.02103298,0.0142
 1078,0.00323557,-0.01456766,0.00087452,0.00282307,-0.00197386,0.003625
 41,-0.01292752,-0.01091588,-0.01788537,0.00047710,-0.00023166,0.000059
 82,-0.00010561,-0.00167905,0.00099744,-0.06308885,0.00348868,-0.032162
 96,-0.01203506,0.01126990,-0.03062301,-0.01188254,-0.00234305,-0.00072
 132,-0.00101034,-0.00029929,0.00030353,-0.00077195,0.00163052,-0.00123
 006,0.00564524,0.00040802,-0.00037290,-0.00000193,0.00002857,0.0000333
 7,-0.00033509,0.01504934,0.13979539,-0.00338791,-0.02761977,-0.0348670
 6,0.00415101,-0.00907890,-0.00384627,0.00152910,0.00119779,-0.00030209
 ,-0.00577953,-0.00081964,-0.00080190,-0.00075086,0.01600359,0.00708881
 ,-0.00002882,0.00016623,-0.00007218,0.00013424,0.00123093,-0.00026417,
 0.01978274,0.02522587,0.05537916,-0.06380196,-0.01880406,0.00554402,-0
 .18770073,0.00200181,0.00052900,-0.02909048,0.02612134,0.00885678,0.00
 647230,0.00126001,0.00468510,0.02546986,-0.00096336,0.01262546,0.00147
 395,-0.00164530,-0.00008676,0.00181636,0.00074256,0.00016520,0.0315956
 4,-0.03329871,-0.01071038,0.63975162,0.00210155,0.00420646,-0.00105099
 ,0.02963786,-0.11507722,-0.00147657,0.02682459,0.00043608,-0.01000597,
 0.00199477,-0.00926300,0.00137081,-0.00611503,-0.00681410,-0.00530834,
 -0.00039908,-0.00086562,0.00054642,0.00008493,0.00017196,0.00112769,-0
 .07904790,-0.03175908,0.00649995,0.20636183,0.79481580,0.01220747,0.00
 947082,0.00161956,0.04563753,0.00227731,-0.05781675,-0.01115307,-0.012
 05524,-0.00445984,-0.00333775,0.00545494,-0.00120022,-0.01016062,-0.00
 571734,-0.00746267,-0.00008805,0.00049729,-0.00011742,-0.00159264,-0.0
 0107726,0.00047537,-0.02050623,-0.00032599,0.00889452,-0.06502574,0.02
 785530,0.22515976,-0.00020958,0.00123558,0.00363627,-0.06239949,-0.041
 86598,0.03097447,0.00655195,-0.00388666,-0.00451270,-0.00068714,-0.001
 24244,-0.00124179,-0.01162235,-0.00151872,-0.00429471,-0.00105058,0.00
 020165,0.00032304,-0.00070969,-0.00001412,-0.00009398,-0.00253204,0.00
 278892,0.00213417,-0.29268525,-0.23688053,0.02898228,0.34476043,-0.006
 04099,-0.00356354,0.00367350,-0.03012372,0.00952866,0.02530139,-0.0009
 9526,-0.00035917,-0.00532724,-0.00010689,0.00162230,-0.00204322,-0.008
 63696,0.00076460,-0.00297955,-0.00032350,0.00075802,0.00040505,-0.0004
 9793,0.00017186,-0.00005848,0.02007330,-0.00134354,-0.00284979,-0.2336
 8916,-0.36177430,0.01681650,0.30833363,0.44816120,-0.00092654,-0.00633
 545,0.00179119,0.02484348,0.01343640,0.00858227,0.00078103,0.00207216,
 -0.00116737,0.00061895,0.00033082,0.00006588,0.00393880,0.00186958,0.0
 0275630,-0.00007765,-0.00012845,0.00010063,0.00025220,0.00006573,-0.00
 004561,0.00321325,-0.00207889,0.00180708,0.02329954,0.02445960,-0.0768
 7013,-0.04815862,-0.02381211,0.04317306,-0.10676786,0.02278530,0.02130
 247,-0.02871828,0.03741073,0.01500070,-0.00163659,0.00072921,0.0039162
 8,-0.00675334,0.00294048,-0.00359825,0.00310494,0.01008597,0.01621778,
 -0.00043657,0.00048044,-0.00012631,-0.00002851,0.00103894,-0.00181905,
 0.00803291,0.00127710,-0.00707377,-0.13330132,0.05543700,0.02503681,0.
 02058373,-0.04799250,-0.00778444,0.24592087,-0.04905906,0.01024410,0.0
 0753539,0.05252485,-0.04382380,-0.04032591,-0.00102835,0.01164423,0.00
 223673,-0.00051776,-0.00436017,0.00018008,0.01136337,0.00721996,0.0083
 0652,0.00028083,-0.00029802,0.00004129,0.00052373,0.00089122,0.0002165
 1,0.04534333,-0.04191944,-0.00995625,0.05191303,-0.27407698,-0.0431963
 2,-0.02715132,-0.09396609,-0.00987938,-0.08419265,0.42844498,0.0150536
 8,-0.00114303,0.00794512,0.02690292,-0.02936491,0.01228387,0.00045345,
 0.00676497,0.00045468,0.00342475,-0.00174320,0.00091341,0.00036108,-0.
 00366765,-0.00199409,0.00006257,-0.00021870,0.00008567,0.00044063,0.00
 010443,0.00017677,0.00200378,-0.00242930,-0.03301590,0.02011780,-0.044
 01790,-0.08822218,-0.00774843,-0.00912606,0.01980671,-0.06107223,0.084
 84135,0.08156592\\0.00000989,-0.00001452,0.00000064,0.00001402,0.00000
 315,-0.00000443,-0.00000586,-0.00000103,0.00000516,-0.00000319,-0.0000
 1294,0.00000058,-0.00000485,-0.00000387,0.00000098,-0.00001243,-0.0000
 0181,0.00000125,-0.00000623,-0.00001530,0.00000516,0.00001744,0.000015
 44,0.00000209,-0.00000024,-0.00003195,-0.00001098,-0.00000658,0.000008
 57,-0.00000608,-0.00000197,0.00005426,0.00000563\\\@


 I CLAIM NOT TO HAVE CONTROLLED EVENTS,
 BUT CONFESS PLAINLY THAT EVENTS HAVE CONTROLLED ME.

                                         A. LINCOLN
 Job cpu time:       0 days  0 hours 23 minutes 37.3 seconds.
 Elapsed time:       0 days  0 hours  0 minutes 59.9 seconds.
 File lengths (MBytes):  RWF=     91 Int=      0 D2E=      0 Chk=      9 Scr=      1
 Normal termination of Gaussian 16 at Thu Jul  6 21:01:43 2023.
