 Entering Gaussian System, Link 0=/opt/soft/g16/g16
 Initial command:
 /opt/soft/g16/l1.exe "/scratch/gongke2021/PC/Gau-16983.inp" -scrdir="/scratch/gongke2021/PC/"
 Entering Link 1 = /opt/soft/g16/l1.exe PID=     16984.
  
 Copyright (c) 1988,1990,1992,1993,1995,1998,2003,2009,2016,
            Gaussian, Inc.  All Rights Reserved.
  
 This is part of the Gaussian(R) 16 program.  It is based on
 the Gaussian(R) 09 system (copyright 2009, Gaussian, Inc.),
 the Gaussian(R) 03 system (copyright 2003, Gaussian, Inc.),
 the Gaussian(R) 98 system (copyright 1998, Gaussian, Inc.),
 the Gaussian(R) 94 system (copyright 1995, Gaussian, Inc.),
 the Gaussian 92(TM) system (copyright 1992, Gaussian, Inc.),
 the Gaussian 90(TM) system (copyright 1990, Gaussian, Inc.),
 the Gaussian 88(TM) system (copyright 1988, Gaussian, Inc.),
 the Gaussian 86(TM) system (copyright 1986, Carnegie Mellon
 University), and the Gaussian 82(TM) system (copyright 1983,
 Carnegie Mellon University). Gaussian is a federally registered
 trademark of Gaussian, Inc.
  
 This software contains proprietary and confidential information,
 including trade secrets, belonging to Gaussian, Inc.
  
 This software is provided under written license and may be
 used, copied, transmitted, or stored only in accord with that
 written license.
  
 The following legend is applicable only to US Government
 contracts under FAR:
  
                    RESTRICTED RIGHTS LEGEND
  
 Use, reproduction and disclosure by the US Government is
 subject to restrictions as set forth in subparagraphs (a)
 and (c) of the Commercial Computer Software - Restricted
 Rights clause in FAR 52.227-19.
  
 Gaussian, Inc.
 340 Quinnipiac St., Bldg. 40, Wallingford CT 06492
  
  
 ---------------------------------------------------------------
 Warning -- This program may not be used in any manner that
 competes with the business of Gaussian, Inc. or will provide
 assistance to any competitor of Gaussian, Inc.  The licensee
 of this program is prohibited from giving any competitor of
 Gaussian, Inc. access to this program.  By using this program,
 the user acknowledges that Gaussian, Inc. is engaged in the
 business of creating and licensing software in the field of
 computational chemistry and represents and warrants to the
 licensee that it is not a competitor of Gaussian, Inc. and that
 it will not use this program in any manner prohibited above.
 ---------------------------------------------------------------
  

 Cite this work as:
 Gaussian 16, Revision A.03,
 M. J. Frisch, G. W. Trucks, H. B. Schlegel, G. E. Scuseria, 
 M. A. Robb, J. R. Cheeseman, G. Scalmani, V. Barone, 
 G. A. Petersson, H. Nakatsuji, X. Li, M. Caricato, A. V. Marenich, 
 J. Bloino, B. G. Janesko, R. Gomperts, B. Mennucci, H. P. Hratchian, 
 J. V. Ortiz, A. F. Izmaylov, J. L. Sonnenberg, D. Williams-Young, 
 F. Ding, F. Lipparini, F. Egidi, J. Goings, B. Peng, A. Petrone, 
 T. Henderson, D. Ranasinghe, V. G. Zakrzewski, J. Gao, N. Rega, 
 G. Zheng, W. Liang, M. Hada, M. Ehara, K. Toyota, R. Fukuda, 
 J. Hasegawa, M. Ishida, T. Nakajima, Y. Honda, O. Kitao, H. Nakai, 
 T. Vreven, K. Throssell, J. A. Montgomery, Jr., J. E. Peralta, 
 F. Ogliaro, M. J. Bearpark, J. J. Heyd, E. N. Brothers, K. N. Kudin, 
 V. N. Staroverov, T. A. Keith, R. Kobayashi, J. Normand, 
 K. Raghavachari, A. P. Rendell, J. C. Burant, S. S. Iyengar, 
 J. Tomasi, M. Cossi, J. M. Millam, M. Klene, C. Adamo, R. Cammi, 
 J. W. Ochterski, R. L. Martin, K. Morokuma, O. Farkas, 
 J. B. Foresman, and D. J. Fox, Gaussian, Inc., Wallingford CT, 2016.
 
 ******************************************
 Gaussian 16:  ES64L-G16RevA.03 25-Dec-2016
                 6-Jul-2023 
 ******************************************
 %mem=10GB
 %nprocshared=24
 Will use up to   24 processors via shared memory.
 -----------------------------------------------------
 # opt freq 6-31+g(d,p) m062x scrf=(SMD,solvent=water)
 -----------------------------------------------------
 1/18=20,19=15,26=3,38=1/1,3;
 2/9=110,12=2,17=6,18=5,40=1/2;
 3/5=1,6=6,7=111,11=2,25=1,30=1,70=32201,71=1,72=1,74=-55/1,2,3;
 4//1;
 5/5=2,38=5,53=1/2;
 6/7=2,8=2,9=2,10=2,28=1/1;
 7//1,2,3,16;
 1/18=20,19=15,26=3/3(2);
 2/9=110/2;
 99//99;
 2/9=110/2;
 3/5=1,6=6,7=111,11=2,25=1,30=1,70=32205,71=1,72=1,74=-55/1,2,3;
 4/5=5,16=3,69=1/1;
 5/5=2,38=5,53=1/2;
 7//1,2,3,16;
 1/18=20,19=15,26=3/3(-5);
 2/9=110/2;
 6/7=2,8=2,9=2,10=2,19=2,28=1/1;
 99/9=1/99;
 ----
 test
 ----
 Symbolic Z-matrix:
 Charge = -1 Multiplicity = 2
 N                    -0.65354  -1.02157   0.36165 
 N                     0.02917   0.21447   0.4699 
 C                    -0.86995   1.21763   0.09227 
 C                    -2.01446   0.54489  -0.27783 
 N                    -1.88768  -0.79392  -0.15907 
 H                    -0.59352   2.25822   0.09424 
 H                    -2.94318   0.97374  -0.63387 
 H                     0.78131  -1.84823  -0.11994 
 C                     1.37284   0.06271  -0.00586 
 O                     2.12733   1.01838  -0.11333 
 O                     1.59204  -1.1958   -0.25208 
 

 GradGradGradGradGradGradGradGradGradGradGradGradGradGradGradGradGradGrad
 Berny optimization.
 Initialization pass.
                           ----------------------------
                           !    Initial Parameters    !
                           ! (Angstroms and Degrees)  !
 --------------------------                            --------------------------
 ! Name  Definition              Value          Derivative Info.                !
 --------------------------------------------------------------------------------
 ! R1    R(1,2)                  1.4162         estimate D2E/DX2                !
 ! R2    R(1,5)                  1.3587         estimate D2E/DX2                !
 ! R3    R(2,3)                  1.399          estimate D2E/DX2                !
 ! R4    R(2,9)                  1.4335         estimate D2E/DX2                !
 ! R5    R(3,4)                  1.3782         estimate D2E/DX2                !
 ! R6    R(3,6)                  1.0767         estimate D2E/DX2                !
 ! R7    R(4,5)                  1.35           estimate D2E/DX2                !
 ! R8    R(4,7)                  1.0831         estimate D2E/DX2                !
 ! R9    R(8,11)                 1.049          estimate D2E/DX2                !
 ! R10   R(9,10)                 1.2223         estimate D2E/DX2                !
 ! R11   R(9,11)                 1.301          estimate D2E/DX2                !
 ! A1    A(2,1,5)              108.7195         estimate D2E/DX2                !
 ! A2    A(1,2,3)              107.18           estimate D2E/DX2                !
 ! A3    A(1,2,9)              109.5178         estimate D2E/DX2                !
 ! A4    A(3,2,9)              126.0672         estimate D2E/DX2                !
 ! A5    A(2,3,4)              104.843          estimate D2E/DX2                !
 ! A6    A(2,3,6)              121.8366         estimate D2E/DX2                !
 ! A7    A(4,3,6)              133.272          estimate D2E/DX2                !
 ! A8    A(3,4,5)              112.4862         estimate D2E/DX2                !
 ! A9    A(3,4,7)              127.3765         estimate D2E/DX2                !
 ! A10   A(5,4,7)              120.1372         estimate D2E/DX2                !
 ! A11   A(1,5,4)              106.5689         estimate D2E/DX2                !
 ! A12   A(2,9,10)             121.6678         estimate D2E/DX2                !
 ! A13   A(2,9,11)             108.8544         estimate D2E/DX2                !
 ! A14   A(10,9,11)            129.4704         estimate D2E/DX2                !
 ! A15   A(8,11,9)             116.5899         estimate D2E/DX2                !
 ! D1    D(5,1,2,3)              4.4433         estimate D2E/DX2                !
 ! D2    D(5,1,2,9)           -135.3205         estimate D2E/DX2                !
 ! D3    D(2,1,5,4)             -4.4309         estimate D2E/DX2                !
 ! D4    D(1,2,3,4)             -2.5964         estimate D2E/DX2                !
 ! D5    D(1,2,3,6)            179.6203         estimate D2E/DX2                !
 ! D6    D(9,2,3,4)            128.5362         estimate D2E/DX2                !
 ! D7    D(9,2,3,6)            -49.247          estimate D2E/DX2                !
 ! D8    D(1,2,9,10)           174.0095         estimate D2E/DX2                !
 ! D9    D(1,2,9,11)            -6.892          estimate D2E/DX2                !
 ! D10   D(3,2,9,10)            43.779          estimate D2E/DX2                !
 ! D11   D(3,2,9,11)          -137.1226         estimate D2E/DX2                !
 ! D12   D(2,3,4,5)             -0.1038         estimate D2E/DX2                !
 ! D13   D(2,3,4,7)           -179.9727         estimate D2E/DX2                !
 ! D14   D(6,3,4,5)            177.3095         estimate D2E/DX2                !
 ! D15   D(6,3,4,7)             -2.5594         estimate D2E/DX2                !
 ! D16   D(3,4,5,1)              2.8654         estimate D2E/DX2                !
 ! D17   D(7,4,5,1)           -177.255          estimate D2E/DX2                !
 ! D18   D(2,9,11,8)             3.0555         estimate D2E/DX2                !
 ! D19   D(10,9,11,8)         -177.9384         estimate D2E/DX2                !
 --------------------------------------------------------------------------------
 Trust Radius=3.00D-01 FncErr=1.00D-07 GrdErr=1.00D-06 EigMax=2.50D+02 EigMin=1.00D-04
 Number of steps in this run=     55 maximum allowed number of steps=    100.
 GradGradGradGradGradGradGradGradGradGradGradGradGradGradGradGradGradGrad

                          Input orientation:                          
 ---------------------------------------------------------------------
 Center     Atomic      Atomic             Coordinates (Angstroms)
 Number     Number       Type             X           Y           Z
 ---------------------------------------------------------------------
      1          7           0       -0.653542   -1.021567    0.361646
      2          7           0        0.029165    0.214473    0.469898
      3          6           0       -0.869948    1.217628    0.092274
      4          6           0       -2.014457    0.544891   -0.277827
      5          7           0       -1.887680   -0.793917   -0.159068
      6          1           0       -0.593516    2.258215    0.094240
      7          1           0       -2.943181    0.973740   -0.633874
      8          1           0        0.781310   -1.848235   -0.119935
      9          6           0        1.372840    0.062709   -0.005863
     10          8           0        2.127333    1.018378   -0.113333
     11          8           0        1.592038   -1.195795   -0.252083
 ---------------------------------------------------------------------
                    Distance matrix (angstroms):
                    1          2          3          4          5
     1  N    0.000000
     2  N    1.416193   0.000000
     3  C    2.265698   1.399044   0.000000
     4  C    2.171360   2.201059   1.378206   0.000000
     5  N    1.358699   2.255381   2.268318   1.350031   0.000000
     6  H    3.291212   2.169270   1.076680   2.256765   3.324836
     7  H    3.196053   3.260313   2.210219   1.083148   2.112850
     8  H    1.724558   2.273409   3.488725   3.683516   2.869952
     9  C    2.327432   1.433472   2.524592   3.432236   3.374651
    10  O    3.481414   2.321364   3.010925   4.172011   4.405319
    11  O    2.334448   2.225463   3.464761   4.004679   3.504083
                    6          7          8          9         10
     6  H    0.000000
     7  H    2.775059   0.000000
     8  H    4.335775   4.701011   0.000000
     9  C    2.949038   4.455605   2.003654   0.000000
    10  O    2.997216   5.097359   3.166906   1.222339   0.000000
    11  O    4.102045   5.041910   1.049010   1.300963   2.282182
                   11
    11  O    0.000000
 Stoichiometry    C3H3N3O2(1-,2)
 Framework group  C1[X(C3H3N3O2)]
 Deg. of freedom    27
 Full point group                 C1      NOp   1
 Largest Abelian subgroup         C1      NOp   1
 Largest concise Abelian subgroup C1      NOp   1
                         Standard orientation:                         
 ---------------------------------------------------------------------
 Center     Atomic      Atomic             Coordinates (Angstroms)
 Number     Number       Type             X           Y           Z
 ---------------------------------------------------------------------
      1          7           0       -0.650183   -1.022079    0.363336
      2          7           0        0.020974    0.220409    0.469990
      3          6           0       -0.887262    1.214603    0.090504
      4          6           0       -2.025326    0.530711   -0.279028
      5          7           0       -1.886171   -0.806682   -0.158201
      6          1           0       -0.620505    2.257714    0.091009
      7          1           0       -2.957848    0.950382   -0.636083
      8          1           0        0.792477   -1.836111   -0.116439
      9          6           0        1.366192    0.080413   -0.005018
     10          8           0        2.111823    1.042884   -0.113634
     11          8           0        1.597166   -1.176370   -0.249255
 ---------------------------------------------------------------------
 Rotational constants (GHZ):           4.9408825           1.8937614           1.4305624
 Standard basis: 6-31+G(d,p) (6D, 7F)
 There are   167 symmetry adapted cartesian basis functions of A   symmetry.
 There are   167 symmetry adapted basis functions of A   symmetry.
   167 basis functions,   277 primitive gaussians,   167 cartesian basis functions
    30 alpha electrons       29 beta electrons
       nuclear repulsion energy       362.3994609836 Hartrees.
 NAtoms=   11 NActive=   11 NUniq=   11 SFac= 1.00D+00 NAtFMM=   60 NAOKFM=F Big=F
 Integral buffers will be    131072 words long.
 Raffenetti 2 integral format.
 Two-electron integral symmetry is turned on.
 ------------------------------------------------------------------------------
 Polarizable Continuum Model (PCM)
 =================================
 Model                : PCM.
 Atomic radii         : SMD-Coulomb.
 Polarization charges : Total charges.
 Charge compensation  : None.
 Solution method      : On-the-fly selection.
 Cavity type          : VdW (van der Waals Surface) (Alpha=1.000).
 Cavity algorithm     : GePol (No added spheres)
                        Default sphere list used, NSphG=   11.
                        Lebedev-Laikov grids with approx.  5.0 points / Ang**2.
                        Smoothing algorithm: York/Karplus (Gamma=1.0000).
                        Polarization charges: spherical gaussians, with
                                              point-specific exponents (IZeta= 3).
                        Self-potential: point-specific (ISelfS= 7).
                        Self-field    : sphere-specific E.n sum rule (ISelfD= 2).
 1st derivatives      : Analytical E(r).r(x)/FMM algorithm (CHGder, D1EAlg=3).
                        Cavity 1st derivative terms included.
 Solvent              : Water, Eps=  78.355300 Eps(inf)=   1.777849
 ------------------------------------------------------------------------------
 Spheres list:
 ISph  on   Nord     Re0    Alpha      Xe            Ye            Ze
    1   N      1    1.8900  1.000     -0.650183     -1.022079      0.363336
    2   N      2    1.8900  1.000      0.020974      0.220409      0.469990
    3   C      3    1.8500  1.000     -0.887262      1.214603      0.090504
    4   C      4    1.8500  1.000     -2.025326      0.530711     -0.279028
    5   N      5    1.8900  1.000     -1.886171     -0.806682     -0.158201
    6   H      6    1.2000  1.000     -0.620505      2.257714      0.091009
    7   H      7    1.2000  1.000     -2.957848      0.950382     -0.636083
    8   H      8    1.2000  1.000      0.792477     -1.836111     -0.116439
    9   C      9    1.8500  1.000      1.366192      0.080413     -0.005018
   10   O     10    1.5200  1.000      2.111823      1.042884     -0.113634
   11   O     11    1.5200  1.000      1.597166     -1.176370     -0.249255
 ------------------------------------------------------------------------------
 ------------------------------------------------------------------------------
 Atomic radii for non-electrostatic terms: SMD-CDS.
 ------------------------------------------------------------------------------
 Nuclear repulsion after PCM non-electrostatic terms =      362.4052766110 Hartrees.
 One-electron integrals computed using PRISM.
 NBasis=   167 RedAO= T EigKep=  5.30D-05  NBF=   167
 NBsUse=   167 1.00D-06 EigRej= -1.00D+00 NBFU=   167
 ExpMin= 4.38D-02 ExpMax= 5.48D+03 ExpMxC= 8.25D+02 IAcc=3 IRadAn=         5 AccDes= 0.00D+00
 Harris functional with IExCor= 1009 and IRadAn=       5 diagonalized for initial guess.
 HarFok:  IExCor= 1009 AccDes= 0.00D+00 IRadAn=         5 IDoV= 1 UseB2=F ITyADJ=14
 ICtDFT=  3500011 ScaDFX=  1.000000  1.000000  1.000000  1.000000
 FoFCou: FMM=F IPFlag=           0 FMFlag=      100000 FMFlg1=           0
         NFxFlg=           0 DoJE=T BraDBF=F KetDBF=T FulRan=T
         wScrn=  0.000000 ICntrl=       500 IOpCl=  0 I1Cent=   200000004 NGrid=           0
         NMat0=    1 NMatS0=      1 NMatT0=    0 NMatD0=    1 NMtDS0=    0 NMtDT0=    0
 Petite list used in FoFCou.
 Initial guess <Sx>= 0.0000 <Sy>= 0.0000 <Sz>= 0.5000 <S**2>= 0.7500 S= 0.5000
 Keep R1 and R2 ints in memory in canonical form, NReq=220618657.
 Requested convergence on RMS density matrix=1.00D-08 within 128 cycles.
 Requested convergence on MAX density matrix=1.00D-06.
 Requested convergence on             energy=1.00D-06.
 No special actions if energy rises.
 Inv3:  Mode=1 IEnd=     2976048.
 Iteration    1 A*A^-1 deviation from unit magnitude is 2.89D-15 for    374.
 Iteration    1 A*A^-1 deviation from orthogonality  is 2.66D-15 for    943    728.
 Iteration    1 A^-1*A deviation from unit magnitude is 2.78D-15 for    578.
 Iteration    1 A^-1*A deviation from orthogonality  is 3.07D-13 for    535    532.
 Error on total polarization charges =  0.05096
 SCF Done:  E(UM062X) =  -430.730412956     A.U. after   19 cycles
            NFock= 19  Conv=0.23D-08     -V/T= 2.0083
 <Sx>= 0.0000 <Sy>= 0.0000 <Sz>= 0.5000 <S**2>= 0.7644 S= 0.5072
 <L.S>=  0.00000000000    
 SMD-CDS (non-electrostatic) energy       (kcal/mol) =       3.65
 (included in total energy above)
 Annihilation of the first spin contaminant:
 S**2 before annihilation     0.7644,   after     0.7501

 **********************************************************************

            Population analysis using the SCF density.

 **********************************************************************

 Orbital symmetries:
 Alpha Orbitals:
       Occupied  (A) (A) (A) (A) (A) (A) (A) (A) (A) (A) (A) (A)
                 (A) (A) (A) (A) (A) (A) (A) (A) (A) (A) (A) (A)
                 (A) (A) (A) (A) (A) (A)
       Virtual   (A) (A) (A) (A) (A) (A) (A) (A) (A) (A) (A) (A)
                 (A) (A) (A) (A) (A) (A) (A) (A) (A) (A) (A) (A)
                 (A) (A) (A) (A) (A) (A) (A) (A) (A) (A) (A) (A)
                 (A) (A) (A) (A) (A) (A) (A) (A) (A) (A) (A) (A)
                 (A) (A) (A) (A) (A) (A) (A) (A) (A) (A) (A) (A)
                 (A) (A) (A) (A) (A) (A) (A) (A) (A) (A) (A) (A)
                 (A) (A) (A) (A) (A) (A) (A) (A) (A) (A) (A) (A)
                 (A) (A) (A) (A) (A) (A) (A) (A) (A) (A) (A) (A)
                 (A) (A) (A) (A) (A) (A) (A) (A) (A) (A) (A) (A)
                 (A) (A) (A) (A) (A) (A) (A) (A) (A) (A) (A) (A)
                 (A) (A) (A) (A) (A) (A) (A) (A) (A) (A) (A) (A)
                 (A) (A) (A) (A) (A)
 Beta  Orbitals:
       Occupied  (A) (A) (A) (A) (A) (A) (A) (A) (A) (A) (A) (A)
                 (A) (A) (A) (A) (A) (A) (A) (A) (A) (A) (A) (A)
                 (A) (A) (A) (A) (A)
       Virtual   (A) (A) (A) (A) (A) (A) (A) (A) (A) (A) (A) (A)
                 (A) (A) (A) (A) (A) (A) (A) (A) (A) (A) (A) (A)
                 (A) (A) (A) (A) (A) (A) (A) (A) (A) (A) (A) (A)
                 (A) (A) (A) (A) (A) (A) (A) (A) (A) (A) (A) (A)
                 (A) (A) (A) (A) (A) (A) (A) (A) (A) (A) (A) (A)
                 (A) (A) (A) (A) (A) (A) (A) (A) (A) (A) (A) (A)
                 (A) (A) (A) (A) (A) (A) (A) (A) (A) (A) (A) (A)
                 (A) (A) (A) (A) (A) (A) (A) (A) (A) (A) (A) (A)
                 (A) (A) (A) (A) (A) (A) (A) (A) (A) (A) (A) (A)
                 (A) (A) (A) (A) (A) (A) (A) (A) (A) (A) (A) (A)
                 (A) (A) (A) (A) (A) (A) (A) (A) (A) (A) (A) (A)
                 (A) (A) (A) (A) (A) (A)
 The electronic state is 2-A.
 Alpha  occ. eigenvalues --  -19.67969 -19.63869 -14.81281 -14.77416 -14.75580
 Alpha  occ. eigenvalues --  -10.71160 -10.55711 -10.55539  -1.24225  -1.14913
 Alpha  occ. eigenvalues --   -1.14084  -0.97914  -0.86621  -0.75430  -0.68713
 Alpha  occ. eigenvalues --   -0.66500  -0.62296  -0.56781  -0.55257  -0.52341
 Alpha  occ. eigenvalues --   -0.48995  -0.47482  -0.46048  -0.40418  -0.39001
 Alpha  occ. eigenvalues --   -0.37269  -0.35412  -0.33837  -0.30915  -0.15426
 Alpha virt. eigenvalues --    0.02724   0.04297   0.05189   0.05575   0.06428
 Alpha virt. eigenvalues --    0.06836   0.07321   0.08012   0.09249   0.09518
 Alpha virt. eigenvalues --    0.12360   0.12701   0.14547   0.14941   0.16267
 Alpha virt. eigenvalues --    0.17938   0.18579   0.20985   0.22224   0.22767
 Alpha virt. eigenvalues --    0.23059   0.23538   0.24837   0.25297   0.26387
 Alpha virt. eigenvalues --    0.26801   0.27529   0.28346   0.28634   0.29933
 Alpha virt. eigenvalues --    0.30306   0.31232   0.32095   0.32693   0.34436
 Alpha virt. eigenvalues --    0.35228   0.37170   0.38458   0.39296   0.39778
 Alpha virt. eigenvalues --    0.42887   0.46728   0.51208   0.53725   0.62921
 Alpha virt. eigenvalues --    0.71949   0.76845   0.78696   0.81024   0.83375
 Alpha virt. eigenvalues --    0.86531   0.89180   0.92284   0.93007   0.96259
 Alpha virt. eigenvalues --    0.97385   0.98633   0.99769   1.01733   1.03870
 Alpha virt. eigenvalues --    1.06439   1.07992   1.11978   1.14588   1.17113
 Alpha virt. eigenvalues --    1.18623   1.20378   1.23762   1.25146   1.27285
 Alpha virt. eigenvalues --    1.32482   1.35191   1.36140   1.36822   1.37966
 Alpha virt. eigenvalues --    1.41450   1.45838   1.46950   1.49311   1.51328
 Alpha virt. eigenvalues --    1.53239   1.56610   1.61123   1.62612   1.68667
 Alpha virt. eigenvalues --    1.72120   1.78491   1.82100   1.85621   1.90283
 Alpha virt. eigenvalues --    1.92586   1.93624   1.97565   1.98397   1.99190
 Alpha virt. eigenvalues --    2.08279   2.10004   2.12208   2.19626   2.23474
 Alpha virt. eigenvalues --    2.24180   2.27685   2.34837   2.37533   2.37800
 Alpha virt. eigenvalues --    2.40082   2.45710   2.50975   2.53820   2.55729
 Alpha virt. eigenvalues --    2.60641   2.62053   2.65560   2.71397   2.73166
 Alpha virt. eigenvalues --    2.76887   2.81121   2.82635   2.87850   2.96442
 Alpha virt. eigenvalues --    2.97649   3.02158   3.12185   3.14985   3.21626
 Alpha virt. eigenvalues --    3.25041   3.34049   3.53870   3.72963   4.04772
 Alpha virt. eigenvalues --    4.20913   4.28344   4.32156   4.44911   4.50800
 Alpha virt. eigenvalues --    4.64258   4.70055
  Beta  occ. eigenvalues --  -19.67941 -19.63775 -14.81139 -14.76798 -14.75237
  Beta  occ. eigenvalues --  -10.71035 -10.55658 -10.55458  -1.23901  -1.14462
  Beta  occ. eigenvalues --   -1.13198  -0.96873  -0.85543  -0.74358  -0.68237
  Beta  occ. eigenvalues --   -0.65894  -0.61441  -0.55569  -0.54917  -0.51915
  Beta  occ. eigenvalues --   -0.48496  -0.45835  -0.45419  -0.39589  -0.38566
  Beta  occ. eigenvalues --   -0.36050  -0.32804  -0.32551  -0.27447
  Beta virt. eigenvalues --    0.00901   0.02383   0.04170   0.04900   0.05155
  Beta virt. eigenvalues --    0.06570   0.06981   0.07879   0.08380   0.08841
  Beta virt. eigenvalues --    0.10030   0.12057   0.12791   0.13536   0.15016
  Beta virt. eigenvalues --    0.15984   0.17445   0.18529   0.21136   0.22117
  Beta virt. eigenvalues --    0.22336   0.22870   0.23639   0.24863   0.25235
  Beta virt. eigenvalues --    0.26356   0.26505   0.27373   0.27991   0.28751
  Beta virt. eigenvalues --    0.29937   0.30176   0.31126   0.31929   0.32686
  Beta virt. eigenvalues --    0.34602   0.35230   0.37146   0.38300   0.39160
  Beta virt. eigenvalues --    0.39677   0.43340   0.47040   0.51791   0.54015
  Beta virt. eigenvalues --    0.63339   0.72187   0.76205   0.79826   0.81371
  Beta virt. eigenvalues --    0.83901   0.86853   0.89394   0.92594   0.93914
  Beta virt. eigenvalues --    0.96630   0.97408   0.98945   1.00838   1.02489
  Beta virt. eigenvalues --    1.05318   1.07207   1.08298   1.12406   1.14564
  Beta virt. eigenvalues --    1.17295   1.18941   1.20968   1.24080   1.25477
  Beta virt. eigenvalues --    1.27467   1.32775   1.35349   1.36226   1.37022
  Beta virt. eigenvalues --    1.38203   1.41836   1.46164   1.47393   1.49705
  Beta virt. eigenvalues --    1.51699   1.53644   1.57489   1.61569   1.63800
  Beta virt. eigenvalues --    1.68870   1.72379   1.78920   1.82257   1.86027
  Beta virt. eigenvalues --    1.90569   1.93078   1.93987   1.97849   1.98841
  Beta virt. eigenvalues --    1.99543   2.08451   2.10554   2.12729   2.19984
  Beta virt. eigenvalues --    2.24429   2.24754   2.28126   2.35576   2.38030
  Beta virt. eigenvalues --    2.38334   2.40730   2.46398   2.51490   2.54184
  Beta virt. eigenvalues --    2.56225   2.61171   2.62545   2.66022   2.71879
  Beta virt. eigenvalues --    2.73642   2.77633   2.81761   2.83232   2.88383
  Beta virt. eigenvalues --    2.97004   2.98171   3.02358   3.12476   3.15222
  Beta virt. eigenvalues --    3.21927   3.25432   3.34345   3.54054   3.73552
  Beta virt. eigenvalues --    4.05204   4.21042   4.28642   4.32281   4.44996
  Beta virt. eigenvalues --    4.51304   4.64908   4.70832
          Condensed to atoms (all electrons):
               1          2          3          4          5          6
     1  N    8.359948  -0.343329  -0.294087   0.311926  -0.619853   0.012340
     2  N   -0.343329   7.587967   0.012734  -0.032189   0.141462  -0.039087
     3  C   -0.294087   0.012734   6.566277  -0.226979   0.200821   0.392144
     4  C    0.311926  -0.032189  -0.226979   5.704914  -0.009274  -0.019569
     5  N   -0.619853   0.141462   0.200821  -0.009274   7.692637  -0.002152
     6  H    0.012340  -0.039087   0.392144  -0.019569  -0.002152   0.446771
     7  H    0.022081  -0.003709  -0.044898   0.410986  -0.062092   0.000570
     8  H    0.112730  -0.036224   0.010479  -0.004999  -0.002464  -0.000023
     9  C   -0.088091   0.306033  -0.394190   0.019733   0.013338  -0.001904
    10  O    0.012013  -0.178061   0.022696  -0.014729   0.006227  -0.000115
    11  O   -0.104531  -0.175046   0.034745  -0.001386   0.006656  -0.000123
               7          8          9         10         11
     1  N    0.022081   0.112730  -0.088091   0.012013  -0.104531
     2  N   -0.003709  -0.036224   0.306033  -0.178061  -0.175046
     3  C   -0.044898   0.010479  -0.394190   0.022696   0.034745
     4  C    0.410986  -0.004999   0.019733  -0.014729  -0.001386
     5  N   -0.062092  -0.002464   0.013338   0.006227   0.006656
     6  H    0.000570  -0.000023  -0.001904  -0.000115  -0.000123
     7  H    0.488998  -0.000012  -0.000346  -0.000050   0.000182
     8  H   -0.000012   0.257981  -0.005899   0.005173   0.196185
     9  C   -0.000346  -0.005899   4.668575   0.450815   0.253863
    10  O   -0.000050   0.005173   0.450815   8.462564  -0.087368
    11  O    0.000182   0.196185   0.253863  -0.087368   8.437069
          Atomic-Atomic Spin Densities.
               1          2          3          4          5          6
     1  N    0.844590  -0.234829   0.284285  -0.051108  -0.340073  -0.002187
     2  N   -0.234829   0.295318  -0.246309   0.030084   0.089022   0.003817
     3  C    0.284285  -0.246309   0.689628  -0.054055  -0.128817  -0.005228
     4  C   -0.051108   0.030084  -0.054055  -0.156770   0.049593   0.001385
     5  N   -0.340073   0.089022  -0.128817   0.049593   0.565025   0.000634
     6  H   -0.002187   0.003817  -0.005228   0.001385   0.000634  -0.014691
     7  H    0.000489   0.000127  -0.002152   0.003782  -0.001260  -0.000003
     8  H    0.031486  -0.011010   0.009380  -0.001749  -0.007769  -0.000001
     9  C   -0.168480   0.142566  -0.223156   0.028801   0.035296   0.001849
    10  O    0.012961  -0.021064   0.032273  -0.001222  -0.003305  -0.000234
    11  O   -0.003381  -0.004909  -0.010588   0.003969   0.003415   0.000063
               7          8          9         10         11
     1  N    0.000489   0.031486  -0.168480   0.012961  -0.003381
     2  N    0.000127  -0.011010   0.142566  -0.021064  -0.004909
     3  C   -0.002152   0.009380  -0.223156   0.032273  -0.010588
     4  C    0.003782  -0.001749   0.028801  -0.001222   0.003969
     5  N   -0.001260  -0.007769   0.035296  -0.003305   0.003415
     6  H   -0.000003  -0.000001   0.001849  -0.000234   0.000063
     7  H    0.002739   0.000000   0.000215  -0.000001  -0.000002
     8  H    0.000000   0.005831  -0.010934   0.000186  -0.009607
     9  C    0.000215  -0.010934   0.330572  -0.057690  -0.005606
    10  O   -0.000001   0.000186  -0.057690   0.079157   0.004978
    11  O   -0.000002  -0.009607  -0.005606   0.004978   0.030754
 Mulliken charges and spin densities:
               1          2
     1  N   -0.381146   0.373753
     2  N   -0.240551   0.042811
     3  C   -0.279742   0.345260
     4  C   -0.138434  -0.147289
     5  N   -0.365305   0.261759
     6  H    0.211149  -0.014597
     7  H    0.188290   0.003933
     8  H    0.467073   0.005813
     9  C    0.778073   0.073433
    10  O   -0.679164   0.046040
    11  O   -0.560245   0.009084
 Sum of Mulliken charges =  -1.00000   1.00000
 Mulliken charges and spin densities with hydrogens summed into heavy atoms:
               1          2
     1  N   -0.381146   0.373753
     2  N   -0.240551   0.042811
     3  C   -0.068592   0.330662
     4  C    0.049856  -0.143355
     5  N   -0.365305   0.261759
     9  C    0.778073   0.073433
    10  O   -0.679164   0.046040
    11  O   -0.093172   0.014897
 Electronic spatial extent (au):  <R**2>=            808.9202
 Charge=             -1.0000 electrons
 Dipole moment (field-independent basis, Debye):
    X=             -1.0496    Y=              1.3857    Z=             -0.5302  Tot=              1.8174
 Quadrupole moment (field-independent basis, Debye-Ang):
   XX=            -69.5529   YY=            -52.7408   ZZ=            -51.3571
   XY=            -11.5195   XZ=              2.7949   YZ=              0.2081
 Traceless Quadrupole moment (field-independent basis, Debye-Ang):
   XX=            -11.6693   YY=              5.1428   ZZ=              6.5265
   XY=            -11.5195   XZ=              2.7949   YZ=              0.2081
 Octapole moment (field-independent basis, Debye-Ang**2):
  XXX=             -9.3163  YYY=             -0.7137  ZZZ=             -2.2180  XYY=              4.2297
  XXY=              7.3367  XXZ=              0.9450  XZZ=              7.8584  YZZ=             -0.5187
  YYZ=             -1.6399  XYZ=              2.0047
 Hexadecapole moment (field-independent basis, Debye-Ang**3):
 XXXX=           -806.4389 YYYY=           -281.2018 ZZZZ=            -81.0856 XXXY=            -62.5019
 XXXZ=             19.1563 YYYX=            -29.5280 YYYZ=              4.1863 ZZZX=             -0.8254
 ZZZY=              1.6165 XXYY=           -207.0366 XXZZ=           -136.3406 YYZZ=            -70.7323
 XXYZ=             -8.2915 YYXZ=              3.4062 ZZXY=             -1.9502
 N-N= 3.624052766110D+02 E-N=-1.743380836574D+03  KE= 4.271657536274D+02
                          Isotropic Fermi Contact Couplings
        Atom                 a.u.       MegaHertz       Gauss      10(-4) cm-1
     1  N(14)              0.10733      34.67986      12.37464      11.56796
     2  N(14)              0.04566      14.75271       5.26414       4.92098
     3  C(13)              0.04600      51.71699      18.45391      17.25093
     4  C(13)             -0.02903     -32.63548     -11.64515     -10.88603
     5  N(14)              0.06272      20.26518       7.23112       6.75974
     6  H(1)              -0.00481     -21.51322      -7.67645      -7.17604
     7  H(1)               0.00092       4.12692       1.47259       1.37659
     8  H(1)               0.00076       3.39403       1.21107       1.13213
     9  C(13)              0.05626      63.24552      22.56757      21.09643
    10  O(17)              0.01061      -6.43179      -2.29502      -2.14541
    11  O(17)              0.00459      -2.78405      -0.99342      -0.92866
 --------------------------------------------------------
       Center         ----  Spin Dipole Couplings  ----
                      3XX-RR        3YY-RR        3ZZ-RR
 --------------------------------------------------------
     1   Atom       -0.306288     -0.449092      0.755380
     2   Atom       -0.117091     -0.115065      0.232156
     3   Atom       -0.112676     -0.132852      0.245527
     4   Atom        0.025368      0.060910     -0.086278
     5   Atom       -0.211234     -0.275418      0.486653
     6   Atom       -0.017756      0.022740     -0.004983
     7   Atom       -0.001260      0.006843     -0.005583
     8   Atom        0.016449     -0.001413     -0.015037
     9   Atom        0.084800     -0.066006     -0.018794
    10   Atom        0.002473     -0.080583      0.078110
    11   Atom       -0.029405      0.020825      0.008580
 --------------------------------------------------------
                        XY            XZ            YZ
 --------------------------------------------------------
     1   Atom       -0.009860     -0.427153      0.043894
     2   Atom        0.005610      0.030696      0.020494
     3   Atom       -0.011398     -0.125752      0.029860
     4   Atom        0.001479      0.051329     -0.008089
     5   Atom       -0.006554     -0.238080      0.021812
     6   Atom        0.009695     -0.008243     -0.001337
     7   Atom       -0.000898      0.001981     -0.000679
     8   Atom       -0.014338     -0.001651      0.003321
     9   Atom       -0.027787      0.096673     -0.021755
    10   Atom       -0.036616      0.135718     -0.056520
    11   Atom        0.001237     -0.020747     -0.071951
 --------------------------------------------------------


 ---------------------------------------------------------------------------------
              Anisotropic Spin Dipole Couplings in Principal Axis System
 ---------------------------------------------------------------------------------

       Atom             a.u.   MegaHertz   Gauss  10(-4) cm-1        Axes

              Baa    -0.4598   -17.734    -6.328    -5.916  0.8138 -0.4954  0.3039
     1 N(14)  Bbb    -0.4475   -17.261    -6.159    -5.758  0.4770  0.8681  0.1377
              Bcc     0.9074    34.995    12.487    11.673 -0.3321  0.0329  0.9427
 
              Baa    -0.1222    -4.714    -1.682    -1.572  0.8404 -0.5403 -0.0416
     2 N(14)  Bbb    -0.1139    -4.391    -1.567    -1.465  0.5348  0.8394 -0.0972
              Bcc     0.2361     9.105     3.249     3.037  0.0874  0.0594  0.9944
 
              Baa    -0.1526   -20.479    -7.308    -6.831  0.9504  0.1067  0.2922
     3 C(13)  Bbb    -0.1351   -18.125    -6.468    -6.046 -0.0793  0.9914 -0.1040
              Bcc     0.2877    38.605    13.775    12.877 -0.3008  0.0757  0.9507
 
              Baa    -0.1067   -14.315    -5.108    -4.775 -0.3624  0.0481  0.9308
     4 C(13)  Bbb     0.0452     6.069     2.166     2.024  0.9292  0.0964  0.3568
              Bcc     0.0615     8.246     2.942     2.751 -0.0726  0.9942 -0.0797
 
              Baa    -0.2847   -10.981    -3.918    -3.663  0.9552 -0.0195  0.2954
     5 N(14)  Bbb    -0.2760   -10.646    -3.799    -3.551  0.0267  0.9994 -0.0202
              Bcc     0.5608    21.627     7.717     7.214 -0.2948  0.0272  0.9552
 
              Baa    -0.0233   -12.417    -4.431    -4.142  0.9019 -0.1786  0.3934
     6 H(1)   Bbb    -0.0020    -1.071    -0.382    -0.357 -0.3606  0.1906  0.9131
              Bcc     0.0253    13.488     4.813     4.499  0.2380  0.9653 -0.1075
 
              Baa    -0.0064    -3.394    -1.211    -1.132 -0.3583  0.0236  0.9333
     7 H(1)   Bbb    -0.0006    -0.345    -0.123    -0.115  0.9252  0.1428  0.3516
              Bcc     0.0070     3.739     1.334     1.247 -0.1250  0.9895 -0.0730
 
              Baa    -0.0159    -8.505    -3.035    -2.837 -0.0847 -0.3007  0.9500
     8 H(1)   Bbb    -0.0087    -4.645    -1.657    -1.549  0.4869  0.8193  0.3027
              Bcc     0.0246    13.150     4.692     4.386  0.8694 -0.4881 -0.0770
 
              Baa    -0.0792   -10.627    -3.792    -3.545 -0.3771  0.4960  0.7822
     9 C(13)  Bbb    -0.0692    -9.287    -3.314    -3.098  0.3789  0.8532 -0.3583
              Bcc     0.1484    19.914     7.106     6.642  0.8451 -0.1612  0.5097
 
              Baa    -0.1039     7.521     2.684     2.509 -0.5789  0.5497  0.6022
    10 O(17)  Bbb    -0.0935     6.763     2.413     2.256  0.5683  0.8017 -0.1854
              Bcc     0.1974   -14.284    -5.097    -4.765  0.5847 -0.2349  0.7765
 
              Baa    -0.0638     4.619     1.648     1.541  0.4011  0.5898  0.7009
    11 O(17)  Bbb    -0.0250     1.808     0.645     0.603  0.9072 -0.3618 -0.2147
              Bcc     0.0888    -6.427    -2.293    -2.144  0.1269  0.7220 -0.6802
 

 ---------------------------------------------------------------------------------

 D1PCM: PCM CHGder 1st derivatives, ID1Alg=3 FixD1E=F DoIter=F DoCFld=F I1PDM=0.
 Calling FoFJK, ICntrl=      2127 FMM=F ISym2X=0 I1Cent= 0 IOpClX= 1 NMat=1 NMatS=1 NMatT=0.
 ***** Axes restored to original set *****
 -------------------------------------------------------------------
 Center     Atomic                   Forces (Hartrees/Bohr)
 Number     Number              X              Y              Z
 -------------------------------------------------------------------
      1        7          -0.017994262   -0.014554809    0.003107015
      2        7           0.019487284   -0.019495618   -0.010958782
      3        6          -0.006033184    0.005346074   -0.003428065
      4        6          -0.002564830    0.008442804   -0.002930503
      5        7           0.007511259    0.005584836    0.010078043
      6        1          -0.001288361    0.001304533    0.000058877
      7        1           0.001132791    0.001236317   -0.000272942
      8        1           0.009533770    0.044838363    0.000375324
      9        6          -0.062636278    0.011913681    0.017804992
     10        8           0.012672740   -0.005899778   -0.004705697
     11        8           0.040179071   -0.038716400   -0.009128261
 -------------------------------------------------------------------
 Cartesian Forces:  Max     0.062636278 RMS     0.018814715

 GradGradGradGradGradGradGradGradGradGradGradGradGradGradGradGradGradGrad
 Berny optimization.
 FormGI is forming the generalized inverse of G from B-inverse, IUseBI=4.
 Internal  Forces:  Max     0.057815431 RMS     0.014198333
 Search for a local minimum.
 Step number   1 out of a maximum of   55
 All quantities printed in internal units (Hartrees-Bohrs-Radians)
 Mixed Optimization -- RFO/linear search
 Second derivative matrix not updated -- first step.
 ITU=  0
     Eigenvalues ---    0.01249   0.01515   0.01913   0.02073   0.02195
     Eigenvalues ---    0.02370   0.03002   0.03589   0.15974   0.16000
     Eigenvalues ---    0.16000   0.19309   0.22028   0.23755   0.24998
     Eigenvalues ---    0.25000   0.35617   0.36398   0.40014   0.40241
     Eigenvalues ---    0.40494   0.43089   0.47341   0.51468   0.53241
     Eigenvalues ---    0.66926   0.94354
 RFO step:  Lambda=-3.92003069D-02 EMin= 1.24900367D-02
 Linear search not attempted -- first point.
 Maximum step size (   0.300) exceeded in Quadratic search.
    -- Step size scaled by   0.793
 Iteration  1 RMS(Cart)=  0.09411580 RMS(Int)=  0.00599694
 Iteration  2 RMS(Cart)=  0.01077326 RMS(Int)=  0.00082161
 Iteration  3 RMS(Cart)=  0.00009432 RMS(Int)=  0.00081507
 Iteration  4 RMS(Cart)=  0.00000001 RMS(Int)=  0.00081507
 Variable       Old X    -DE/DX   Delta X   Delta X   Delta X     New X
                                 (Linear)    (Quad)   (Total)
    R1        2.67622   0.01426   0.00000   0.02368   0.02377   2.69999
    R2        2.56757  -0.00213   0.00000  -0.00232  -0.00238   2.56519
    R3        2.64381   0.01341   0.00000   0.02013   0.02018   2.66399
    R4        2.70887  -0.00296   0.00000  -0.00530  -0.00530   2.70357
    R5        2.60443  -0.00857   0.00000  -0.01288  -0.01290   2.59154
    R6        2.03463   0.00093   0.00000   0.00184   0.00184   2.03647
    R7        2.55119   0.00174   0.00000   0.00331   0.00323   2.55442
    R8        2.04685  -0.00039   0.00000  -0.00079  -0.00079   2.04607
    R9        1.98234  -0.03520   0.00000  -0.06356  -0.06356   1.91878
   R10        2.30989   0.00362   0.00000   0.00292   0.00292   2.31281
   R11        2.45846   0.00412   0.00000   0.00461   0.00461   2.46308
    A1        1.89751  -0.00655   0.00000  -0.02091  -0.02076   1.87675
    A2        1.87064  -0.00529   0.00000  -0.00239  -0.00276   1.86788
    A3        1.91145   0.02560   0.00000   0.10604   0.10678   2.01823
    A4        2.20029  -0.01737   0.00000  -0.04232  -0.04449   2.15580
    A5        1.82986   0.00541   0.00000   0.01033   0.01029   1.84014
    A6        2.12645  -0.00146   0.00000   0.00044   0.00041   2.12686
    A7        2.32603  -0.00386   0.00000  -0.01009  -0.01017   2.31587
    A8        1.96326  -0.00404   0.00000  -0.01443  -0.01468   1.94857
    A9        2.22314   0.00042   0.00000   0.00088   0.00075   2.22388
   A10        2.09679   0.00362   0.00000   0.01362   0.01349   2.11028
   A11        1.85998   0.01063   0.00000   0.02895   0.02878   1.88876
   A12        2.12350   0.00004   0.00000  -0.00015  -0.00082   2.12268
   A13        1.89987   0.03288   0.00000   0.08992   0.08932   1.98919
   A14        2.25968  -0.03298   0.00000  -0.09077  -0.09130   2.16838
   A15        2.03488  -0.05782   0.00000  -0.23026  -0.23026   1.80461
    D1        0.07755  -0.00091   0.00000  -0.00796  -0.00730   0.07025
    D2       -2.36179   0.00509   0.00000  -0.04213  -0.04546  -2.40725
    D3       -0.07733   0.00262   0.00000   0.02490   0.02435  -0.05298
    D4       -0.04532  -0.00191   0.00000  -0.01369  -0.01404  -0.05936
    D5        3.13497  -0.00401   0.00000  -0.02889  -0.02896   3.10601
    D6        2.24338   0.01485   0.00000   0.11089   0.10934   2.35272
    D7       -0.85952   0.01275   0.00000   0.09569   0.09443  -0.76509
    D8        3.03704   0.00284   0.00000   0.04464   0.04547   3.08251
    D9       -0.12029  -0.00183   0.00000  -0.01721  -0.01780  -0.13809
   D10        0.76409  -0.00181   0.00000  -0.03867  -0.03807   0.72601
   D11       -2.39324  -0.00648   0.00000  -0.10051  -0.10134  -2.49458
   D12       -0.00181   0.00398   0.00000   0.03083   0.03044   0.02863
   D13       -3.14112  -0.00066   0.00000  -0.00433  -0.00409   3.13798
   D14        3.09463   0.00655   0.00000   0.04900   0.04811  -3.14044
   D15       -0.04467   0.00191   0.00000   0.01385   0.01358  -0.03109
   D16        0.05001  -0.00391   0.00000  -0.03465  -0.03436   0.01566
   D17       -3.09368   0.00035   0.00000  -0.00236  -0.00241  -3.09609
   D18        0.05333   0.00532   0.00000   0.06762   0.06619   0.11952
   D19       -3.10561   0.00064   0.00000   0.00073   0.00215  -3.10346
         Item               Value     Threshold  Converged?
 Maximum Force            0.057815     0.000450     NO 
 RMS     Force            0.014198     0.000300     NO 
 Maximum Displacement     0.299529     0.001800     NO 
 RMS     Displacement     0.095108     0.001200     NO 
 Predicted change in Energy=-2.141720D-02
 GradGradGradGradGradGradGradGradGradGradGradGradGradGradGradGradGradGrad

                          Input orientation:                          
 ---------------------------------------------------------------------
 Center     Atomic      Atomic             Coordinates (Angstroms)
 Number     Number       Type             X           Y           Z
 ---------------------------------------------------------------------
      1          7           0       -0.756256   -1.075700    0.380716
      2          7           0        0.002293    0.134006    0.431747
      3          6           0       -0.863781    1.180404    0.054537
      4          6           0       -2.048110    0.572835   -0.275483
      5          7           0       -1.988758   -0.765648   -0.096206
      6          1           0       -0.541946    2.208806    0.042563
      7          1           0       -2.960294    1.048956   -0.612437
      8          1           0        0.898668   -1.731519   -0.143507
      9          6           0        1.359008    0.033023   -0.010908
     10          8           0        2.088995    1.013527   -0.071117
     11          8           0        1.750542   -1.188170   -0.243830
 ---------------------------------------------------------------------
                    Distance matrix (angstroms):
                    1          2          3          4          5
     1  N    0.000000
     2  N    1.428772   0.000000
     3  C    2.282095   1.409723   0.000000
     4  C    2.194801   2.212893   1.371382   0.000000
     5  N    1.357442   2.247754   2.252868   1.351739   0.000000
     6  H    3.308815   2.180013   1.077652   2.246350   3.310574
     7  H    3.218431   3.271754   2.203973   1.082732   2.122066
     8  H    1.855716   2.148160   3.409508   3.743123   3.045058
     9  C    2.420119   1.430670   2.502311   3.459747   3.442774
    10  O    3.558718   2.319645   2.960156   4.165526   4.449063
    11  O    2.585873   2.293671   3.540318   4.187111   3.765990
                    6          7          8          9         10
     6  H    0.000000
     7  H    2.760921   0.000000
     8  H    4.199543   4.779386   0.000000
     9  C    2.889727   4.477759   1.828416   0.000000
    10  O    2.891965   5.078346   2.992891   1.223885   0.000000
    11  O    4.108159   5.228057   1.015373   1.303405   2.234245
                   11
    11  O    0.000000
 Stoichiometry    C3H3N3O2(1-,2)
 Framework group  C1[X(C3H3N3O2)]
 Deg. of freedom    27
 Full point group                 C1      NOp   1
 Largest Abelian subgroup         C1      NOp   1
 Largest concise Abelian subgroup C1      NOp   1
                         Standard orientation:                         
 ---------------------------------------------------------------------
 Center     Atomic      Atomic             Coordinates (Angstroms)
 Number     Number       Type             X           Y           Z
 ---------------------------------------------------------------------
      1          7           0       -0.726210   -1.081828    0.346556
      2          7           0        0.003955    0.143548    0.428413
      3          6           0       -0.884510    1.178019    0.070894
      4          6           0       -2.053104    0.550991   -0.278268
      5          7           0       -1.963569   -0.789491   -0.128977
      6          1           0       -0.586487    2.213564    0.083636
      7          1           0       -2.974650    1.013509   -0.608630
      8          1           0        0.945584   -1.687327   -0.184629
      9          6           0        1.364460    0.083882   -0.010089
     10          8           0        2.071828    1.082042   -0.044749
     11          8           0        1.785077   -1.122380   -0.268694
 ---------------------------------------------------------------------
 Rotational constants (GHZ):           5.0359784           1.8005131           1.3773772
 Standard basis: 6-31+G(d,p) (6D, 7F)
 There are   167 symmetry adapted cartesian basis functions of A   symmetry.
 There are   167 symmetry adapted basis functions of A   symmetry.
   167 basis functions,   277 primitive gaussians,   167 cartesian basis functions
    30 alpha electrons       29 beta electrons
       nuclear repulsion energy       359.3945459061 Hartrees.
 NAtoms=   11 NActive=   11 NUniq=   11 SFac= 1.00D+00 NAtFMM=   60 NAOKFM=F Big=F
 Integral buffers will be    131072 words long.
 Raffenetti 2 integral format.
 Two-electron integral symmetry is turned on.
 ------------------------------------------------------------------------------
 Polarizable Continuum Model (PCM)
 =================================
 Model                : PCM.
 Atomic radii         : SMD-Coulomb.
 Polarization charges : Total charges.
 Charge compensation  : None.
 Solution method      : On-the-fly selection.
 Cavity type          : VdW (van der Waals Surface) (Alpha=1.000).
 Cavity algorithm     : GePol (No added spheres)
                        Default sphere list used, NSphG=   11.
                        Lebedev-Laikov grids with approx.  5.0 points / Ang**2.
                        Smoothing algorithm: York/Karplus (Gamma=1.0000).
                        Polarization charges: spherical gaussians, with
                                              point-specific exponents (IZeta= 3).
                        Self-potential: point-specific (ISelfS= 7).
                        Self-field    : sphere-specific E.n sum rule (ISelfD= 2).
 1st derivatives      : Analytical E(r).r(x)/FMM algorithm (CHGder, D1EAlg=3).
                        Cavity 1st derivative terms included.
 Solvent              : Water, Eps=  78.355300 Eps(inf)=   1.777849
 ------------------------------------------------------------------------------
 Spheres list:
 ISph  on   Nord     Re0    Alpha      Xe            Ye            Ze
    1   N      1    1.8900  1.000     -0.726210     -1.081828      0.346556
    2   N      2    1.8900  1.000      0.003955      0.143548      0.428413
    3   C      3    1.8500  1.000     -0.884510      1.178019      0.070894
    4   C      4    1.8500  1.000     -2.053104      0.550991     -0.278268
    5   N      5    1.8900  1.000     -1.963569     -0.789491     -0.128977
    6   H      6    1.2000  1.000     -0.586487      2.213564      0.083636
    7   H      7    1.2000  1.000     -2.974650      1.013509     -0.608630
    8   H      8    1.2000  1.000      0.945584     -1.687327     -0.184629
    9   C      9    1.8500  1.000      1.364460      0.083882     -0.010089
   10   O     10    1.5200  1.000      2.071828      1.082042     -0.044749
   11   O     11    1.5200  1.000      1.785077     -1.122380     -0.268694
 ------------------------------------------------------------------------------
 ------------------------------------------------------------------------------
 Atomic radii for non-electrostatic terms: SMD-CDS.
 ------------------------------------------------------------------------------
 Nuclear repulsion after PCM non-electrostatic terms =      359.4002901897 Hartrees.
 One-electron integrals computed using PRISM.
 NBasis=   167 RedAO= T EigKep=  5.03D-05  NBF=   167
 NBsUse=   167 1.00D-06 EigRej= -1.00D+00 NBFU=   167
 Initial guess from the checkpoint file:  "/scratch/gongke2021/PC/Gau-16984.chk"
 B after Tr=     0.000000   -0.000000    0.000000
         Rot=    0.999896   -0.011945    0.003465   -0.007286 Ang=  -1.65 deg.
 Initial guess <Sx>= 0.0000 <Sy>= 0.0000 <Sz>= 0.5000 <S**2>= 0.7643 S= 0.5071
 ExpMin= 4.38D-02 ExpMax= 5.48D+03 ExpMxC= 8.25D+02 IAcc=2 IRadAn=         4 AccDes= 0.00D+00
 Harris functional with IExCor= 1009 and IRadAn=       4 diagonalized for initial guess.
 HarFok:  IExCor= 1009 AccDes= 0.00D+00 IRadAn=         4 IDoV= 1 UseB2=F ITyADJ=14
 ICtDFT=  3500011 ScaDFX=  1.000000  1.000000  1.000000  1.000000
 FoFCou: FMM=F IPFlag=           0 FMFlag=      100000 FMFlg1=           0
         NFxFlg=           0 DoJE=T BraDBF=F KetDBF=T FulRan=T
         wScrn=  0.000000 ICntrl=       500 IOpCl=  0 I1Cent=   200000004 NGrid=           0
         NMat0=    1 NMatS0=      1 NMatT0=    0 NMatD0=    1 NMtDS0=    0 NMtDT0=    0
 Petite list used in FoFCou.
 Keep R1 and R2 ints in memory in canonical form, NReq=220618657.
 Requested convergence on RMS density matrix=1.00D-08 within 128 cycles.
 Requested convergence on MAX density matrix=1.00D-06.
 Requested convergence on             energy=1.00D-06.
 No special actions if energy rises.
 Inv3:  Mode=1 IEnd=     3108972.
 Iteration    1 A*A^-1 deviation from unit magnitude is 2.66D-15 for     72.
 Iteration    1 A*A^-1 deviation from orthogonality  is 2.22D-15 for    880    324.
 Iteration    1 A^-1*A deviation from unit magnitude is 3.11D-15 for    723.
 Iteration    1 A^-1*A deviation from orthogonality  is 2.40D-15 for    589    383.
 Error on total polarization charges =  0.05026
 SCF Done:  E(UM062X) =  -430.744164010     A.U. after   16 cycles
            NFock= 16  Conv=0.87D-08     -V/T= 2.0084
 <Sx>= 0.0000 <Sy>= 0.0000 <Sz>= 0.5000 <S**2>= 0.7643 S= 0.5071
 <L.S>=  0.00000000000    
 SMD-CDS (non-electrostatic) energy       (kcal/mol) =       3.60
 (included in total energy above)
 Annihilation of the first spin contaminant:
 S**2 before annihilation     0.7643,   after     0.7501
 D1PCM: PCM CHGder 1st derivatives, ID1Alg=3 FixD1E=F DoIter=F DoCFld=F I1PDM=0.
 Calling FoFJK, ICntrl=      2127 FMM=F ISym2X=0 I1Cent= 0 IOpClX= 1 NMat=1 NMatS=1 NMatT=0.
 ***** Axes restored to original set *****
 -------------------------------------------------------------------
 Center     Atomic                   Forces (Hartrees/Bohr)
 Number     Number              X              Y              Z
 -------------------------------------------------------------------
      1        7           0.006175796   -0.002428345   -0.003471737
      2        7           0.015411689   -0.010158083   -0.014331241
      3        6           0.002739928    0.006240680   -0.001030023
      4        6           0.000996654    0.002329034    0.003629896
      5        7           0.004125743   -0.001517993    0.002768025
      6        1          -0.000184564    0.000343810   -0.000477516
      7        1           0.000812047   -0.000089160   -0.000163805
      8        1           0.013346371    0.002959640   -0.004302036
      9        6          -0.037977036    0.028183716    0.019771090
     10        8           0.006110144    0.004655154   -0.004279026
     11        8          -0.011556772   -0.030518454    0.001886373
 -------------------------------------------------------------------
 Cartesian Forces:  Max     0.037977036 RMS     0.011903686

 GradGradGradGradGradGradGradGradGradGradGradGradGradGradGradGradGradGrad
 Berny optimization.
 Using GEDIIS/GDIIS optimizer.
 FormGI is forming the generalized inverse of G from B-inverse, IUseBI=4.
 Internal  Forces:  Max     0.032947986 RMS     0.007506479
 Search for a local minimum.
 Step number   2 out of a maximum of   55
 All quantities printed in internal units (Hartrees-Bohrs-Radians)
 Mixed Optimization -- RFO/linear search
 Update second derivatives using D2CorX and points    1    2
 DE= -1.38D-02 DEPred=-2.14D-02 R= 6.42D-01
 TightC=F SS=  1.41D+00  RLast= 3.71D-01 DXNew= 5.0454D-01 1.1128D+00
 Trust test= 6.42D-01 RLast= 3.71D-01 DXMaxT set to 5.05D-01
 ITU=  1  0
 Use linear search instead of GDIIS.
     Eigenvalues ---    0.01248   0.01521   0.01917   0.02069   0.02194
     Eigenvalues ---    0.02371   0.02997   0.03335   0.15982   0.15994
     Eigenvalues ---    0.17966   0.20709   0.22945   0.23283   0.24624
     Eigenvalues ---    0.28541   0.35617   0.36396   0.37762   0.40281
     Eigenvalues ---    0.43000   0.47335   0.48887   0.51559   0.53243
     Eigenvalues ---    0.71080   0.94463
 RFO step:  Lambda=-6.52423262D-03 EMin= 1.24758061D-02
 Quartic linear search produced a step of -0.07106.
 Iteration  1 RMS(Cart)=  0.04880948 RMS(Int)=  0.00171103
 Iteration  2 RMS(Cart)=  0.00238895 RMS(Int)=  0.00032337
 Iteration  3 RMS(Cart)=  0.00000379 RMS(Int)=  0.00032336
 Iteration  4 RMS(Cart)=  0.00000000 RMS(Int)=  0.00032336
 Variable       Old X    -DE/DX   Delta X   Delta X   Delta X     New X
                                 (Linear)    (Quad)   (Total)
    R1        2.69999  -0.00461  -0.00169  -0.00486  -0.00663   2.69336
    R2        2.56519  -0.00325   0.00017  -0.00608  -0.00591   2.55929
    R3        2.66399  -0.00004  -0.00143   0.00442   0.00293   2.66693
    R4        2.70357  -0.03295   0.00038  -0.07504  -0.07466   2.62892
    R5        2.59154  -0.00269   0.00092  -0.00759  -0.00662   2.58492
    R6        2.03647   0.00028  -0.00013   0.00117   0.00103   2.03750
    R7        2.55442   0.00367  -0.00023   0.00800   0.00784   2.56226
    R8        2.04607  -0.00067   0.00006  -0.00191  -0.00185   2.04422
    R9        1.91878  -0.01321   0.00452  -0.04657  -0.04205   1.87673
   R10        2.31281   0.00759  -0.00021   0.00811   0.00790   2.32071
   R11        2.46308   0.02678  -0.00033   0.03766   0.03734   2.50041
    A1        1.87675  -0.00466   0.00148  -0.02632  -0.02542   1.85133
    A2        1.86788   0.00735   0.00020   0.03107   0.03064   1.89853
    A3        2.01823  -0.00739  -0.00759   0.00388  -0.00432   2.01391
    A4        2.15580   0.00101   0.00316   0.00287   0.00598   2.16178
    A5        1.84014  -0.00515  -0.00073  -0.01856  -0.01997   1.82017
    A6        2.12686   0.00301  -0.00003   0.01345   0.01320   2.14006
    A7        2.31587   0.00217   0.00072   0.00634   0.00682   2.32269
    A8        1.94857   0.00042   0.00104   0.00105   0.00185   1.95043
    A9        2.22388  -0.00048  -0.00005  -0.00354  -0.00355   2.22034
   A10        2.11028   0.00010  -0.00096   0.00300   0.00208   2.11236
   A11        1.88876   0.00217  -0.00205   0.01781   0.01540   1.90415
   A12        2.12268   0.00745   0.00006   0.02685   0.02694   2.14962
   A13        1.98919  -0.00749  -0.00635  -0.00305  -0.00937   1.97981
   A14        2.16838   0.00008   0.00649  -0.02332  -0.01682   2.15157
   A15        1.80461   0.00999   0.01636  -0.00533   0.01104   1.81565
    D1        0.07025  -0.00158   0.00052  -0.06508  -0.06454   0.00571
    D2       -2.40725  -0.00356   0.00323  -0.11023  -0.10673  -2.51398
    D3       -0.05298   0.00072  -0.00173   0.04105   0.03877  -0.01421
    D4       -0.05936   0.00193   0.00100   0.06285   0.06413   0.00477
    D5        3.10601   0.00099   0.00206   0.01616   0.01851   3.12452
    D6        2.35272   0.00042  -0.00777   0.11439   0.10716   2.45989
    D7       -0.76509  -0.00052  -0.00671   0.06770   0.06154  -0.70355
    D8        3.08251   0.00033  -0.00323  -0.04820  -0.05187   3.03064
    D9       -0.13809   0.00085   0.00126  -0.04285  -0.04183  -0.17992
   D10        0.72601  -0.00378   0.00271  -0.11346  -0.11050   0.61551
   D11       -2.49458  -0.00325   0.00720  -0.10811  -0.10047  -2.59505
   D12        0.02863  -0.00186  -0.00216  -0.04114  -0.04257  -0.01394
   D13        3.13798  -0.00045   0.00029  -0.02258  -0.02208   3.11590
   D14       -3.14044  -0.00079  -0.00342   0.01289   0.01009  -3.13034
   D15       -0.03109   0.00063  -0.00097   0.03144   0.03059  -0.00050
   D16        0.01566   0.00075   0.00244   0.00027   0.00269   0.01834
   D17       -3.09609  -0.00055   0.00017  -0.01677  -0.01624  -3.11233
   D18        0.11952   0.00140  -0.00470   0.05149   0.04698   0.16650
   D19       -3.10346   0.00230  -0.00015   0.05965   0.05931  -3.04415
         Item               Value     Threshold  Converged?
 Maximum Force            0.032948     0.000450     NO 
 RMS     Force            0.007506     0.000300     NO 
 Maximum Displacement     0.167174     0.001800     NO 
 RMS     Displacement     0.049180     0.001200     NO 
 Predicted change in Energy=-3.727727D-03
 GradGradGradGradGradGradGradGradGradGradGradGradGradGradGradGradGradGrad

                          Input orientation:                          
 ---------------------------------------------------------------------
 Center     Atomic      Atomic             Coordinates (Angstroms)
 Number     Number       Type             X           Y           Z
 ---------------------------------------------------------------------
      1          7           0       -0.737045   -1.099759    0.292252
      2          7           0       -0.004447    0.119817    0.377789
      3          6           0       -0.856855    1.187562    0.024209
      4          6           0       -2.054353    0.586551   -0.251259
      5          7           0       -1.985371   -0.760011   -0.108281
      6          1           0       -0.532690    2.215869    0.028346
      7          1           0       -2.977871    1.070032   -0.540310
      8          1           0        0.930856   -1.748277   -0.122039
      9          6           0        1.333235    0.039534    0.004300
     10          8           0        2.065758    1.021119   -0.085414
     11          8           0        1.759143   -1.201916   -0.163518
 ---------------------------------------------------------------------
                    Distance matrix (angstroms):
                    1          2          3          4          5
     1  N    0.000000
     2  N    1.425266   0.000000
     3  C    2.306088   1.411276   0.000000
     4  C    2.207792   2.194461   1.367881   0.000000
     5  N    1.354316   2.221356   2.254805   1.355888   0.000000
     6  H    3.332386   2.189654   1.078199   2.246845   3.314334
     7  H    3.228383   3.253778   2.198000   1.081753   2.126209
     8  H    1.836874   2.148114   3.440415   3.792043   3.079162
     9  C    2.380538   1.391162   2.472825   3.440972   3.415420
    10  O    3.535033   2.304918   2.929401   4.146283   4.425448
    11  O    2.539511   2.269414   3.547999   4.212964   3.770903
                    6          7          8          9         10
     6  H    0.000000
     7  H    2.759569   0.000000
     8  H    4.228361   4.836938   0.000000
     9  C    2.866825   4.465889   1.836883   0.000000
    10  O    2.862219   5.064338   2.993142   1.228066   0.000000
    11  O    4.119534   5.267164   0.993122   1.323162   2.245439
                   11
    11  O    0.000000
 Stoichiometry    C3H3N3O2(1-,2)
 Framework group  C1[X(C3H3N3O2)]
 Deg. of freedom    27
 Full point group                 C1      NOp   1
 Largest Abelian subgroup         C1      NOp   1
 Largest concise Abelian subgroup C1      NOp   1
                         Standard orientation:                         
 ---------------------------------------------------------------------
 Center     Atomic      Atomic             Coordinates (Angstroms)
 Number     Number       Type             X           Y           Z
 ---------------------------------------------------------------------
      1          7           0       -0.691156   -1.110043    0.263921
      2          7           0        0.002506    0.129392    0.382308
      3          6           0       -0.885703    1.179196    0.064980
      4          6           0       -2.064932    0.548418   -0.222484
      5          7           0       -1.952038   -0.798882   -0.120173
      6          1           0       -0.594609    2.216823    0.098279
      7          1           0       -3.005130    1.010311   -0.492436
      8          1           0        0.994206   -1.691953   -0.177717
      9          6           0        1.339868    0.103333    0.000056
     10          8           0        2.040051    1.110214   -0.063844
     11          8           0        1.804318   -1.118231   -0.206885
 ---------------------------------------------------------------------
 Rotational constants (GHZ):           5.0487326           1.8289896           1.3784662
 Standard basis: 6-31+G(d,p) (6D, 7F)
 There are   167 symmetry adapted cartesian basis functions of A   symmetry.
 There are   167 symmetry adapted basis functions of A   symmetry.
   167 basis functions,   277 primitive gaussians,   167 cartesian basis functions
    30 alpha electrons       29 beta electrons
       nuclear repulsion energy       360.4857413807 Hartrees.
 NAtoms=   11 NActive=   11 NUniq=   11 SFac= 1.00D+00 NAtFMM=   60 NAOKFM=F Big=F
 Integral buffers will be    131072 words long.
 Raffenetti 2 integral format.
 Two-electron integral symmetry is turned on.
 ------------------------------------------------------------------------------
 Polarizable Continuum Model (PCM)
 =================================
 Model                : PCM.
 Atomic radii         : SMD-Coulomb.
 Polarization charges : Total charges.
 Charge compensation  : None.
 Solution method      : On-the-fly selection.
 Cavity type          : VdW (van der Waals Surface) (Alpha=1.000).
 Cavity algorithm     : GePol (No added spheres)
                        Default sphere list used, NSphG=   11.
                        Lebedev-Laikov grids with approx.  5.0 points / Ang**2.
                        Smoothing algorithm: York/Karplus (Gamma=1.0000).
                        Polarization charges: spherical gaussians, with
                                              point-specific exponents (IZeta= 3).
                        Self-potential: point-specific (ISelfS= 7).
                        Self-field    : sphere-specific E.n sum rule (ISelfD= 2).
 1st derivatives      : Analytical E(r).r(x)/FMM algorithm (CHGder, D1EAlg=3).
                        Cavity 1st derivative terms included.
 Solvent              : Water, Eps=  78.355300 Eps(inf)=   1.777849
 ------------------------------------------------------------------------------
 Spheres list:
 ISph  on   Nord     Re0    Alpha      Xe            Ye            Ze
    1   N      1    1.8900  1.000     -0.691156     -1.110043      0.263921
    2   N      2    1.8900  1.000      0.002506      0.129392      0.382308
    3   C      3    1.8500  1.000     -0.885703      1.179196      0.064980
    4   C      4    1.8500  1.000     -2.064932      0.548418     -0.222484
    5   N      5    1.8900  1.000     -1.952038     -0.798882     -0.120173
    6   H      6    1.2000  1.000     -0.594609      2.216823      0.098279
    7   H      7    1.2000  1.000     -3.005130      1.010311     -0.492436
    8   H      8    1.2000  1.000      0.994206     -1.691953     -0.177717
    9   C      9    1.8500  1.000      1.339868      0.103333      0.000056
   10   O     10    1.5200  1.000      2.040051      1.110214     -0.063844
   11   O     11    1.5200  1.000      1.804318     -1.118231     -0.206885
 ------------------------------------------------------------------------------
 ------------------------------------------------------------------------------
 Atomic radii for non-electrostatic terms: SMD-CDS.
 ------------------------------------------------------------------------------
 Nuclear repulsion after PCM non-electrostatic terms =      360.4914000324 Hartrees.
 One-electron integrals computed using PRISM.
 NBasis=   167 RedAO= T EigKep=  4.65D-05  NBF=   167
 NBsUse=   167 1.00D-06 EigRej= -1.00D+00 NBFU=   167
 Initial guess from the checkpoint file:  "/scratch/gongke2021/PC/Gau-16984.chk"
 B after Tr=     0.000000   -0.000000    0.000000
         Rot=    0.999985   -0.001934   -0.000437   -0.005070 Ang=  -0.62 deg.
 Initial guess <Sx>= 0.0000 <Sy>= 0.0000 <Sz>= 0.5000 <S**2>= 0.7644 S= 0.5072
 ExpMin= 4.38D-02 ExpMax= 5.48D+03 ExpMxC= 8.25D+02 IAcc=2 IRadAn=         4 AccDes= 0.00D+00
 Harris functional with IExCor= 1009 and IRadAn=       4 diagonalized for initial guess.
 HarFok:  IExCor= 1009 AccDes= 0.00D+00 IRadAn=         4 IDoV= 1 UseB2=F ITyADJ=14
 ICtDFT=  3500011 ScaDFX=  1.000000  1.000000  1.000000  1.000000
 FoFCou: FMM=F IPFlag=           0 FMFlag=      100000 FMFlg1=           0
         NFxFlg=           0 DoJE=T BraDBF=F KetDBF=T FulRan=T
         wScrn=  0.000000 ICntrl=       500 IOpCl=  0 I1Cent=   200000004 NGrid=           0
         NMat0=    1 NMatS0=      1 NMatT0=    0 NMatD0=    1 NMtDS0=    0 NMtDT0=    0
 Petite list used in FoFCou.
 Keep R1 and R2 ints in memory in canonical form, NReq=220618657.
 Requested convergence on RMS density matrix=1.00D-08 within 128 cycles.
 Requested convergence on MAX density matrix=1.00D-06.
 Requested convergence on             energy=1.00D-06.
 No special actions if energy rises.
 Inv3:  Mode=1 IEnd=     3030075.
 Iteration    1 A*A^-1 deviation from unit magnitude is 2.78D-15 for    722.
 Iteration    1 A*A^-1 deviation from orthogonality  is 2.00D-15 for    834    502.
 Iteration    1 A^-1*A deviation from unit magnitude is 2.66D-15 for    183.
 Iteration    1 A^-1*A deviation from orthogonality  is 9.27D-11 for    582    539.
 Error on total polarization charges =  0.05036
 SCF Done:  E(UM062X) =  -430.749031008     A.U. after   17 cycles
            NFock= 17  Conv=0.56D-08     -V/T= 2.0083
 <Sx>= 0.0000 <Sy>= 0.0000 <Sz>= 0.5000 <S**2>= 0.7647 S= 0.5073
 <L.S>=  0.00000000000    
 SMD-CDS (non-electrostatic) energy       (kcal/mol) =       3.55
 (included in total energy above)
 Annihilation of the first spin contaminant:
 S**2 before annihilation     0.7647,   after     0.7501
 D1PCM: PCM CHGder 1st derivatives, ID1Alg=3 FixD1E=F DoIter=F DoCFld=F I1PDM=0.
 Calling FoFJK, ICntrl=      2127 FMM=F ISym2X=0 I1Cent= 0 IOpClX= 1 NMat=1 NMatS=1 NMatT=0.
 ***** Axes restored to original set *****
 -------------------------------------------------------------------
 Center     Atomic                   Forces (Hartrees/Bohr)
 Number     Number              X              Y              Z
 -------------------------------------------------------------------
      1        7          -0.004422139    0.007960845   -0.000513382
      2        7           0.013524584   -0.004847150   -0.015230136
      3        6           0.001882810    0.001330408    0.004256785
      4        6          -0.000079569   -0.002966417    0.001352315
      5        7          -0.001611132   -0.002078703    0.001466652
      6        1           0.000402195   -0.000787560    0.000152986
      7        1          -0.000058930   -0.000604876   -0.000458258
      8        1           0.004112816   -0.003980512   -0.001945539
      9        6          -0.019862984    0.014227123    0.014248048
     10        8           0.005494473    0.004532397   -0.003296636
     11        8           0.000617875   -0.012785555   -0.000032834
 -------------------------------------------------------------------
 Cartesian Forces:  Max     0.019862984 RMS     0.007023848

 GradGradGradGradGradGradGradGradGradGradGradGradGradGradGradGradGradGrad
 Berny optimization.
 Using GEDIIS/GDIIS optimizer.
 FormGI is forming the generalized inverse of G from B-inverse, IUseBI=4.
 Internal  Forces:  Max     0.017500870 RMS     0.004265475
 Search for a local minimum.
 Step number   3 out of a maximum of   55
 All quantities printed in internal units (Hartrees-Bohrs-Radians)
 Mixed Optimization -- RFO/linear search
 Update second derivatives using D2CorX and points    1    2    3
 DE= -4.87D-03 DEPred=-3.73D-03 R= 1.31D+00
 TightC=F SS=  1.41D+00  RLast= 2.93D-01 DXNew= 8.4853D-01 8.7771D-01
 Trust test= 1.31D+00 RLast= 2.93D-01 DXMaxT set to 8.49D-01
 ITU=  1  1  0
 Use linear search instead of GDIIS.
     Eigenvalues ---    0.00969   0.01397   0.01899   0.02068   0.02148
     Eigenvalues ---    0.02362   0.02568   0.03090   0.15995   0.16018
     Eigenvalues ---    0.17710   0.21609   0.22071   0.23216   0.26498
     Eigenvalues ---    0.29070   0.35619   0.36394   0.40174   0.41700
     Eigenvalues ---    0.42938   0.46483   0.49467   0.51651   0.55808
     Eigenvalues ---    0.63793   0.94029
 RFO step:  Lambda=-5.81603452D-03 EMin= 9.69306791D-03
 Quartic linear search produced a step of  0.60035.
 Iteration  1 RMS(Cart)=  0.09164096 RMS(Int)=  0.00940713
 Iteration  2 RMS(Cart)=  0.01307613 RMS(Int)=  0.00231599
 Iteration  3 RMS(Cart)=  0.00016125 RMS(Int)=  0.00231438
 Iteration  4 RMS(Cart)=  0.00000011 RMS(Int)=  0.00231438
 Variable       Old X    -DE/DX   Delta X   Delta X   Delta X     New X
                                 (Linear)    (Quad)   (Total)
    R1        2.69336  -0.00155  -0.00398  -0.00581  -0.00861   2.68475
    R2        2.55929  -0.00246  -0.00355  -0.00817  -0.01252   2.54677
    R3        2.66693  -0.00170   0.00176  -0.00342  -0.00017   2.66676
    R4        2.62892  -0.01180  -0.04482  -0.06315  -0.10797   2.52094
    R5        2.58492   0.00293  -0.00397   0.00598   0.00165   2.58657
    R6        2.03750  -0.00063   0.00062  -0.00194  -0.00132   2.03618
    R7        2.56226  -0.00223   0.00471  -0.00072   0.00235   2.56461
    R8        2.04422  -0.00010  -0.00111  -0.00101  -0.00212   2.04210
    R9        1.87673  -0.00133  -0.02524  -0.02682  -0.05206   1.82467
   R10        2.32071   0.00714   0.00474   0.01382   0.01857   2.33927
   R11        2.50041   0.01750   0.02241   0.04936   0.07177   2.57218
    A1        1.85133   0.00582  -0.01526   0.01186  -0.00090   1.85043
    A2        1.89853  -0.00373   0.01840  -0.00172   0.01194   1.91047
    A3        2.01391   0.00383  -0.00259   0.07411   0.06281   2.07672
    A4        2.16178   0.00241   0.00359   0.03982   0.03394   2.19572
    A5        1.82017   0.00059  -0.01199  -0.00630  -0.01639   1.80378
    A6        2.14006  -0.00091   0.00793  -0.00113   0.00498   2.14504
    A7        2.32269   0.00032   0.00409   0.00705   0.00933   2.33201
    A8        1.95043   0.00116   0.00111   0.00805   0.00880   1.95922
    A9        2.22034   0.00002  -0.00213  -0.00052  -0.00253   2.21781
   A10        2.11236  -0.00118   0.00125  -0.00773  -0.00637   2.10600
   A11        1.90415  -0.00384   0.00924  -0.01151  -0.00347   1.90069
   A12        2.14962   0.00086   0.01617   0.01233   0.02820   2.17782
   A13        1.97981   0.00374  -0.00563   0.03530   0.02935   2.00916
   A14        2.15157  -0.00454  -0.01010  -0.04522  -0.05565   2.09591
   A15        1.81565   0.01088   0.00663   0.06053   0.06715   1.88280
    D1        0.00571   0.00098  -0.03875   0.01481  -0.02410  -0.01839
    D2       -2.51398  -0.00300  -0.06408  -0.14166  -0.20689  -2.72087
    D3       -0.01421  -0.00041   0.02328   0.00366   0.02636   0.01215
    D4        0.00477  -0.00112   0.03850  -0.02673   0.01214   0.01691
    D5        3.12452  -0.00134   0.01111  -0.04240  -0.03053   3.09398
    D6        2.45989   0.00359   0.06434   0.15907   0.22226   2.68215
    D7       -0.70355   0.00338   0.03695   0.14340   0.17959  -0.52396
    D8        3.03064  -0.00034  -0.03114  -0.01316  -0.04244   2.98820
    D9       -0.17992   0.00038  -0.02511   0.02292   0.00052  -0.17941
   D10        0.61551  -0.00271  -0.06634  -0.18286  -0.25192   0.36360
   D11       -2.59505  -0.00200  -0.06031  -0.14679  -0.20897  -2.80402
   D12       -0.01394   0.00087  -0.02556   0.02974   0.00435  -0.00960
   D13        3.11590   0.00034  -0.01325   0.01000  -0.00308   3.11282
   D14       -3.13034   0.00114   0.00606   0.04799   0.05399  -3.07635
   D15       -0.00050   0.00061   0.01837   0.02825   0.04656   0.04606
   D16        0.01834  -0.00035   0.00161  -0.02179  -0.01998  -0.00163
   D17       -3.11233   0.00014  -0.00975  -0.00349  -0.01311  -3.12544
   D18        0.16650   0.00051   0.02820   0.02790   0.05699   0.22349
   D19       -3.04415   0.00147   0.03561   0.06663   0.10135  -2.94280
         Item               Value     Threshold  Converged?
 Maximum Force            0.017501     0.000450     NO 
 RMS     Force            0.004265     0.000300     NO 
 Maximum Displacement     0.306903     0.001800     NO 
 RMS     Displacement     0.096736     0.001200     NO 
 Predicted change in Energy=-4.859532D-03
 GradGradGradGradGradGradGradGradGradGradGradGradGradGradGradGradGradGrad

                          Input orientation:                          
 ---------------------------------------------------------------------
 Center     Atomic      Atomic             Coordinates (Angstroms)
 Number     Number       Type             X           Y           Z
 ---------------------------------------------------------------------
      1          7           0       -0.774659   -1.106968    0.176048
      2          7           0       -0.018143    0.093555    0.245681
      3          6           0       -0.858371    1.195029   -0.023063
      4          6           0       -2.083472    0.617298   -0.220133
      5          7           0       -2.039311   -0.734047   -0.102987
      6          1           0       -0.515487    2.215800    0.015212
      7          1           0       -3.015788    1.122225   -0.428948
      8          1           0        1.093262   -1.837024   -0.102975
      9          6           0        1.296624    0.042880    0.025579
     10          8           0        2.031152    1.032061   -0.094271
     11          8           0        1.824555   -1.210291   -0.034069
 ---------------------------------------------------------------------
                    Distance matrix (angstroms):
                    1          2          3          4          5
     1  N    0.000000
     2  N    1.420711   0.000000
     3  C    2.312108   1.411188   0.000000
     4  C    2.200692   2.181026   1.368752   0.000000
     5  N    1.347693   2.211700   2.263258   1.357132   0.000000
     6  H    3.336739   2.191893   1.077501   2.251483   3.322290
     7  H    3.218382   3.240241   2.196472   1.080633   2.122617
     8  H    2.024837   2.254754   3.606744   4.016101   3.321081
     9  C    2.373817   1.334026   2.444140   3.437351   3.427625
    10  O    3.538515   2.279467   2.894991   4.137390   4.437103
    11  O    2.609739   2.274601   3.603301   4.318261   3.893716
                    6          7          8          9         10
     6  H    0.000000
     7  H    2.764904   0.000000
     8  H    4.362044   5.074220   0.000000
     9  C    2.829388   4.468611   1.895237   0.000000
    10  O    2.810443   5.058828   3.018503   1.237891   0.000000
    11  O    4.149256   5.387530   0.965573   1.361141   2.252654
                   11
    11  O    0.000000
 Stoichiometry    C3H3N3O2(1-,2)
 Framework group  C1[X(C3H3N3O2)]
 Deg. of freedom    27
 Full point group                 C1      NOp   1
 Largest Abelian subgroup         C1      NOp   1
 Largest concise Abelian subgroup C1      NOp   1
                         Standard orientation:                         
 ---------------------------------------------------------------------
 Center     Atomic      Atomic             Coordinates (Angstroms)
 Number     Number       Type             X           Y           Z
 ---------------------------------------------------------------------
      1          7           0       -0.693263   -1.133120    0.151619
      2          7           0        0.003522    0.100157    0.260873
      3          6           0       -0.895806    1.168092    0.055507
      4          6           0       -2.094122    0.537917   -0.145491
      5          7           0       -1.980191   -0.813232   -0.088722
      6          1           0       -0.603685    2.202362    0.132711
      7          1           0       -3.054416    1.003371   -0.315653
      8          1           0        1.202994   -1.754670   -0.191671
      9          6           0        1.314620    0.125849    0.015949
     10          8           0        1.996303    1.155302   -0.072987
     11          8           0        1.903257   -1.095158   -0.107959
 ---------------------------------------------------------------------
 Rotational constants (GHZ):           5.1148375           1.8060340           1.3497291
 Standard basis: 6-31+G(d,p) (6D, 7F)
 There are   167 symmetry adapted cartesian basis functions of A   symmetry.
[...]
    R8        2.04296  -0.00001   0.00000  -0.00003  -0.00003   2.04293
    R9        1.84387  -0.00003   0.00000  -0.00002  -0.00002   1.84385
   R10        2.35504  -0.00012   0.00000  -0.00023  -0.00023   2.35481
   R11        2.57084   0.00011   0.00000   0.00044   0.00044   2.57128
    A1        1.85438  -0.00004   0.00000  -0.00010  -0.00010   1.85428
    A2        1.91882   0.00005   0.00000   0.00012   0.00012   1.91894
    A3        2.12050  -0.00004   0.00000  -0.00012  -0.00012   2.12038
    A4        2.24386  -0.00001   0.00000   0.00000   0.00000   2.24386
    A5        1.80660  -0.00002   0.00000  -0.00002  -0.00002   1.80657
    A6        2.13852   0.00001   0.00000   0.00007   0.00007   2.13859
    A7        2.33806   0.00001   0.00000  -0.00004  -0.00004   2.33802
    A8        1.94316  -0.00004   0.00000  -0.00016  -0.00016   1.94301
    A9        2.22711   0.00002   0.00000   0.00006   0.00006   2.22717
   A10        2.11291   0.00003   0.00000   0.00010   0.00010   2.11301
   A11        1.90181   0.00005   0.00000   0.00016   0.00016   1.90197
   A12        2.17070   0.00001   0.00000   0.00012   0.00012   2.17081
   A13        2.00652  -0.00005   0.00000  -0.00026  -0.00026   2.00626
   A14        2.10597   0.00004   0.00000   0.00014   0.00014   2.10611
   A15        1.90658  -0.00008   0.00000  -0.00057  -0.00057   1.90601
    D1       -0.00078   0.00002   0.00000   0.00079   0.00079   0.00001
    D2        3.14142   0.00001   0.00000   0.00019   0.00019  -3.14158
    D3        0.00055  -0.00002   0.00000  -0.00055  -0.00055  -0.00001
    D4        0.00069  -0.00002   0.00000  -0.00069  -0.00069  -0.00001
    D5       -3.14115  -0.00001   0.00000  -0.00043  -0.00043  -3.14159
    D6       -3.14157  -0.00001   0.00000  -0.00004  -0.00004   3.14158
    D7       -0.00023  -0.00000   0.00000   0.00022   0.00022  -0.00000
    D8        3.14124   0.00001   0.00000   0.00038   0.00038  -3.14157
    D9       -0.00030   0.00000   0.00000   0.00032   0.00032   0.00002
   D10        0.00038  -0.00000   0.00000  -0.00035  -0.00035   0.00003
   D11       -3.14116  -0.00001   0.00000  -0.00040  -0.00040  -3.14156
   D12       -0.00035   0.00001   0.00000   0.00035   0.00035   0.00000
   D13        3.14127   0.00001   0.00000   0.00033   0.00033  -3.14159
   D14        3.14153  -0.00000   0.00000   0.00005   0.00005   3.14158
   D15       -0.00003  -0.00000   0.00000   0.00002   0.00002  -0.00001
   D16       -0.00013   0.00000   0.00000   0.00013   0.00013   0.00000
   D17        3.14144   0.00001   0.00000   0.00015   0.00015   3.14159
   D18        0.00258  -0.00002   0.00000  -0.00255  -0.00255   0.00003
   D19       -3.13896  -0.00002   0.00000  -0.00260  -0.00260  -3.14156
         Item               Value     Threshold  Converged?
 Maximum Force            0.000124     0.000450     YES
 RMS     Force            0.000038     0.000300     YES
 Maximum Displacement     0.002834     0.001800     NO 
 RMS     Displacement     0.000630     0.001200     YES
 Predicted change in Energy=-1.959382D-07
                           ----------------------------
                           ! Non-Optimized Parameters !
                           ! (Angstroms and Degrees)  !
 --------------------------                            --------------------------
 ! Name  Definition              Value          Derivative Info.                !
 --------------------------------------------------------------------------------
 ! R1    R(1,2)                  1.3984         -DE/DX =    0.0                 !
 ! R2    R(1,5)                  1.3456         -DE/DX =   -0.0001              !
 ! R3    R(2,3)                  1.3944         -DE/DX =   -0.0001              !
 ! R4    R(2,9)                  1.3464         -DE/DX =    0.0                 !
 ! R5    R(3,4)                  1.3767         -DE/DX =    0.0                 !
 ! R6    R(3,6)                  1.0768         -DE/DX =    0.0                 !
 ! R7    R(4,5)                  1.3489         -DE/DX =    0.0                 !
 ! R8    R(4,7)                  1.0811         -DE/DX =    0.0                 !
 ! R9    R(8,11)                 0.9757         -DE/DX =    0.0                 !
 ! R10   R(9,10)                 1.2461         -DE/DX =   -0.0001              !
 ! R11   R(9,11)                 1.3607         -DE/DX =    0.0001              !
 ! A1    A(2,1,5)              106.2425         -DE/DX =    0.0                 !
 ! A2    A(1,2,3)              109.9473         -DE/DX =    0.0001              !
 ! A3    A(1,2,9)              121.4887         -DE/DX =    0.0                 !
 ! A4    A(3,2,9)              128.5639         -DE/DX =    0.0                 !
 ! A5    A(2,3,4)              103.509          -DE/DX =    0.0                 !
 ! A6    A(2,3,6)              122.5323         -DE/DX =    0.0                 !
 ! A7    A(4,3,6)              133.9586         -DE/DX =    0.0                 !
 ! A8    A(3,4,5)              111.3261         -DE/DX =    0.0                 !
 ! A9    A(3,4,7)              127.6072         -DE/DX =    0.0                 !
 ! A10   A(5,4,7)              121.0667         -DE/DX =    0.0                 !
 ! A11   A(1,5,4)              108.975          -DE/DX =    0.0                 !
 ! A12   A(2,9,10)             124.3785         -DE/DX =    0.0                 !
 ! A13   A(2,9,11)             114.9504         -DE/DX =    0.0                 !
 ! A14   A(10,9,11)            120.6711         -DE/DX =    0.0                 !
 ! A15   A(8,11,9)             109.2065         -DE/DX =   -0.0001              !
 ! D1    D(5,1,2,3)              0.0004         -DE/DX =    0.0                 !
 ! D2    D(5,1,2,9)           -179.999          -DE/DX =    0.0                 !
 ! D3    D(2,1,5,4)             -0.0003         -DE/DX =    0.0                 !
 ! D4    D(1,2,3,4)             -0.0003         -DE/DX =    0.0                 !
 ! D5    D(1,2,3,6)           -179.9996         -DE/DX =    0.0                 !
 ! D6    D(9,2,3,4)            179.999          -DE/DX =    0.0                 !
 ! D7    D(9,2,3,6)             -0.0003         -DE/DX =    0.0                 !
 ! D8    D(1,2,9,10)          -179.9989         -DE/DX =    0.0                 !
 ! D9    D(1,2,9,11)             0.0012         -DE/DX =    0.0                 !
 ! D10   D(3,2,9,10)             0.0018         -DE/DX =    0.0                 !
 ! D11   D(3,2,9,11)          -179.9981         -DE/DX =    0.0                 !
 ! D12   D(2,3,4,5)              0.0001         -DE/DX =    0.0                 !
 ! D13   D(2,3,4,7)           -179.9997         -DE/DX =    0.0                 !
 ! D14   D(6,3,4,5)            179.9993         -DE/DX =    0.0                 !
 ! D15   D(6,3,4,7)             -0.0005         -DE/DX =    0.0                 !
 ! D16   D(3,4,5,1)              0.0001         -DE/DX =    0.0                 !
 ! D17   D(7,4,5,1)            180.0            -DE/DX =    0.0                 !
 ! D18   D(2,9,11,8)             0.0019         -DE/DX =    0.0                 !
 ! D19   D(10,9,11,8)         -179.9981         -DE/DX =    0.0                 !
 --------------------------------------------------------------------------------
 GradGradGradGradGradGradGradGradGradGradGradGradGradGradGradGradGradGrad


 ----------------------------------------------------------------------

 Electric dipole moment (input orientation):
 (Debye = 10**-18 statcoulomb cm , SI units = C m)
                  (au)            (Debye)         (10**-30 SI)
   Tot        0.997480D+00      0.253534D+01      0.845699D+01
   x         -0.877192D+00     -0.222960D+01     -0.743714D+01
   y          0.472456D+00      0.120086D+01      0.400565D+01
   z         -0.478175D-01     -0.121540D+00     -0.405414D+00

 Dipole polarizability, Alpha (input orientation).
 (esu units = cm**3 , SI units = C**2 m**2 J**-1)
 Alpha(0;0):
               (au)            (10**-24 esu)      (10**-40 SI)
   iso        0.111345D+03      0.164996D+02      0.183582D+02
   aniso      0.887836D+02      0.131564D+02      0.146384D+02
   xx         0.160305D+03      0.237547D+02      0.264307D+02
   yx         0.113043D+02      0.167512D+01      0.186383D+01
   yy         0.113026D+03      0.167487D+02      0.186355D+02
   zx         0.416810D+01      0.617649D+00      0.687227D+00
   zy        -0.350495D+00     -0.519380D-01     -0.577888D-01
   zz         0.607032D+02      0.899528D+01      0.100086D+02

 ----------------------------------------------------------------------

 Dipole orientation:
     7         -1.27479141         -2.19300046          0.32274434
     7         -0.01033614          0.11774535          0.10975092
     6          0.51901771          1.07689391          2.50661188
     6         -0.46046819         -0.72146744          4.11077905
     7         -1.51569383         -2.64533146          2.81356567
     1          1.48639453          2.84484388          2.78858836
     1         -0.44861710         -0.70885419          6.15366269
     1         -1.06853236         -1.79125668         -3.58321155
     6          0.53753504          1.12893122         -2.15982099
     8          1.65753626          3.17767424         -2.46717580
     8         -0.22852882         -0.26263781         -4.18117868

 Electric dipole moment (dipole orientation):
 (Debye = 10**-18 statcoulomb cm , SI units = C m)
                  (au)            (Debye)         (10**-30 SI)
   Tot        0.997480D+00      0.253534D+01      0.845699D+01
   x          0.000000D+00      0.000000D+00      0.000000D+00
   y          0.000000D+00      0.000000D+00      0.000000D+00
   z          0.997480D+00      0.253534D+01      0.845699D+01

 Dipole polarizability, Alpha (dipole orientation).
 (esu units = cm**3 , SI units = C**2 m**2 J**-1)
 Alpha(0;0):
               (au)            (10**-24 esu)      (10**-40 SI)
   iso        0.111345D+03      0.164996D+02      0.183582D+02
   aniso      0.887836D+02      0.131564D+02      0.146384D+02
   xx         0.771904D+02      0.114384D+02      0.127270D+02
   yx         0.305324D+02      0.452443D+01      0.503411D+01
   yy         0.116424D+03      0.172523D+02      0.191958D+02
   zx        -0.123421D+02     -0.182891D+01     -0.203494D+01
   zy        -0.228940D+02     -0.339254D+01     -0.377471D+01
   zz         0.140419D+03      0.208080D+02      0.231520D+02

 ----------------------------------------------------------------------
 1\1\GINC-NODE5\Freq\UM062X\6-31+G(d,p)\C3H3N3O2(1-,2)\GONGKE2021\06-Ju
 l-2023\0\\#N Geom=AllCheck Guess=TCheck SCRF=Check GenChk UM062X/6-31+
 G(d,p) Freq\\test\\-1,2\N,-0.7845325692,-1.101271031,-0.0517638693\N,-
 0.0248405439,0.0727413281,-0.0371064287\C,-0.8656109567,1.1840142477,-
 0.0919735372\C,-2.125771968,0.6319175662,-0.137734364\N,-2.0723182241,
 -0.7156929733,-0.1136832986\H,-0.4914340836,2.1937582546,-0.0920727749
 \H,-3.0723561695,1.1518007958,-0.1872043073\H,1.1466508424,-1.87002701
 69,0.0426121556\C,1.3198589354,0.039733467,0.0219782112\O,2.0484567772
 ,1.0506756781,0.0374754666\O,1.8622595499,-1.2071302861,0.0655474765\\
 Version=ES64L-G16RevA.03\State=2-A\HF=-430.757455\S2=0.766466\S2-1=0.\
 S2A=0.75013\RMSD=2.414e-09\RMSF=6.560e-05\ZeroPoint=0.0707179\Thermal=
 0.0773313\Dipole=-0.877192,0.4724561,-0.0478175\DipoleDeriv=0.3360886,
 0.8907413,0.018192,-0.8389183,-0.648558,-0.0325573,0.0443794,0.0422009
 ,-0.4087441,-0.5813137,-0.072706,-0.0256559,0.043049,-0.235359,0.00617
 34,-0.0261651,0.001271,0.0388744,-0.538368,-0.4944702,0.0047822,0.4109
 343,-0.4369561,0.0174122,-0.0105154,-0.0216782,-0.4624326,0.5925129,0.
 4105268,0.0233534,0.4605749,0.7044883,0.0069847,0.0225072,0.0046223,-0
 .0978851,-1.418343,-0.8097518,-0.0331003,-0.1402392,-0.6169918,-0.0019
 291,-0.042623,-0.0307131,-0.3615936,0.1002521,-0.0189138,-0.0106471,0.
 0093359,0.0945143,0.0045744,-0.0111767,0.0032756,0.3507608,-0.0062387,
 0.0897286,-0.011253,0.0893063,0.1112015,0.005655,-0.011287,0.0056251,0
 .2191708,0.416751,-0.0829889,-0.0004314,-0.0573206,0.5112798,-0.003339
 9,-0.0003378,-0.004541,0.4492429,3.7196032,0.3606466,0.1318647,0.96979
 79,2.754166,0.0072848,0.1207241,-0.0194102,0.5655457,-2.4942412,-0.544
 552,-0.0693619,-2.0978137,-1.6651435,-0.0764398,-0.0433112,-0.0085071,
 -0.7098503,-1.1267031,0.2717392,-0.0277428,1.1512936,-1.5726415,0.0661
 816,-0.0421944,0.0278547,-0.583089\Polar=160.3045569,11.3042882,113.02
 61452,4.1681029,-0.3504947,60.7031901\Quadrupole=-10.7679005,4.4933816
 ,6.2745188,-9.8167393,-0.5903634,-0.3916699\PG=C01 [X(C3H3N3O2)]\NImag
 =0\\0.44356726,-0.08498406,0.40147525,0.01806136,-0.00911680,0.0601826
 1,-0.09312780,0.03858260,-0.00290922,0.86679031,-0.04238944,-0.1866258
 0,0.00045029,-0.08808904,0.58380407,-0.00163410,0.00402511,-0.04032783
 ,0.03545437,-0.01184830,0.08746864,0.01649143,-0.00056353,0.00074428,-
 0.15361552,0.07597344,-0.00629973,0.63681909,-0.01124399,-0.05342835,0
 .00036921,0.06115704,-0.21998711,0.00562457,0.16488051,0.79192803,0.00
 093662,0.00080267,-0.00098814,-0.00607184,0.00629890,-0.03777879,0.021
 90436,-0.00450695,0.07335497,-0.06711547,0.05197276,-0.00444651,-0.081
 41152,0.04856622,-0.00469607,-0.33535336,-0.10207674,-0.01057689,0.848
 39575,0.04892700,-0.04514010,0.00315228,-0.00616943,0.01304670,-0.0003
 6814,-0.07098541,-0.13496529,-0.00177199,-0.12175085,0.63557501,-0.004
 40709,0.00323482,0.01639950,-0.00382510,0.00204407,0.00817215,-0.01106
 868,-0.00312346,-0.05442663,0.03327008,-0.01346660,0.12930810,-0.25587
 715,0.01029601,-0.00910252,-0.09767272,-0.03619933,-0.00390317,-0.0286
 2364,-0.02621217,-0.00200003,-0.07619646,0.03965164,-0.00117992,0.4578
 4304,0.12571518,-0.12402757,0.00658895,-0.01198357,-0.00980821,-0.0002
 4879,-0.09043662,-0.07014374,-0.00234939,0.00366485,-0.33228226,0.0044
 6767,-0.01633461,0.54546889,-0.01093681,0.00162490,-0.05066161,-0.0043
 2553,-0.00131920,0.00550474,-0.00094400,0.00043562,0.02731591,-0.00061
 645,0.00601096,-0.06424920,0.01662801,-0.00814428,0.08219081,-0.004186
 11,0.00309538,-0.00040266,0.01141888,0.02361387,0.00036295,-0.09633820
 ,-0.11456214,-0.00189925,0.00577922,-0.01999928,0.00067383,-0.00449253
 ,-0.00411238,-0.00037562,0.08778737,0.00099030,-0.00073233,0.00012123,
 -0.00873471,-0.01498714,-0.00023261,-0.10443390,-0.33863047,0.00078393
 ,0.00061402,0.00164811,-0.00003788,0.00244831,0.00154743,0.00017310,0.
 11153712,0.35148216,-0.00036604,0.00020421,0.00386449,0.00088507,0.001
 18281,-0.00558697,-0.00206544,0.00033867,-0.01023183,0.00034475,-0.000
 92904,-0.00229695,-0.00048254,-0.00011413,0.00566214,0.00154215,-0.000
 66870,0.01096508,0.00186737,-0.00220508,-0.00023673,-0.00387883,-0.001
 22820,-0.00040940,-0.00840270,0.01437472,-0.00064470,-0.29962432,0.126
 16706,-0.01360210,0.00570380,-0.00041968,0.00049616,0.00004987,-0.0003
 4296,0.00009928,0.30428249,0.00044729,-0.00552754,0.00024017,-0.005591
 73,-0.00247155,-0.00010620,-0.00963730,0.01224655,-0.00060198,0.119999
 14,-0.12373712,0.00667878,0.03133468,-0.00949907,0.00142001,0.00073084
 ,-0.00037903,0.00000352,-0.13734976,0.12803540,-0.00027758,0.00012236,
 0.00809538,-0.00034143,0.00008348,0.00604505,-0.00026194,0.00044200,0.
 00103025,-0.01349745,0.00694766,-0.03375443,-0.00001709,0.00004167,-0.
 00557187,0.00008278,-0.00004310,-0.00211395,0.01434603,-0.00762867,0.0
 2553097,0.00563235,0.00210816,0.00017315,0.00021116,0.00687078,-0.0001
 7544,-0.00190676,-0.00026695,-0.00004420,0.00266373,-0.00007502,0.0001
 1773,-0.00474441,-0.00399829,-0.00007885,0.00000774,-0.00008872,-0.000
 00131,-0.00008470,-0.00040518,-0.00000604,0.26993430,0.00036831,-0.001
 11759,0.00004531,-0.00003920,-0.00087735,0.00003944,-0.00055607,-0.000
 85918,-0.00002034,-0.00095702,0.00073146,-0.00005491,-0.00104353,0.000
 77225,-0.00008280,-0.00010214,0.00007502,-0.00000497,-0.00019449,0.000
 09159,-0.00000732,0.21955319,0.27640429,0.00018274,0.00012124,0.001248
 21,-0.00009380,0.00034473,0.00188395,-0.00003562,-0.00002210,-0.000804
 49,0.00012769,-0.00001096,-0.00004946,-0.00010837,-0.00020832,-0.00167
 101,-0.00000119,-0.00000365,0.00007149,-0.00001021,-0.00001497,0.00021
 216,0.00886578,0.00605925,0.00542400,-0.04873151,-0.00643508,-0.002161
 26,-0.37120659,0.01386762,-0.01444818,-0.02423161,0.00894491,-0.001254
 46,0.00332871,0.00149620,0.00012774,0.02892174,-0.00609929,0.00144130,
 0.00164997,-0.00222956,0.00012572,0.00149103,0.00019866,0.00001213,0.0
 2179161,-0.02814506,0.00156440,0.78114944,-0.02789611,0.02875906,-0.00
 158666,0.01433320,-0.13070938,0.00196683,0.03506596,0.00219329,0.00151
 897,0.00064383,-0.01199104,0.00022183,0.00295635,-0.00792552,0.0001994
 9,-0.00024176,-0.00129260,0.00000475,0.00115370,0.00054211,0.00006057,
 0.00712462,-0.03782014,0.00084595,0.14313675,0.72944301,-0.00184097,-0
 .00071610,0.00375808,-0.01435357,0.00197165,-0.04662469,-0.00172560,0.
 00040568,0.00173589,0.00014355,0.00025724,-0.00001470,0.00128872,-0.00
 017200,-0.00227738,0.00009434,-0.00008375,-0.00043197,-0.00000232,0.00
 001848,0.00112048,0.00104115,-0.00075699,-0.00335797,0.02621663,-0.003
 31981,0.12951094,0.00581424,-0.01078565,0.00029846,-0.04102208,-0.0563
 5457,-0.00141792,-0.00045385,0.01020933,-0.00002153,0.00161750,-0.0023
 5223,0.00013530,-0.02165793,0.00160051,-0.00107527,-0.00134280,-0.0002
 8007,-0.00007250,-0.00072270,0.00030454,-0.00003544,-0.00263022,0.0033
 1181,-0.00033037,-0.24691513,-0.20934085,-0.00531710,0.28444458,0.0078
 3632,-0.03237254,0.00084133,-0.00164261,-0.00159225,0.00022493,-0.0102
 7322,0.01865992,-0.00084170,0.00421348,0.00186037,0.00014230,-0.025301
 28,0.00506043,-0.00110942,-0.00060888,0.00148073,-0.00004403,-0.000628
 83,0.00062244,-0.00003809,0.00517245,-0.00348548,0.00038874,-0.2082182
 3,-0.36721123,-0.00397769,0.26060366,0.44980649,0.00002595,0.00010572,
 0.00220251,-0.00235199,-0.00221627,0.01309570,0.00033584,0.00006262,-0
 .00415030,0.00002849,-0.00014185,-0.00063805,-0.00064547,0.00002826,0.
 00278836,-0.00006665,-0.00002938,0.00042227,-0.00002048,0.00000274,-0.
 00001800,-0.00037684,0.00025293,0.00380763,-0.00531907,-0.00399474,-0.
 04832766,0.00718735,0.00453951,0.02372121,-0.00433462,-0.00108153,-0.0
 0001836,-0.03648530,0.05536865,-0.00283334,-0.00438491,-0.00520453,-0.
 00032808,-0.00208380,0.00509032,-0.00024178,-0.00320373,0.00240390,-0.
 00021294,-0.00033342,0.00052016,-0.00000912,-0.00068132,-0.00003118,-0
 .00000397,-0.29087480,-0.19219580,-0.01016106,-0.14724765,0.03306430,-
 0.00554484,0.02286839,-0.03115285,0.00120287,0.46676117,-0.01777080,0.
 01873750,-0.00110532,0.00817745,-0.02979197,0.00092314,0.01096612,-0.0
 0701366,0.00068788,-0.00488969,-0.00474584,-0.00010663,0.01840393,0.00
 083739,0.00079162,0.00064938,-0.00021188,0.00002692,0.00067351,0.00007
 622,0.00001944,-0.23599504,-0.23391486,-0.00749991,0.08348308,-0.20398
 756,0.00637328,0.00308351,-0.07282887,0.00139045,0.13321855,0.53284353
 ,0.00025591,-0.00040813,-0.00377321,-0.00206697,0.00300784,0.00814805,
 -0.00058347,-0.00002587,0.00494314,-0.00008117,0.00032044,0.00154968,-
 0.00047761,0.00011036,0.00096912,-0.00001069,0.00002080,-0.00032382,-0
 .00001552,-0.00001188,-0.00057605,-0.00951515,-0.00546959,-0.00676451,
 -0.00630494,0.00408282,-0.03509102,0.00064901,-0.00012589,0.00709633,0
 .01815061,-0.00150089,0.02382229\\0.00002406,0.00002855,-0.00005497,0.
 00008111,-0.00003623,0.00005783,-0.00010950,0.00003672,-0.00003410,0.0
 0009480,0.00001475,0.00000951,-0.00012424,-0.00001169,0.00002386,0.000
 00846,-0.00000557,-0.00000709,-0.00000647,0.00000830,0.00000159,0.0000
 0435,-0.00005364,-0.00002275,-0.00000292,-0.00020905,0.00001986,0.0000
 8561,0.00008593,-0.00001550,-0.00005526,0.00014193,0.00002176\\\@


 EVERY WORD THAT YOU WRITE IS A BLOW THAT SMITES THE DEVIL.
     -- ST. BERNARD OF CLAIRVAUX
 Job cpu time:       0 days  0 hours 22 minutes 57.3 seconds.
 Elapsed time:       0 days  0 hours  0 minutes 58.2 seconds.
 File lengths (MBytes):  RWF=     92 Int=      0 D2E=      0 Chk=      7 Scr=      1
 Normal termination of Gaussian 16 at Thu Jul  6 21:06:11 2023.
